Title
81344
    1CHL1    C3    1   6.089   1.609  10.262 -0.4825  0.6663  0.6391
    1CHL1    H3    2   6.109   1.719  10.257 -0.7496  0.6976  0.2211
    1CHL1    O3    3   6.111   1.569  10.396  0.3543 -0.0929  0.7207
    1CHL1   H3'    4   6.076   1.480  10.386  1.5806 -0.4186 -1.0859
    1CHL1    C4    5   5.940   1.592  10.229 -0.0632 -0.9138  0.3965
    1CHL1   H4A    6   5.905   1.487  10.238 -0.5666 -0.7077  0.9092
    1CHL1   H4B    7   5.888   1.657  10.303 -0.6556 -2.2768  1.2004
    1CHL1    C5    8   5.914   1.641  10.087 -0.0520  0.0029  0.2668
    1CHL1    C6    9   5.818   1.726  10.062  0.0576 -0.3043 -0.5960
    1CHL1    H6   10   5.772   1.779  10.147  2.0149 -1.2022  1.1096
    1CHL1    C7   11   5.767   1.745   9.924 -0.4505  0.1257 -0.2929
    1CHL1   H7A   12   5.656   1.740   9.912 -0.3283 -0.1478 -1.3273
    1CHL1   H7B   13   5.791   1.845   9.884  1.3630  0.2316  0.9455
    1CHL1    C8   14   5.829   1.641   9.823 -0.0217 -0.4846 -0.7766
    1CHL1    H8   15   5.770   1.547   9.833  2.9290 -2.4569 -0.4325
    1CHL1   C14   16   5.803   1.689   9.675  0.4535  0.1239  0.1187
    1CHL1   H14   17   5.843   1.793   9.674  1.1092 -0.1291 -0.7502
    1CHL1   C15   18   5.659   1.703   9.625 -0.0831  0.1256 -0.4017
    1CHL1  H15A   19   5.602   1.614   9.659  0.6020 -1.0307 -2.1442
    1CHL1  H15B   20   5.615   1.794   9.671  0.1132 -0.7058  1.5202
    1CHL1   C16   21   5.672   1.723   9.471 -0.2151 -0.2983  0.0565
    1CHL1  H16A   22   5.593   1.660   9.423 -0.4257 -1.2337  1.5773
    1CHL1  H16B   23   5.656   1.830   9.446  2.3387  0.4600  1.3130
    1CHL1   C17   24   5.818   1.680   9.432 -0.0502  0.0609  1.0932
    1CHL1   H17   25   5.871   1.776   9.415 -1.7544  0.7019 -0.9756
    1CHL1   C13   26   5.861   1.608   9.565 -0.9246  0.1233  0.1353
    1CHL1   C18   27   5.803   1.466   9.561 -0.4398  0.4526  0.0355
    1CHL1  H18A   28   5.864   1.397   9.499  0.0936 -0.1923  1.2430
    1CHL1  H18B   29   5.786   1.429   9.664 -2.2400  1.2579  0.0697
    1CHL1  H18C   30   5.700   1.478   9.521 -0.3260  4.4247  0.4606
    1CHL1   C12   31   6.008   1.604   9.590 -0.5467  0.8939  0.8148
    1CHL1  H12A   32   6.071   1.547   9.518 -1.4017  0.4557  0.3967
    1CHL1  H12B   33   6.050   1.707   9.596 -0.9788  1.0887  0.5518
    1CHL1   C11   34   6.039   1.546   9.729  0.2906  0.4519  0.1733
    1CHL1  H11A   35   5.996   1.443   9.738 -1.7895  1.1374 -1.1302
    1CHL1  H11B   36   6.145   1.541   9.759  1.0832  1.0040 -2.3007
    1CHL1    C9   37   5.971   1.619   9.847 -0.4666  0.4845 -0.4369
    1CHL1    H9   38   6.015   1.722   9.841 -1.7691  1.0919  0.0946
    1CHL1   C10   39   5.994   1.561   9.987  0.8515  0.0691  0.5207
    1CHL1   C19   40   5.952   1.404   9.989 -0.1568  0.0951  0.6270
    1CHL1  H19A   41   6.015   1.346   9.918 -1.3841 -0.4083 -0.0919
    1CHL1  H19B   42   5.967   1.355  10.088  0.5541  0.1599  0.5591
    1CHL1  H19C   43   5.848   1.374   9.962  0.9188 -3.5246  0.0042
    1CHL1    C1   44   6.146   1.574  10.017  0.0041 -0.0045 -0.2518
    1CHL1   H1A   45   6.209   1.504   9.957 -0.5021 -3.0056  2.4149
    1CHL1   H1B   46   6.185   1.674   9.988 -1.8088  0.7169 -0.3133
    1CHL1    C2   47   6.180   1.538  10.160 -0.1905  0.0336 -0.3524
    1CHL1   H2A   48   6.284   1.561  10.189 -0.3282 -0.4143  0.5520
    1CHL1   H2B   49   6.162   1.429  10.176 -3.1096  0.4122 -0.4193
    1CHL1   C20   50   5.819   1.610   9.298  0.2234  0.2320  0.2368
    1CHL1   H20   51   5.764   1.514   9.302  1.0230 -0.2153  0.8700
    1CHL1   C21   52   5.964   1.591   9.259 -0.3036  0.2871  0.0231
    1CHL1  H21A   53   5.971   1.566   9.151 -0.5467  1.6547 -0.3279
    1CHL1  H21B   54   6.000   1.500   9.312  3.4824  1.6038  0.0104
    1CHL1  H21C   55   6.026   1.680   9.282 -1.3250  0.6776  1.4282
    1CHL1   C22   56   5.744   1.688   9.182 -0.2228 -0.2989 -0.1737
    1CHL1  H22A   57   5.667   1.750   9.232 -1.3701 -1.1564 -0.8525
    1CHL1  H22B   58   5.815   1.764   9.143  0.9408 -1.4619 -0.3783
    1CHL1   C23   59   5.691   1.601   9.069 -0.3331 -0.3779  0.4314
    1CHL1  H23A   60   5.769   1.535   9.024 -0.0982  1.5243 -2.1715
    1CHL1  H23B   61   5.619   1.533   9.118  0.9119 -2.4684 -0.5138
    1CHL1   C24   62   5.630   1.681   8.949 -0.4405  0.4594  0.0746
    1CHL1  H24A   63   5.550   1.747   8.989  1.0232  1.4933  1.4153
    1CHL1  H24B   64   5.717   1.745   8.920 -0.9975  0.2897 -2.1901
    1CHL1   C25   65   5.593   1.613   8.813  0.0785 -0.0412  0.2478
    1CHL1   H25   66   5.673   1.539   8.794 -0.1478  0.1240 -1.5020
    1CHL1   C26   67   5.462   1.550   8.837 -0.2845 -0.1797 -0.3065
    1CHL1  H26A   68   5.392   1.568   8.751 -0.3653  1.2953  0.0314
    1CHL1  H26B   69   5.465   1.440   8.848 -1.7815 -0.2437 -0.3053
    1CHL1  H26C   70   5.414   1.597   8.926  0.7008 -0.4495  0.3769
    1CHL1   C27   71   5.597   1.706   8.694 -0.3634  0.1560 -0.0043
    1CHL1  H27A   72   5.566   1.647   8.605  0.7700 -0.7524  0.1724
    1CHL1  H27B   73   5.527   1.791   8.708 -0.6927  0.2212 -1.8286
    1CHL1  H27C   74   5.701   1.733   8.668 -0.3514 -1.0964 -1.4538
    2CHL1    C3   75   0.039   0.897  10.119  0.0528 -0.3635  0.1046
    2CHL1    H3   76  -0.041   0.820  10.114  0.4092 -0.6457 -2.4001
    2CHL1    O3   77   0.073   0.926  10.257  0.6273  0.3326 -0.1173
    2CHL1   H3'   78   0.058   0.843  10.303 -3.5620  0.6755 -0.4573
    2CHL1    C4   79   0.150   0.829  10.045  0.0600 -0.0010  0.3414
    2CHL1   H4A   80   0.250   0.874  10.060  0.2286 -0.9958  2.5080
    2CHL1   H4B   81   0.161   0.728  10.091  1.2178 -0.5673 -1.0714
    2CHL1    C5   82   0.124   0.807   9.897  0.1708 -0.0374 -0.3070
    2CHL1    C6   83   0.121   0.684   9.841  0.5465  0.1171 -0.0814
    2CHL1    H6   84   0.159   0.602   9.905  0.4919 -0.1848 -0.4326
    2CHL1    C7   85   0.098   0.660   9.699 -0.3541  0.2037  0.3617
    2CHL1   H7A   86   0.171   0.585   9.663 -1.7958  0.4433 -3.4857
    2CHL1   H7B   87   0.001   0.606   9.692 -0.6569  0.3189  2.7073
    2CHL1    C8   88   0.122   0.784   9.613 -0.2572  0.2088 -0.5541
    2CHL1    H8   89   0.228   0.815   9.626 -0.5346  1.4260 -1.0721
    2CHL1   C14   90   0.089   0.767   9.462 -0.1187  0.4772  0.4062
    2CHL1   H14   91  -0.019   0.746   9.449 -0.3673  1.6053  0.6163
    2CHL1   C15   92   0.148   0.646   9.386  0.0100  0.3425 -0.8138
    2CHL1  H15A   93   0.251   0.624   9.419 -0.8859 -1.1492  1.2051
    2CHL1  H15B   94   0.086   0.557   9.411 -1.2314  1.7086  1.2490
    2CHL1   C16   95   0.134   0.673   9.241 -0.2289 -0.7165 -0.0939
    2CHL1  H16A   96   0.237   0.657   9.201  0.0668  0.1487  0.2960
    2CHL1  H16B   97   0.054   0.610   9.197  0.1843  0.4952 -2.7597
    2CHL1   C17   98   0.092   0.826   9.234  0.8698 -0.4752  0.2665
    2CHL1   H17   99  -0.016   0.848   9.216  1.4771  1.5651 -1.2555
    2CHL1   C13  100   0.114   0.886   9.373 -0.3813  0.0135 -1.1943
    2CHL1   C18  101   0.262   0.934   9.378 -0.1696 -0.7657  0.4472
    2CHL1  H18A  102   0.269   1.023   9.312  1.5093 -1.1276  0.0885
    2CHL1  H18B  103   0.292   0.972   9.477 -2.0831  1.1342  0.3594
    2CHL1  H18C  104   0.327   0.854   9.334 -0.5666 -0.7207 -0.2452
    2CHL1   C12  105   0.017   0.991   9.433  0.2364 -0.0310 -0.1880
    2CHL1  H12A  106   0.031   1.082   9.371 -2.6595 -1.3747 -3.1408
    2CHL1  H12B  107  -0.089   0.959   9.420  0.1725 -0.2216  0.7110
    2CHL1   C11  108   0.036   1.023   9.582  0.1727 -0.1434 -0.5114
    2CHL1  H11A  109   0.125   1.088   9.592 -2.0169  2.7906  1.3690
    2CHL1  H11B  110  -0.047   1.089   9.616 -0.6748 -1.1344 -0.5901
    2CHL1    C9  111   0.049   0.902   9.675 -0.0130 -0.1348  0.2119
    2CHL1    H9  112  -0.058   0.870   9.675 -0.0044 -0.4985 -3.0624
    2CHL1   C10  113   0.093   0.937   9.819 -0.8369  0.3975  0.5734
    2CHL1   C19  114   0.218   1.023   9.815 -0.4035 -0.5997 -0.4423
    2CHL1  H19A  115   0.198   1.121   9.766  0.5007 -0.4570 -0.5359
    2CHL1  H19B  116   0.256   1.050   9.916 -0.4245  1.0796 -0.8538
    2CHL1  H19C  117   0.301   0.976   9.759  0.8440 -1.2779  1.8797
    2CHL1    C1  118  -0.017   1.017   9.888 -0.2948 -0.4187  0.3849
    2CHL1   H1A  119  -0.011   1.119   9.845  0.3586 -0.2567  0.8492
    2CHL1   H1B  120  -0.114   0.964   9.872 -0.2953 -0.2517 -0.1790
    2CHL1    C2  121   0.001   1.028  10.047  1.0060  0.0841  0.1277
    2CHL1   H2A  122  -0.091   1.075  10.087  1.2145  2.2956 -1.7390
    2CHL1   H2B  123   0.090   1.091  10.067  1.7853 -1.6921  2.7006
    2CHL1   C20  124   0.143   0.905   9.111 -0.0374  0.1412  0.1841
    2CHL1   H20  125   0.253   0.901   9.121 -0.1048 -0.0313  0.9334
    2CHL1   C21  126   0.095   1.053   9.102 -0.2642  0.7179 -0.5095
    2CHL1  H21A  127  -0.012   1.072   9.126 -0.0256  1.3691  0.0967
    2CHL1  H21B  128   0.118   1.105   9.006  0.7461  0.5958 -0.3463
    2CHL1  H21C  129   0.140   1.118   9.180  2.1116  0.4592 -1.5811
    2CHL1   C22  130   0.111   0.832   8.978 -0.4823  0.2439 -0.1327
    2CHL1  H22A  131   0.151   0.883   8.888 -0.2878 -1.6278 -1.1552
    2CHL1  H22B  132   0.173   0.740   8.986 -2.4703 -1.3840 -2.3939
    2CHL1   C23  133  -0.036   0.803   8.952  0.4555  0.1161  0.5765
    2CHL1  H23A  134  -0.078   0.735   9.030 -0.8482  1.4376  1.0775
    2CHL1  H23B  135  -0.098   0.895   8.947  0.3328 -0.0192 -0.4950
    2CHL1   C24  136  -0.058   0.734   8.814 -0.3547 -0.4607 -0.0439
    2CHL1  H24A  137  -0.017   0.798   8.732 -1.7187 -0.3305 -0.6436
    2CHL1  H24B  138   0.015   0.650   8.824  1.2753  0.9952  0.9848
    2CHL1   C25  139  -0.201   0.700   8.777  0.1970  0.4561 -0.1797
    2CHL1   H25  140  -0.259   0.794   8.768  0.7141  0.9637  1.4084
    2CHL1   C26  141  -0.209   0.626   8.640 -0.1346  0.5653  0.1384
    2CHL1  H26A  142  -0.164   0.526   8.653 -1.0079  0.1589  0.1013
    2CHL1  H26B  143  -0.316   0.618   8.612 -0.4979 -0.6299  1.7387
    2CHL1  H26C  144  -0.157   0.691   8.566 -1.5638  0.3493 -1.1108
    2CHL1   C27  145  -0.273   0.618   8.888  0.7954 -0.2441  0.1392
    2CHL1  H27A  146  -0.284   0.691   8.971 -0.0724  0.9750 -0.9910
    2CHL1  H27B  147  -0.375   0.583   8.859  0.3432  0.7516  0.4694
    2CHL1  H27C  148  -0.215   0.528   8.918  2.0164  0.1346 -0.9937
    3CHL1    C3  149   1.258   0.626  10.116 -0.7411  0.0914  0.7917
    3CHL1    H3  150   1.190   0.706  10.081 -0.2950  0.1933  0.1392
    3CHL1    O3  151   1.294   0.623  10.251  0.5387  0.4154  0.1753
    3CHL1   H3'  152   1.208   0.611  10.291  0.1829  0.4435 -0.5723
    3CHL1    C4  153   1.192   0.494  10.085 -0.8593 -0.0474 -0.1583
    3CHL1   H4A  154   1.267   0.422  10.123 -1.9555 -2.2092 -1.8365
    3CHL1   H4B  155   1.099   0.492  10.147  0.5881  0.6058  2.1285
    3CHL1    C5  156   1.163   0.485   9.935 -0.0723 -0.4079 -0.4308
    3CHL1    C6  157   1.038   0.481   9.889  0.9659 -0.1059 -0.6875
    3CHL1    H6  158   0.948   0.467   9.951  0.7777  3.2720 -0.0094
    3CHL1    C7  159   1.007   0.468   9.744  0.2743 -0.0290  0.0556
    3CHL1   H7A  160   0.943   0.382   9.715 -0.0408 -0.8792  3.0124
    3CHL1   H7B  161   0.946   0.553   9.709  0.5220  0.5065  0.9020
    3CHL1    C8  162   1.127   0.439   9.656  0.5552  0.0704  0.0183
    3CHL1    H8  163   1.138   0.329   9.666 -3.1732 -0.4563 -0.2357
    3CHL1   C14  164   1.089   0.466   9.510  0.6683  0.3265 -0.4431
    3CHL1   H14  165   1.058   0.571   9.494 -0.0314  0.1836 -0.0830
    3CHL1   C15  166   0.965   0.393   9.453  0.3238  0.2745 -0.0410
    3CHL1  H15A  167   0.961   0.288   9.488 -0.1083 -0.1819 -1.4046
    3CHL1  H15B  168   0.870   0.445   9.480 -0.0186 -0.6963  0.7043
    3CHL1   C16  169   0.996   0.398   9.305 -0.5476  0.7864  1.0854
    3CHL1  H16A  170   1.005   0.292   9.274  3.5927  1.0684  0.7495
    3CHL1  H16B  171   0.912   0.450   9.255 -0.6174  0.6608  1.0724
    3CHL1   C17  172   1.132   0.473   9.278 -0.2975  0.5653 -0.8623
    3CHL1   H17  173   1.111   0.582   9.268 -0.0352  0.8779  1.3765
    3CHL1   C13  174   1.204   0.443   9.411 -0.2409 -0.5771  0.3914
    3CHL1   C18  175   1.242   0.296   9.419  0.2726 -0.3666  1.1288
    3CHL1  H18A  176   1.158   0.226   9.399  1.4190 -1.0516 -1.6913
    3CHL1  H18B  177   1.319   0.275   9.342 -1.2074 -1.4159 -0.1208
    3CHL1  H18C  178   1.281   0.280   9.522 -0.4104  3.1701  2.0707
    3CHL1   C12  179   1.326   0.540   9.446  0.6939  0.1619  1.0700
    3CHL1  H12A  180   1.412   0.526   9.377  0.0808 -0.1948  0.3705
    3CHL1  H12B  181   1.294   0.646   9.447  1.1910  0.3374  2.8039
    3CHL1   C11  182   1.371   0.521   9.590  0.0114 -0.6060 -0.7553
    3CHL1  H11A  183   1.411   0.418   9.600 -1.1713 -1.0325 -0.1849
    3CHL1  H11B  184   1.444   0.602   9.608 -1.6064  1.1897 -1.7876
    3CHL1    C9  185   1.253   0.524   9.698 -0.1748 -0.1671 -0.0887
    3CHL1    H9  186   1.209   0.625   9.687  0.2412  0.2454  1.7236
    3CHL1   C10  187   1.296   0.507   9.846  0.3830 -0.2441 -1.0326
    3CHL1   C19  188   1.379   0.378   9.866  0.2047 -0.0296 -0.3443
    3CHL1  H19A  189   1.328   0.286   9.833 -1.6475 -0.1582  2.5218
    3CHL1  H19B  190   1.484   0.387   9.830  1.3278  0.6855  2.7534
    3CHL1  H19C  191   1.401   0.341   9.968 -1.0151 -1.2062 -0.4811
    3CHL1    C1  192   1.383   0.630   9.895  0.0903 -0.1260  0.2532
    3CHL1   H1A  193   1.482   0.635   9.845  0.0787  1.4009  0.3410
    3CHL1   H1B  194   1.324   0.720   9.868 -3.1729 -1.3795  2.4806
    3CHL1    C2  195   1.397   0.635  10.044  0.4259  0.4140 -0.0113
    3CHL1   H2A  196   1.444   0.731  10.077  1.2770  1.1009 -2.9425
    3CHL1   H2B  197   1.466   0.554  10.078  0.5321  1.2073  1.7985
    3CHL1   C20  198   1.206   0.425   9.147 -0.2450  0.1900  0.8369
    3CHL1   H20  199   1.276   0.341   9.168  1.0374  0.6681 -1.1569
    3CHL1   C21  200   1.305   0.543   9.105 -0.4213  0.0168 -0.3842
    3CHL1  H21A  201   1.391   0.518   9.039 -0.0369 -1.0243  0.4807
    3CHL1  H21B  202   1.351   0.592   9.193 -0.2760  1.2628 -1.1275
    3CHL1  H21C  203   1.239   0.608   9.043  0.3379 -0.4540 -1.7177
    3CHL1   C22  204   1.121   0.375   9.022  0.2868  0.1892 -0.0866
    3CHL1  H22A  205   1.080   0.277   9.055  0.7927 -0.1064 -0.3158
    3CHL1  H22B  206   1.033   0.440   9.009  1.3914  1.4033 -1.8942
    3CHL1   C23  207   1.187   0.365   8.888 -0.0302 -0.0115 -0.2715
    3CHL1  H23A  208   1.219   0.464   8.847  0.0054  0.6301  1.2586
    3CHL1  H23B  209   1.278   0.302   8.883 -0.0542 -0.0512 -0.1885
    3CHL1   C24  210   1.090   0.290   8.792 -0.3629  0.2765  0.5245
    3CHL1  H24A  211   1.067   0.198   8.849  2.3503 -0.6453  0.2894
    3CHL1  H24B  212   0.994   0.344   8.790  1.0073  2.8805  0.4964
    3CHL1   C25  213   1.157   0.273   8.653  0.1893  0.1536 -0.2610
    3CHL1   H25  214   1.256   0.230   8.680  0.1007  0.1103 -0.0113
    3CHL1   C26  215   1.080   0.173   8.565  0.0496 -0.1898 -0.1719
    3CHL1  H26A  216   1.039   0.093   8.630  0.1994 -0.0291  0.1216
    3CHL1  H26B  217   0.986   0.219   8.524 -1.0596  0.5380  2.8954
    3CHL1  H26C  218   1.150   0.129   8.492  1.2928 -0.4750  1.1475
    3CHL1   C27  219   1.192   0.407   8.579 -0.2452  0.0812  0.1897
    3CHL1  H27A  220   1.191   0.394   8.469 -0.2268 -3.1157  0.4643
    3CHL1  H27B  221   1.118   0.489   8.593 -1.0746  0.0793 -3.2563
    3CHL1  H27C  222   1.297   0.435   8.599 -0.6130  2.6608 -1.0991
    4CHL1    C3  223   2.791   2.932  10.544 -0.6626  0.2103 -0.1126
    4CHL1    H3  224   2.874   2.861  10.522 -2.0664 -1.9209  1.1243
    4CHL1    O3  225   2.760   2.919  10.684  0.6314  0.0374  0.3149
    4CHL1   H3'  226   2.673   2.881  10.697  0.5567 -0.3351 -1.0722
    4CHL1    C4  227   2.823   3.078  10.512  0.2851  0.5757  0.1359
    4CHL1   H4A  228   2.729   3.134  10.532 -1.2223 -1.8913  0.2889
    4CHL1   H4B  229   2.905   3.111  10.580  0.7856  1.0907 -0.7087
    4CHL1    C5  230   2.864   3.077  10.371  1.1854 -0.3280  0.0212
    4CHL1    C6  231   2.988   3.113  10.346  0.2690  0.2893 -0.2277
    4CHL1    H6  232   3.045   3.146  10.434 -2.3033  1.0111  1.2636
    4CHL1    C7  233   3.037   3.135  10.210 -0.2520 -0.3844 -0.2479
    4CHL1   H7A  234   3.110   3.219  10.206  0.6967 -1.2349 -2.1890
    4CHL1   H7B  235   3.089   3.039  10.189 -0.9025 -0.8657  0.3131
    4CHL1    C8  236   2.926   3.147  10.098  0.1126  0.4829  0.0733
    4CHL1    H8  237   2.878   3.246  10.099 -2.2437 -0.5986 -0.3371
    4CHL1   C14  238   2.988   3.133   9.962  0.6512 -0.5080  0.2056
    4CHL1   H14  239   3.034   3.031   9.958  1.0075 -0.3310 -2.5160
    4CHL1   C15  240   3.106   3.222   9.928 -0.0767  0.7778  0.1823
    4CHL1  H15A  241   3.090   3.327   9.959  2.6424  1.6011 -0.8614
    4CHL1  H15B  242   3.198   3.190   9.981 -0.0140 -1.4081 -1.1159
    4CHL1   C16  243   3.115   3.218   9.768  0.3378 -0.2374 -0.6864
    4CHL1  H16A  244   3.116   3.320   9.723  0.0891 -0.9261 -2.3389
    4CHL1  H16B  245   3.212   3.176   9.735  0.4011 -1.1967  0.6626
    4CHL1   C17  246   2.983   3.148   9.725  0.0641  0.3462 -0.9539
    4CHL1   H17  247   3.012   3.044   9.700  2.6625  1.4441 -2.8711
    4CHL1   C13  248   2.882   3.144   9.847 -0.7638 -0.1761 -0.2274
    4CHL1   C18  249   2.796   3.276   9.842  0.1705 -0.8642 -0.6348
    4CHL1  H18A  250   2.722   3.278   9.759  0.2816 -1.6719 -0.7515
    4CHL1  H18B  251   2.752   3.296   9.942  2.1258 -0.6891  0.2334
    4CHL1  H18C  252   2.861   3.366   9.837 -2.1358  1.0556  1.2314
    4CHL1   C12  253   2.792   3.022   9.865  0.2448 -0.0875  0.3313
    4CHL1  H12A  254   2.717   3.027   9.783  0.9146  1.2751 -0.2452
    4CHL1  H12B  255   2.852   2.928   9.860  0.5161 -0.2565  4.1688
    4CHL1   C11  256   2.724   3.025  10.006 -0.1868 -0.6096  0.6587
    4CHL1  H11A  257   2.652   3.109  10.006  0.4041 -0.0890 -0.3881
    4CHL1  H11B  258   2.668   2.929  10.010  0.0776 -0.7516  1.1198
    4CHL1    C9  259   2.820   3.036  10.125 -0.0277  0.0999  0.2888
    4CHL1    H9  260   2.867   2.936  10.117 -3.0654 -1.3577 -1.2765
    4CHL1   C10  261   2.762   3.037  10.268 -0.5605 -0.2386  0.4912
    4CHL1   C19  262   2.643   3.141  10.264 -0.1797  1.0207 -0.3995
    4CHL1  H19A  263   2.671   3.226  10.197  2.3343 -0.0229 -0.8077
    4CHL1  H19B  264   2.553   3.092  10.221 -1.1932  1.4209  1.1741
    4CHL1  H19C  265   2.614   3.188  10.361 -1.8403  0.1530 -0.4372
    4CHL1    C1  266   2.713   2.894  10.313 -0.5017 -0.1012  0.3399
    4CHL1   H1A  267   2.624   2.873  10.249 -0.9124 -0.5092  1.0310
    4CHL1   H1B  268   2.801   2.830  10.291  1.6742  2.4879  1.1103
    4CHL1    C2  269   2.667   2.883  10.465 -0.7237 -0.1765 -0.3766
    4CHL1   H2A  270   2.641   2.779  10.492  3.3675 -1.3564 -0.3646
    4CHL1   H2B  271   2.577   2.943  10.488  0.5255  0.5067  3.5316
    4CHL1   C20  272   2.924   3.179   9.594 -0.0632 -0.4394 -0.2482
    4CHL1   H20  273   2.852   3.264   9.594 -0.6533 -0.9000  1.4451
    4CHL1   C21  274   2.843   3.054   9.543  0.6107  1.0361 -0.2695
    4CHL1  H21A  275   2.737   3.040   9.574  0.6165 -6.0088 -1.7748
    4CHL1  H21B  276   2.885   2.954   9.565  2.0574  2.1137  2.2507
    4CHL1  H21C  277   2.836   3.057   9.432 -2.9037  1.8542 -0.1520
    4CHL1   C22  278   3.022   3.236   9.488  0.0096  0.0452  0.2552
    4CHL1  H22A  279   2.970   3.293   9.407  1.4416  1.0954  0.0428
    4CHL1  H22B  280   3.081   3.318   9.533 -1.2655  0.5017  1.1566
    4CHL1   C23  281   3.101   3.130   9.407  0.1723 -0.3353 -0.7160
    4CHL1  H23A  282   3.162   3.067   9.474 -0.0695 -1.0385 -1.1406
    4CHL1  H23B  283   3.041   3.054   9.351 -0.4390 -0.3183 -0.1073
    4CHL1   C24  284   3.194   3.187   9.298  0.7610 -0.1510  0.1411
    4CHL1  H24A  285   3.273   3.251   9.343 -1.2530  0.6758  2.8310
    4CHL1  H24B  286   3.241   3.094   9.261 -1.2685 -1.3502  0.4284
    4CHL1   C25  287   3.132   3.269   9.176 -0.1949  0.0973 -0.2578
    4CHL1   H25  288   3.115   3.365   9.227 -0.1524  0.3946 -0.7960
    4CHL1   C26  289   3.240   3.284   9.060 -0.0516  0.0531 -0.4440
    4CHL1  H26A  290   3.338   3.322   9.097 -0.3848  1.1564 -0.6600
    4CHL1  H26B  291   3.259   3.181   9.025  0.1517 -0.0997  0.0993
    4CHL1  H26C  292   3.210   3.356   8.980  0.8440  0.7704 -0.1594
    4CHL1   C27  293   3.010   3.201   9.123 -0.2154  0.3531 -0.2106
    4CHL1  H27A  294   3.035   3.118   9.053  3.1211  1.2109 -0.2061
    4CHL1  H27B  295   2.955   3.158   9.209  0.1856  0.5888  0.1654
    4CHL1  H27C  296   2.934   3.265   9.074 -1.2652 -0.2180  0.6415
    5CHL1    C3  297   1.628   6.764  10.140 -0.0651  0.2628 -0.0546
    5CHL1    H3  298   1.521   6.750  10.166  0.6867 -2.1563  2.1262
    5CHL1    O3  299   1.700   6.755  10.259 -0.4161 -0.0722  0.0982
    5CHL1   H3'  300   1.673   6.834  10.307  0.7345  0.1704  0.3864
    5CHL1    C4  301   1.673   6.645  10.050  0.2128  0.4234 -0.0407
    5CHL1   H4A  302   1.784   6.642  10.052  0.2650 -3.1521  3.4590
    5CHL1   H4B  303   1.644   6.550  10.100  1.6775 -0.6762 -1.1838
    5CHL1    C5  304   1.628   6.648   9.905 -0.6383  0.4325 -0.2916
    5CHL1    C6  305   1.566   6.539   9.852 -0.0297  0.2792 -0.1545
    5CHL1    H6  306   1.549   6.449   9.914  0.4866  1.8840  2.4819
    5CHL1    C7  307   1.526   6.538   9.704 -0.0074  0.1615 -0.3284
    5CHL1   H7A  308   1.553   6.449   9.642  1.5443  1.3476 -1.4587
    5CHL1   H7B  309   1.415   6.545   9.704 -0.0850 -0.2794 -2.2684
    5CHL1    C8  310   1.598   6.665   9.625  0.4926  0.5337 -0.2752
    5CHL1    H8  311   1.706   6.638   9.620  0.4704  0.4385 -0.2517
    5CHL1   C14  312   1.544   6.675   9.482  0.0410  1.1223  0.9135
    5CHL1   H14  313   1.438   6.703   9.501 -0.2270  0.7099  0.1204
    5CHL1   C15  314   1.534   6.548   9.392  0.6493  0.4303 -0.1248
    5CHL1  H15A  315   1.632   6.501   9.413 -1.0076 -2.8558  0.8351
    5CHL1  H15B  316   1.449   6.490   9.432 -1.6121  1.8308 -2.5901
    5CHL1   C16  317   1.516   6.609   9.254  0.2547 -0.8057 -0.5550
    5CHL1  H16A  318   1.599   6.575   9.189  1.3100  1.1951 -0.3365
    5CHL1  H16B  319   1.420   6.584   9.203 -1.3322  2.1883  0.6864
    5CHL1   C17  320   1.527   6.764   9.266  0.2197 -0.7733  0.0331
    5CHL1   H17  321   1.426   6.803   9.293  0.8722  1.9431 -1.0360
    5CHL1   C13  322   1.602   6.791   9.397 -0.2940 -1.0468  0.2584
    5CHL1   C18  323   1.754   6.764   9.390  0.2989  0.4617  0.6533
    5CHL1  H18A  324   1.802   6.776   9.490 -1.0478  0.3155  1.3492
    5CHL1  H18B  325   1.773   6.663   9.348  0.6182  1.5259 -1.9658
    5CHL1  H18C  326   1.805   6.837   9.323  1.9290 -0.3893  0.9157
    5CHL1   C12  327   1.572   6.916   9.474  0.5135 -0.3917 -0.2485
    5CHL1  H12A  328   1.606   7.005   9.416 -2.5063  0.3202 -1.1339
    5CHL1  H12B  329   1.462   6.932   9.468  0.4628 -1.0075 -1.3106
    5CHL1   C11  330   1.619   6.922   9.622  0.6985  0.4804  0.3261
    5CHL1  H11A  331   1.725   6.947   9.638  1.5623 -0.3790 -3.1674
    5CHL1  H11B  332   1.561   7.004   9.669 -0.3476 -0.6037  0.9950
    5CHL1    C9  333   1.585   6.790   9.706  0.9644 -0.1942  1.1742
    5CHL1    H9  334   1.476   6.796   9.726  0.9791 -1.5164  1.7971
    5CHL1   C10  335   1.652   6.791   9.838 -0.1830  0.2851 -0.1364
    5CHL1   C19  336   1.800   6.807   9.819 -0.1928  0.4007 -0.1251
    5CHL1  H19A  337   1.829   6.914   9.813 -1.5833  0.7307 -2.0324
    5CHL1  H19B  338   1.854   6.775   9.910  1.7906  1.6265 -0.8162
    5CHL1  H19C  339   1.829   6.755   9.725 -2.9345 -1.9058  0.1637
    5CHL1    C1  340   1.597   6.897   9.940 -0.6317 -0.5981  0.1249
    5CHL1   H1A  341   1.619   6.994   9.890 -1.3259  0.0996  1.1455
    5CHL1   H1B  342   1.487   6.888   9.937 -0.6925  0.2001 -0.5977
    5CHL1    C2  343   1.656   6.900  10.078  0.1911  0.5159  0.3331
    5CHL1   H2A  344   1.619   6.982  10.142  2.1235  1.8634 -0.1657
    5CHL1   H2B  345   1.767   6.912  10.074  0.0298  2.3853  0.7625
    5CHL1   C20  346   1.585   6.821   9.141  0.1590  0.0664 -0.0262
    5CHL1   H20  347   1.694   6.802   9.128  0.3453 -0.5356  2.0630
    5CHL1   C21  348   1.577   6.974   9.151 -0.4707 -0.5702 -0.1997
    5CHL1  H21A  349   1.590   7.030   9.056  0.8201  3.5777  2.1611
    5CHL1  H21B  350   1.654   7.024   9.213 -1.9997  1.0103  0.5283
    5CHL1  H21C  351   1.477   6.999   9.194  0.0265  0.1683  0.5591
    5CHL1   C22  352   1.503   6.790   9.016 -0.7750 -0.1350  0.8902
    5CHL1  H22A  353   1.472   6.683   9.020  0.8890 -0.6977  0.0779
    5CHL1  H22B  354   1.413   6.854   9.005  0.4984  1.4543 -1.0843
    5CHL1   C23  355   1.574   6.798   8.878  0.3015  0.2886 -0.0773
    5CHL1  H23A  356   1.508   6.763   8.796  2.2207 -0.4839 -1.3768
    5CHL1  H23B  357   1.602   6.902   8.853 -0.5566  0.4223 -0.5187
    5CHL1   C24  358   1.700   6.708   8.865 -0.6801 -0.8037 -0.5892
    5CHL1  H24A  359   1.785   6.760   8.914 -0.6585  0.0789 -1.5243
    5CHL1  H24B  360   1.690   6.610   8.917 -2.2410  0.1826  1.1137
    5CHL1   C25  361   1.755   6.675   8.724  0.1293 -0.0189 -0.6753
    5CHL1   H25  362   1.675   6.697   8.651 -0.9974 -0.6045  0.3516
    5CHL1   C26  363   1.870   6.766   8.686 -0.1374  0.3629 -0.0798
    5CHL1  H26A  364   1.829   6.868   8.705 -1.7183 -0.7018  2.9023
    5CHL1  H26B  365   1.946   6.764   8.767 -0.4003 -0.4224  0.1555
    5CHL1  H26C  366   1.912   6.739   8.587 -0.3802 -0.7993  0.1148
    5CHL1   C27  367   1.801   6.528   8.707 -1.5029  0.0076  0.4283
    5CHL1  H27A  368   1.713   6.461   8.717 -0.1299 -1.9625 -0.1536
    5CHL1  H27B  369   1.843   6.515   8.605 -2.5420 -1.4581  0.1517
    5CHL1  H27C  370   1.878   6.508   8.784 -0.8588  0.5293 -0.0687
    6CHL1    C3  371   1.241   3.159  10.554  0.2575  0.5089 -0.1092
    6CHL1    H3  372   1.158   3.217  10.507  0.4762  1.6567  0.8649
    6CHL1    O3  373   1.253   3.204  10.686 -0.0641  0.0695 -0.0131
    6CHL1   H3'  374   1.294   3.290  10.674 -0.6575  0.2299 -0.9753
    6CHL1    C4  375   1.215   3.008  10.549  0.2416  0.2937  0.1895
    6CHL1   H4A  376   1.291   2.953  10.610 -0.1189 -0.2214  0.1826
    6CHL1   H4B  377   1.118   2.984  10.596 -0.1027  2.4139  0.6356
    6CHL1    C5  378   1.223   2.954  10.405 -0.0130  0.3876  0.1873
    6CHL1    C6  379   1.126   2.877  10.356 -0.0064  0.3906  0.7390
    6CHL1    H6  380   1.045   2.850  10.425 -1.8236  0.7390 -1.1647
    6CHL1    C7  381   1.124   2.826  10.213  0.4020 -0.4472 -0.0829
    6CHL1   H7A  382   1.111   2.716  10.207 -0.6686 -0.2287 -2.9237
    6CHL1   H7B  383   1.037   2.866  10.157 -0.8965 -0.0784  2.0704
    6CHL1    C8  384   1.254   2.852  10.137  0.4202  0.1560  0.1572
    6CHL1    H8  385   1.322   2.766  10.155  0.2547 -0.2665 -1.1104
    6CHL1   C14  386   1.220   2.857   9.983 -0.9661 -0.5941  0.3721
    6CHL1   H14  387   1.177   2.959   9.970  3.2428  1.2406 -0.6652
    6CHL1   C15  388   1.134   2.747   9.911  0.2695  0.3932  0.0712
    6CHL1  H15A  389   1.163   2.648   9.951 -1.8048 -1.4145 -2.6108
    6CHL1  H15B  390   1.026   2.770   9.915  0.5851  2.7482 -2.2743
    6CHL1   C16  391   1.166   2.763   9.768 -0.0687  0.2285  0.3479
    6CHL1  H16A  392   1.201   2.661   9.740 -3.6111 -1.0977  0.3380
    6CHL1  H16B  393   1.079   2.789   9.705  0.6595  1.1690 -0.3011
    6CHL1   C17  394   1.277   2.872   9.756 -1.0038  0.2015 -0.0295
    6CHL1   H17  395   1.224   2.970   9.750 -0.6973  0.4079  0.5324
    6CHL1   C13  396   1.344   2.872   9.893  0.4041 -0.4157  0.6274
    6CHL1   C18  397   1.444   2.756   9.898 -0.2306 -0.3637  0.6640
    6CHL1  H18A  398   1.438   2.676   9.820 -0.2598 -2.2794  2.5453
    6CHL1  H18B  399   1.551   2.785   9.890  0.3157 -2.5192 -1.0695
    6CHL1  H18C  400   1.449   2.715  10.001  1.5202 -1.0015  0.3676
    6CHL1   C12  401   1.411   3.006   9.931 -0.3544 -0.2352 -0.0615
    6CHL1  H12A  402   1.502   3.007   9.868 -0.4753 -1.1039 -0.2648
    6CHL1  H12B  403   1.353   3.094   9.897 -0.2125  0.3144  1.0978
    6CHL1   C11  404   1.435   3.024  10.082 -0.8241 -0.0894  0.2372
    6CHL1  H11A  405   1.517   2.955  10.111 -2.9235 -1.5205  3.3533
    6CHL1  H11B  406   1.466   3.130  10.095 -0.8116  0.0064 -0.5111
    6CHL1    C9  407   1.315   2.991  10.169  0.1278  0.4691 -0.4250
    6CHL1    H9  408   1.233   3.061  10.142  2.0433  2.7473 -0.6392
    6CHL1   C10  409   1.340   3.011  10.322  0.2970  0.2913  0.4656
    6CHL1   C19  410   1.463   2.934  10.368  0.4232 -0.1330  0.1992
    6CHL1  H19A  411   1.474   2.950  10.477  0.6985  1.7512 -0.0814
    6CHL1  H19B  412   1.456   2.827  10.336  0.4600  0.0379 -0.3970
    6CHL1  H19C  413   1.555   2.981  10.326 -1.7838  2.5472 -2.0383
    6CHL1    C1  414   1.365   3.162  10.339  0.1806  0.0790  0.0060
    6CHL1   H1A  415   1.454   3.200  10.285 -1.2423  2.3559 -0.8601
    6CHL1   H1B  416   1.274   3.218  10.309  0.7347  0.7420 -0.4708
    6CHL1    C2  417   1.366   3.194  10.489  0.6562  0.2207  0.6179
    6CHL1   H2A  418   1.385   3.303  10.500  0.8974  0.2648 -0.1629
    6CHL1   H2B  419   1.455   3.142  10.532  1.4522  0.1272 -1.0808
    6CHL1   C20  420   1.369   2.876   9.633  0.5587  0.1578 -0.6310
    6CHL1   H20  421   1.466   2.825   9.652  0.1620 -0.5921 -0.5825
    6CHL1   C21  422   1.414   3.020   9.598  0.8505 -0.1724  0.5506
    6CHL1  H21A  423   1.337   3.061   9.529  0.6907 -1.3596 -0.0110
    6CHL1  H21B  424   1.504   3.016   9.534  1.0456  1.2296  0.7034
    6CHL1  H21C  425   1.409   3.089   9.684 -2.8335 -0.9515  1.1715
    6CHL1   C22  426   1.307   2.801   9.517 -0.4613  0.3708  0.3329
    6CHL1  H22A  427   1.295   2.695   9.548  0.1976 -0.1470 -1.1095
    6CHL1  H22B  428   1.206   2.834   9.486 -0.5399  1.0466  1.2431
    6CHL1   C23  429   1.392   2.807   9.394  0.3148  0.0719  0.0833
    6CHL1  H23A  430   1.382   2.911   9.358 -0.6639 -0.3328 -0.8714
    6CHL1  H23B  431   1.493   2.783   9.432 -0.2304  1.1942  2.4233
    6CHL1   C24  432   1.347   2.697   9.290 -0.1120 -0.0946  0.1635
    6CHL1  H24A  433   1.339   2.603   9.349 -0.3036  0.1672  0.5600
    6CHL1  H24B  434   1.243   2.728   9.266 -0.8022  0.4037  3.2758
    6CHL1   C25  435   1.436   2.685   9.161  0.2964 -0.1007 -0.2720
    6CHL1   H25  436   1.384   2.609   9.100  2.1461 -0.5770 -1.3288
    6CHL1   C26  437   1.443   2.816   9.094  0.1164  0.0091 -0.3215
    6CHL1  H26A  438   1.348   2.873   9.093 -0.6047 -0.8645  3.3148
    6CHL1  H26B  439   1.516   2.872   9.157  2.1669 -0.6356 -1.9842
    6CHL1  H26C  440   1.505   2.816   9.002  0.7167  1.1009  0.0602
    6CHL1   C27  441   1.574   2.638   9.202  0.0115 -0.5609  0.4494
    6CHL1  H27A  442   1.632   2.606   9.113 -0.8277 -0.2708 -0.2149
    6CHL1  H27B  443   1.622   2.728   9.245 -0.2696 -0.4919  0.6181
    6CHL1  H27C  444   1.570   2.559   9.281 -1.3999  0.0857  1.0466
    7CHL1    C3  445   1.888   0.547  10.275  0.5556  0.2942 -1.2164
    7CHL1    H3  446   1.810   0.625  10.262 -2.7455 -2.0257  2.4155
    7CHL1    O3  447   1.898   0.511  10.410  0.5082 -0.0596  0.4741
    7CHL1   H3'  448   1.932   0.421  10.414  1.9416  0.2774 -1.8864
    7CHL1    C4  449   1.851   0.422  10.191 -0.3374 -0.6281  0.1103
    7CHL1   H4A  450   1.920   0.337  10.211  0.1409 -0.5574 -1.1487
    7CHL1   H4B  451   1.753   0.376  10.215 -0.5232 -1.6972 -2.4170
    7CHL1    C5  452   1.858   0.449  10.046 -0.4592  0.2347  0.2387
    7CHL1    C6  453   1.758   0.422   9.960  0.6984 -0.7034 -0.8240
    7CHL1    H6  454   1.666   0.382  10.004 -0.1721  1.4057 -0.5973
    7CHL1    C7  455   1.763   0.461   9.821  0.4507 -0.0673  0.6147
    7CHL1   H7A  456   1.715   0.385   9.754  0.1584  1.5640 -1.1118
    7CHL1   H7B  457   1.703   0.554   9.819 -1.7542 -1.3655  1.8424
    7CHL1    C8  458   1.904   0.479   9.757 -0.3839  0.6331  0.1303
    7CHL1    H8  459   1.947   0.377   9.748 -0.1179  0.7231  0.3418
    7CHL1   C14  460   1.896   0.546   9.620  0.4640  0.0111 -0.6131
    7CHL1   H14  461   1.845   0.642   9.641 -0.4624 -0.3596 -1.1182
    7CHL1   C15  462   1.809   0.475   9.517  0.1983 -0.3392  0.4388
    7CHL1  H15A  463   1.841   0.369   9.503  1.0620 -0.1793  1.0964
    7CHL1  H15B  464   1.699   0.465   9.529  0.5775 -1.7240  3.6606
    7CHL1   C16  465   1.851   0.559   9.393 -0.8364 -0.1300 -0.8687
    7CHL1  H16A  466   1.862   0.494   9.304 -1.0124  0.4581 -1.3300
    7CHL1  H16B  467   1.762   0.619   9.363 -1.7342 -2.4938 -3.3881
    7CHL1   C17  468   1.986   0.637   9.420 -0.3442  0.1207 -0.1244
    7CHL1   H17  469   1.962   0.745   9.437  2.1225  1.2400 -2.8411
    7CHL1   C13  470   2.032   0.574   9.557 -0.2103  0.3659  0.1475
    7CHL1   C18  471   2.107   0.443   9.523 -0.5524 -0.7523 -0.6940
    7CHL1  H18A  472   2.036   0.381   9.464 -1.1334 -0.4694 -0.3071
    7CHL1  H18B  473   2.202   0.455   9.468  0.0721  0.8014  0.6221
    7CHL1  H18C  474   2.134   0.382   9.612 -0.3047  0.0430 -0.2147
    7CHL1   C12  475   2.115   0.672   9.646 -0.5076 -0.1983 -0.7345
    7CHL1  H12A  476   2.217   0.690   9.608  0.0873  1.6613  1.4701
    7CHL1  H12B  477   2.061   0.768   9.663 -1.9307 -1.3056  1.6375
    7CHL1   C11  478   2.124   0.612   9.793 -0.5960  0.1658 -0.3815
    7CHL1  H11A  479   2.196   0.527   9.792 -1.2611 -0.4254 -1.9405
    7CHL1  H11B  480   2.178   0.687   9.854 -0.0221 -0.7729  0.2811
    7CHL1    C9  481   1.980   0.570   9.854 -0.5559  0.1970  0.0964
    7CHL1    H9  482   1.917   0.661   9.863  0.3452  0.8677 -0.2622
    7CHL1   C10  483   1.995   0.510   9.994  1.2569  0.2591 -0.7839
    7CHL1   C19  484   2.098   0.396   9.997 -0.0926  0.6576 -0.3077
    7CHL1  H19A  485   2.085   0.325   9.912  1.8358  2.0675 -1.8887
    7CHL1  H19B  486   2.198   0.446   9.993 -1.0482  2.8205  1.0832
    7CHL1  H19C  487   2.092   0.328  10.085 -1.4273  0.3214 -0.6422
    7CHL1    C1  488   2.043   0.624  10.090 -0.3753  0.3991 -0.0033
    7CHL1   H1A  489   2.151   0.645  10.077 -0.8450  2.4656 -0.9909
    7CHL1   H1B  490   1.995   0.721  10.062 -0.4979  0.7045  1.2147
    7CHL1    C2  491   2.026   0.602  10.239  0.3042  0.3490 -0.0878
    7CHL1   H2A  492   2.038   0.696  10.298 -3.2253 -0.2559  1.8408
    7CHL1   H2B  493   2.105   0.529  10.269 -0.7388  0.0165  2.0517
    7CHL1   C20  494   2.071   0.661   9.294 -0.3167 -0.7286  0.5714
    7CHL1   H20  495   2.102   0.560   9.257 -0.4284  0.0789 -1.9230
    7CHL1   C21  496   2.209   0.731   9.325  0.7313 -0.3533  0.2371
    7CHL1  H21A  497   2.275   0.667   9.388  0.8439 -1.3819 -0.8885
    7CHL1  H21B  498   2.193   0.831   9.370 -0.0968 -1.1657  1.8547
    7CHL1  H21C  499   2.270   0.746   9.233 -1.7597 -1.3187 -1.6746
    7CHL1   C22  500   2.002   0.734   9.179 -0.0237  0.9876 -0.0784
    7CHL1  H22A  501   1.904   0.685   9.160  0.7893 -0.0953 -1.7589
    7CHL1  H22B  502   1.975   0.837   9.209  1.2858  1.8258 -1.6384
    7CHL1   C23  503   2.078   0.739   9.044  0.0953 -0.1992 -0.7061
    7CHL1  H23A  504   2.177   0.787   9.061 -1.9565  3.3839  2.5764
    7CHL1  H23B  505   2.094   0.642   8.991 -1.5208 -1.4912  1.0426
    7CHL1   C24  506   2.000   0.828   8.943 -0.4306  0.1503 -0.6286
    7CHL1  H24A  507   1.904   0.778   8.916 -0.6700  0.7771 -0.9507
    7CHL1  H24B  508   1.978   0.922   8.996 -0.7919 -1.2706  1.9067
    7CHL1   C25  509   2.066   0.854   8.806  0.0054  0.1477 -0.2276
    7CHL1   H25  510   1.999   0.919   8.745  0.0408 -0.4691 -0.9321
    7CHL1   C26  511   2.210   0.909   8.822  0.2984  0.2235  0.0989
    7CHL1  H26A  512   2.239   0.954   8.725 -0.5860  0.0793 -0.2397
    7CHL1  H26B  513   2.221   0.993   8.893  0.7795  0.9011 -0.7621
    7CHL1  H26C  514   2.280   0.827   8.849 -1.2233 -2.0810 -2.4243
    7CHL1   C27  515   2.058   0.716   8.732  0.6733 -0.3491  0.7999
    7CHL1  H27A  516   2.050   0.733   8.623  2.2348 -0.1600  0.6938
    7CHL1  H27B  517   2.140   0.648   8.761  0.8329 -0.4000  0.2403
    7CHL1  H27C  518   1.960   0.673   8.760  0.1142  1.1653  1.2949
    8CHL1    C3  519   4.048   3.275  10.305 -0.0257  0.5227  0.7076
    8CHL1    H3  520   4.043   3.385  10.317  1.7195  0.7138 -0.0316
    8CHL1    O3  521   4.041   3.210  10.431  0.2600  0.1138 -0.1400
    8CHL1   H3'  522   4.036   3.115  10.416 -0.6397  0.1103  0.1668
    8CHL1    C4  523   3.918   3.243  10.228 -0.1721 -0.1319 -0.2142
    8CHL1   H4A  524   3.915   3.132  10.227  0.5063 -0.1951 -2.7900
    8CHL1   H4B  525   3.837   3.278  10.295 -0.5149  0.9057 -1.1384
    8CHL1    C5  526   3.913   3.297  10.089  0.1517  0.1441 -0.1014
    8CHL1    C6  527   3.812   3.374  10.049 -0.2227 -0.3177  0.2433
    8CHL1    H6  528   3.738   3.411  10.121  0.5251 -1.2200  1.5379
    8CHL1    C7  529   3.812   3.443   9.913 -0.0841 -0.0448  0.1257
    8CHL1   H7A  530   3.708   3.471   9.885  0.0276 -1.3302 -1.7731
    8CHL1   H7B  531   3.853   3.546   9.915 -1.4714  0.5951 -1.3789
    8CHL1    C8  532   3.893   3.368   9.813 -1.0250  0.2885 -0.4614
    8CHL1    H8  533   3.846   3.272   9.783 -0.2370 -0.3978  0.4348
    8CHL1   C14  534   3.896   3.453   9.685 -0.0055  0.1763  0.2170
    8CHL1   H14  535   3.956   3.541   9.717  2.9897 -1.8497  0.5953
    8CHL1   C15  536   3.759   3.489   9.623  0.4078 -0.7421  0.2930
    8CHL1  H15A  537   3.696   3.397   9.628 -1.9145  0.7645  0.3414
    8CHL1  H15B  538   3.702   3.573   9.669 -0.4476 -0.9811 -0.3047
    8CHL1   C16  539   3.798   3.529   9.478 -0.5697  0.6857  0.8746
    8CHL1  H16A  540   3.737   3.463   9.413 -1.0956  3.0172 -1.1099
    8CHL1  H16B  541   3.789   3.635   9.446  0.7352  0.5006 -0.1830
    8CHL1   C17  542   3.954   3.500   9.468 -0.0731  0.6749  0.1966
    8CHL1   H17  543   4.018   3.588   9.492  0.2506  0.2430  0.9527
    8CHL1   C13  544   3.981   3.390   9.577 -0.4863  0.5971 -0.6564
    8CHL1   C18  545   3.923   3.261   9.521 -0.1394  0.3918  0.2538
    8CHL1  H18A  546   4.000   3.224   9.450  0.6756  2.5963 -0.1079
    8CHL1  H18B  547   3.924   3.176   9.592 -0.8832  0.1099 -0.0651
    8CHL1  H18C  548   3.824   3.269   9.470 -0.4023 -1.4953  0.4050
    8CHL1   C12  549   4.123   3.363   9.629  0.1403 -0.1222 -0.2262
    8CHL1  H12A  550   4.178   3.304   9.553 -0.9823 -0.3220 -0.9116
    8CHL1  H12B  551   4.165   3.465   9.646 -0.3458  0.0169  0.1916
    8CHL1   C11  552   4.124   3.283   9.757 -0.6502  0.7407  0.1859
    8CHL1  H11A  553   4.095   3.178   9.732 -0.9398  1.1669 -1.3331
    8CHL1  H11B  554   4.231   3.287   9.786 -0.0513  2.2113 -1.9640
    8CHL1    C9  555   4.035   3.334   9.865 -0.1511  0.1542  0.3223
    8CHL1    H9  556   4.085   3.430   9.888  1.3767 -0.8986  1.6231
    8CHL1   C10  557   4.033   3.266  10.001 -0.7002  0.2069  1.3481
    8CHL1   C19  558   4.044   3.117   9.964 -0.1677  0.0791 -0.4948
    8CHL1  H19A  559   4.048   3.054  10.056 -1.2787 -0.0177 -0.4987
    8CHL1  H19B  560   3.959   3.073   9.908 -0.7050 -1.1709  1.2271
    8CHL1  H19C  561   4.134   3.086   9.906  0.1085 -1.2432  0.5796
    8CHL1    C1  562   4.157   3.306  10.080 -0.6441 -0.2549  0.6717
    8CHL1   H1A  563   4.247   3.280  10.019  0.7044  0.7403  2.1575
    8CHL1   H1B  564   4.180   3.414  10.092  0.6180 -0.4503  0.1773
    8CHL1    C2  565   4.171   3.242  10.221  0.1896 -0.1398 -0.1106
    8CHL1   H2A  566   4.258   3.290  10.269  0.5807 -0.3406 -0.6094
    8CHL1   H2B  567   4.181   3.133  10.202  1.5168  0.0427 -0.5802
    8CHL1   C20  568   4.002   3.463   9.322  1.2670  0.0122  0.6364
    8CHL1   H20  569   3.953   3.366   9.298 -0.6191  1.0676  0.0486
    8CHL1   C21  570   4.154   3.464   9.313  0.2998 -0.2688 -0.5967
    8CHL1  H21A  571   4.190   3.360   9.331 -1.2425 -0.6502  0.4770
    8CHL1  H21B  572   4.193   3.520   9.401  0.4237 -1.7541  0.3228
    8CHL1  H21C  573   4.180   3.497   9.211 -1.1645 -1.4192 -1.3828
    8CHL1   C22  574   3.942   3.566   9.224 -0.0706  0.0353 -0.8576
    8CHL1  H22A  575   3.833   3.581   9.237 -0.1810 -0.3107 -1.3391
    8CHL1  H22B  576   3.994   3.661   9.250  0.9848 -1.0280  1.1589
    8CHL1   C23  577   3.954   3.535   9.077  0.2172  0.0702  0.6117
    8CHL1  H23A  578   4.055   3.498   9.047  0.3719  1.6297 -0.9957
    8CHL1  H23B  579   3.890   3.446   9.058  2.4781 -1.4209 -0.4493
    8CHL1   C24  580   3.903   3.648   8.979 -0.2375 -0.6140  0.0480
    8CHL1  H24A  581   3.793   3.646   8.989 -0.4132 -0.5389 -1.6565
    8CHL1  H24B  582   3.939   3.744   9.022 -1.0871  0.9326 -2.5091
    8CHL1   C25  583   3.964   3.632   8.839 -0.0892  0.6938 -0.0013
    8CHL1   H25  584   4.073   3.653   8.849  0.1064 -0.9589  2.1489
    8CHL1   C26  585   3.919   3.494   8.780 -0.4541  0.3337  0.1384
    8CHL1  H26A  586   3.809   3.482   8.766 -0.0381 -1.3694 -2.3783
    8CHL1  H26B  587   3.952   3.471   8.676  1.4127 -2.0910  1.1954
    8CHL1  H26C  588   3.957   3.415   8.847 -0.2236 -0.7491 -1.2118
    8CHL1   C27  589   3.922   3.754   8.750 -0.6770 -0.2692 -0.0409
    8CHL1  H27A  590   3.812   3.762   8.760 -0.4270  0.1743  3.7299
    8CHL1  H27B  591   3.963   3.848   8.794 -1.1773 -0.1107  0.0963
    8CHL1  H27C  592   3.950   3.739   8.643  3.6565 -1.1085  1.0204
    9CHL1    C3  593   0.793   4.112  10.210 -0.4437 -0.5164 -0.1799
    9CHL1    H3  594   0.850   4.018  10.225  0.9832  0.3966  0.2643
    9CHL1    O3  595   0.784   4.182  10.334  0.1576 -0.3074  0.1799
    9CHL1   H3'  596   0.838   4.261  10.325  0.0039  0.0202  1.8833
    9CHL1    C4  597   0.846   4.208  10.102 -0.4383  0.3734 -0.4502
    9CHL1   H4A  598   0.789   4.303  10.104  0.3635  0.8926 -1.4513
    9CHL1   H4B  599   0.950   4.232  10.133  0.5030 -2.3278 -1.1881
    9CHL1    C5  600   0.846   4.149   9.962 -0.0927  0.1335 -0.9207
    9CHL1    C6  601   0.958   4.127   9.890  0.1549  0.4212  0.4431
    9CHL1    H6  602   1.057   4.149   9.932 -0.0501 -0.2089  1.2774
    9CHL1    C7  603   0.962   4.068   9.756  0.6249  0.1287  0.1375
    9CHL1   H7A  604   1.039   4.124   9.699  0.3346 -0.4726 -0.8802
    9CHL1   H7B  605   0.997   3.962   9.765 -1.2380 -0.6992 -1.5972
    9CHL1    C8  606   0.826   4.058   9.689  0.0887 -0.3813  0.2323
    9CHL1    H8  607   0.801   4.163   9.662  0.3763  0.3785  2.6909
    9CHL1   C14  608   0.828   3.957   9.582  0.0891  0.7479 -0.2106
    9CHL1   H14  609   0.832   3.860   9.637  0.2187  0.2907 -1.0151
    9CHL1   C15  610   0.951   3.954   9.485  0.6923 -0.1235 -0.3432
    9CHL1  H15A  611   0.979   4.056   9.450 -1.5705 -0.0893 -2.3527
    9CHL1  H15B  612   1.034   3.902   9.537 -1.3803 -1.1160  2.1791
    9CHL1   C16  613   0.909   3.873   9.360  0.2438 -0.0642 -0.2850
    9CHL1  H16A  614   0.925   3.942   9.275  1.1805 -0.3963 -0.3927
    9CHL1  H16B  615   0.966   3.778   9.353  0.5376 -0.1072  1.9642
    9CHL1   C17  616   0.754   3.851   9.384 -0.8659  0.8757 -0.0552
    9CHL1   H17  617   0.740   3.747   9.423 -1.5598  0.0247 -2.3733
    9CHL1   C13  618   0.705   3.946   9.498  0.8923 -0.1555  0.2561
    9CHL1   C18  619   0.696   4.089   9.428  0.1815 -0.4618 -0.4517
    9CHL1  H18A  620   0.789   4.139   9.395 -0.9270  1.8183 -0.3248
    9CHL1  H18B  621   0.621   4.100   9.347 -0.9038  0.6800  0.6596
    9CHL1  H18C  622   0.654   4.156   9.506 -1.1414  0.3457 -1.8147
    9CHL1   C12  623   0.578   3.921   9.583 -0.7758 -0.1786 -1.0459
    9CHL1  H12A  624   0.484   3.954   9.535 -0.3774  2.1634 -0.3476
    9CHL1  H12B  625   0.564   3.813   9.605  2.5751 -0.6259 -0.5090
    9CHL1   C11  626   0.575   4.010   9.711  0.6666 -0.1892  0.8312
    9CHL1  H11A  627   0.539   4.107   9.670  1.3991 -0.7097 -1.1574
    9CHL1  H11B  628   0.496   3.987   9.786  1.0191  0.5965  1.4587
    9CHL1    C9  629   0.709   4.025   9.788  1.0053 -0.2942 -0.1275
    9CHL1    H9  630   0.739   3.930   9.838 -0.5041 -0.6027  0.2566
    9CHL1   C10  631   0.702   4.110   9.919  0.4095  0.1555 -0.4295
    9CHL1   C19  632   0.618   4.234   9.893 -0.1802 -0.5968  0.0338
    9CHL1  H19A  633   0.613   4.313   9.971 -2.3382  1.0670 -1.6622
    9CHL1  H19B  634   0.663   4.293   9.810  1.8595 -1.4148  0.5108
    9CHL1  H19C  635   0.509   4.214   9.883 -0.6831 -0.6742  4.1022
    9CHL1    C1  636   0.637   4.018  10.028  0.0095  0.2822 -0.1570
    9CHL1   H1A  637   0.529   3.996  10.010 -0.7877  3.2176  0.4183
    9CHL1   H1B  638   0.692   3.923  10.038 -3.1147 -1.7440 -0.8584
    9CHL1    C2  639   0.652   4.071  10.176  0.5129  0.3184 -0.1936
    9CHL1   H2A  640   0.623   3.983  10.237  1.8823  0.7050  1.0501
    9CHL1   H2B  641   0.572   4.147  10.191 -0.1538 -0.3540 -0.2887
    9CHL1   C20  642   0.681   3.836   9.252 -0.0736 -0.5873 -0.2596
    9CHL1   H20  643   0.688   3.929   9.191 -2.7341 -0.1715 -0.0618
    9CHL1   C21  644   0.529   3.821   9.290 -0.8530  0.0617 -0.0912
    9CHL1  H21A  645   0.531   3.746   9.372 -1.1623  0.6995  0.5089
    9CHL1  H21B  646   0.473   3.777   9.204 -1.5067 -0.6614  0.6928
    9CHL1  H21C  647   0.481   3.913   9.329  1.0797  0.1273  2.3534
    9CHL1   C22  648   0.732   3.718   9.164  1.1727 -0.6838  0.2647
    9CHL1  H22A  649   0.841   3.725   9.144  0.9831  2.5644 -0.1814
    9CHL1  H22B  650   0.731   3.621   9.219  0.3827  0.2904  2.0319
    9CHL1   C23  651   0.646   3.713   9.040  0.1867 -0.3204  0.6149
    9CHL1  H23A  652   0.551   3.661   9.067 -0.2070  0.5781  1.0095
    9CHL1  H23B  653   0.634   3.816   9.001  1.7268  0.4557  2.0813
    9CHL1   C24  654   0.693   3.635   8.919  0.3160  0.4930 -0.0708
    9CHL1  H24A  655   0.793   3.673   8.886  1.1088 -2.2620 -1.1192
    9CHL1  H24B  656   0.710   3.525   8.924 -1.1784  0.2304 -0.4524
    9CHL1   C25  657   0.592   3.657   8.799  0.3417  0.2369  0.1336
    9CHL1   H25  658   0.567   3.764   8.788 -1.4706 -0.1332  0.4338
    9CHL1   C26  659   0.656   3.602   8.673 -0.6683 -0.3335 -0.2448
    9CHL1  H26A  660   0.742   3.665   8.641  0.1635  0.0085  2.4648
    9CHL1  H26B  661   0.680   3.496   8.692  1.0648  0.4080  2.1729
    9CHL1  H26C  662   0.581   3.597   8.591  0.7686 -3.1239 -1.5188
    9CHL1   C27  663   0.458   3.586   8.810 -0.3789 -0.0715  0.3254
    9CHL1  H27A  664   0.460   3.505   8.886  1.0022  0.5717  1.0043
    9CHL1  H27B  665   0.379   3.650   8.854 -2.3617 -2.7516  0.9533
    9CHL1  H27C  666   0.418   3.541   8.716  0.8984 -0.9923  0.1996
   10CHL1    C3  667   5.460   4.616  10.109 -0.0143  0.5719 -0.3488
   10CHL1    H3  668   5.557   4.670  10.104 -0.0838  0.7920  0.4811
   10CHL1    O3  669   5.396   4.616  10.237  0.3313  0.3008  0.5884
   10CHL1   H3'  670   5.362   4.705  10.250  0.0771  0.2138  0.5307
   10CHL1    C4  671   5.368   4.671  10.004 -0.2059 -0.5787  0.0597
   10CHL1   H4A  672   5.282   4.602   9.990 -0.6784  0.1105 -0.5947
   10CHL1   H4B  673   5.332   4.772  10.034  2.0829  0.1204  0.6554
   10CHL1    C5  674   5.430   4.664   9.867 -0.2484 -0.2526  0.6028
   10CHL1    C6  675   5.450   4.779   9.791  0.0517 -0.1298 -0.0759
   10CHL1    H6  676   5.428   4.874   9.842  0.3439 -0.2675  0.3200
   10CHL1    C7  677   5.514   4.776   9.652 -0.2389  0.3235 -0.6640
   10CHL1   H7A  678   5.463   4.847   9.584 -0.6021  0.9004  0.2044
   10CHL1   H7B  679   5.620   4.808   9.653 -0.4849  1.2397 -1.6543
   10CHL1    C8  680   5.525   4.636   9.584 -0.1357  0.6638  0.0079
   10CHL1    H8  681   5.425   4.620   9.539 -0.1088 -2.1465  0.7826
   10CHL1   C14  682   5.633   4.639   9.475 -0.4635 -0.5733  0.1980
   10CHL1   H14  683   5.724   4.649   9.538 -0.1742  0.2172 -0.3236
   10CHL1   C15  684   5.636   4.751   9.365 -0.1378  0.4073 -0.1670
   10CHL1  H15A  685   5.533   4.765   9.327 -0.1739  1.6937  0.3541
   10CHL1  H15B  686   5.683   4.841   9.409  1.0406 -0.9151  1.4440
   10CHL1   C16  687   5.721   4.687   9.256 -0.0356  0.7016  0.4045
   10CHL1  H16A  688   5.655   4.694   9.168 -0.3838  2.0926  0.7485
   10CHL1  H16B  689   5.817   4.743   9.246  0.0116  0.5462 -0.0372
   10CHL1   C17  690   5.751   4.535   9.296  0.4187 -0.5678 -0.5424
   10CHL1   H17  691   5.846   4.546   9.353  0.9923  1.0862 -1.7420
   10CHL1   C13  692   5.645   4.502   9.407 -0.4374 -0.3993 -0.1166
   10CHL1   C18  693   5.513   4.468   9.334 -0.4770  0.0359 -0.7014
   10CHL1  H18A  694   5.424   4.450   9.398  0.2869 -0.3399  0.2796
   10CHL1  H18B  695   5.485   4.551   9.265 -1.3039 -0.5776 -1.1267
   10CHL1  H18C  696   5.528   4.386   9.261 -0.7500  0.3665 -1.1357
   10CHL1   C12  697   5.681   4.397   9.509  0.7466 -0.7931  0.8345
   10CHL1  H12A  698   5.675   4.292   9.474 -1.2720 -0.7177  0.8224
   10CHL1  H12B  699   5.786   4.419   9.540  0.8914  0.0454 -0.1899
   10CHL1   C11  700   5.588   4.400   9.633 -0.5323  0.2910  0.7031
   10CHL1  H11A  701   5.491   4.363   9.594  0.0048 -1.6360  1.0736
   10CHL1  H11B  702   5.623   4.326   9.708  0.5841 -1.4172 -1.3631
   10CHL1    C9  703   5.567   4.537   9.688  0.1898 -0.1788 -0.2424
   10CHL1    H9  704   5.666   4.569   9.724  0.1954  1.7903 -1.8219
   10CHL1   C10  705   5.471   4.524   9.817  0.2558 -0.0647 -1.0150
   10CHL1   C19  706   5.337   4.453   9.781 -0.5995 -0.4106  0.2127
   10CHL1  H19A  707   5.358   4.353   9.739 -1.4100  0.1854 -1.7426
   10CHL1  H19B  708   5.283   4.441   9.877  1.4575  2.0109  1.7893
   10CHL1  H19C  709   5.276   4.511   9.708 -1.0319 -0.3946  0.5781
   10CHL1    C1  710   5.546   4.449   9.942 -0.4357  0.2235 -0.8015
   10CHL1   H1A  711   5.567   4.343   9.915 -0.7940 -0.1773  0.4196
   10CHL1   H1B  712   5.642   4.504   9.950 -2.3280  3.6789  0.0952
   10CHL1    C2  713   5.484   4.468  10.077  0.0462 -0.0248 -0.7275
   10CHL1   H2A  714   5.567   4.428  10.139  0.7546  0.5870 -1.2615
   10CHL1   H2B  715   5.392   4.406  10.083 -0.3273  0.1892 -3.2709
   10CHL1   C20  716   5.774   4.437   9.178  0.2595  0.2760  0.7390
   10CHL1   H20  717   5.681   4.420   9.119 -1.1890 -0.7356  3.1735
   10CHL1   C21  718   5.814   4.304   9.233  0.9570  0.1436 -0.4042
   10CHL1  H21A  719   5.739   4.255   9.299  2.1227 -1.7824 -0.4281
   10CHL1  H21B  720   5.906   4.297   9.294  2.5321  0.8971 -2.5605
   10CHL1  H21C  721   5.819   4.222   9.158  2.0224 -1.1034  0.9735
   10CHL1   C22  722   5.885   4.479   9.072 -0.0460  0.0934  0.9242
   10CHL1  H22A  723   5.901   4.392   9.004 -1.3812  0.4987  0.0451
   10CHL1  H22B  724   5.828   4.555   9.015  0.0332  0.2577  1.0654
   10CHL1   C23  725   6.012   4.549   9.129 -0.0560 -0.2987 -0.0613
   10CHL1  H23A  726   5.991   4.657   9.144 -0.8376 -0.1197 -2.0655
   10CHL1  H23B  727   6.035   4.510   9.230 -1.4488 -1.4528 -0.1549
   10CHL1   C24  728   6.135   4.533   9.037 -0.1732  0.8214 -0.4602
   10CHL1  H24A  729   6.227   4.554   9.096 -0.8396  1.5434  0.3354
   10CHL1  H24B  730   6.144   4.429   8.997  0.4681  0.7341 -0.1035
   10CHL1   C25  731   6.155   4.626   8.907 -0.2393 -0.3103 -0.1301
   10CHL1   H25  732   6.257   4.612   8.866 -1.1459  0.5811 -2.8962
   10CHL1   C26  733   6.054   4.585   8.799 -0.4632 -0.4836  0.2170
   10CHL1  H26A  734   5.968   4.655   8.803  0.8889  1.2396  0.3125
   10CHL1  H26B  735   6.101   4.581   8.699 -0.6086  0.7584  0.0848
   10CHL1  H26C  736   6.016   4.483   8.818 -1.7125 -0.2752 -1.0256
   10CHL1   C27  737   6.135   4.776   8.925 -0.1653  0.1929 -0.4497
   10CHL1  H27A  738   6.143   4.834   8.830 -1.6451 -0.6517 -1.1205
   10CHL1  H27B  739   6.041   4.796   8.979 -0.7929 -0.1883 -1.3810
   10CHL1  H27C  740   6.209   4.820   8.995 -0.1133 -1.5518  0.6635
   11CHL1    C3  741   1.927   6.221  10.097  0.2157  0.3671 -0.5820
   11CHL1    H3  742   1.869   6.126  10.102 -0.6389  0.9256  1.0393
   11CHL1    O3  743   1.937   6.259  10.233  0.3806 -0.6209  0.4070
   11CHL1   H3'  744   1.984   6.342  10.230 -1.2406  0.3897 -3.2181
   11CHL1    C4  745   2.069   6.188  10.046 -0.0195  0.1778  0.0381
   11CHL1   H4A  746   2.147   6.261  10.075 -2.7621  2.5467  1.9297
   11CHL1   H4B  747   2.095   6.088  10.087 -0.3139 -0.5911 -1.5852
   11CHL1    C5  748   2.069   6.181   9.893 -0.3957  0.5681 -0.2841
   11CHL1    C6  749   2.140   6.084   9.828  0.0599 -0.1019  0.6230
   11CHL1    H6  750   2.197   6.007   9.882  0.5229 -1.1258 -1.2260
   11CHL1    C7  751   2.158   6.075   9.676 -0.1796 -0.3208  0.1853
   11CHL1   H7A  752   2.258   6.042   9.639 -0.4059 -1.3796  0.4949
   11CHL1   H7B  753   2.084   6.004   9.635  0.9668 -0.6981 -1.3053
   11CHL1    C8  754   2.134   6.211   9.600 -0.0332 -0.1585 -0.4793
   11CHL1    H8  755   2.222   6.274   9.625 -0.3856 -0.0681  0.6006
   11CHL1   C14  756   2.108   6.193   9.451  0.1854  0.0656 -0.4377
   11CHL1   H14  757   2.023   6.122   9.458  0.1921  0.1828  1.4219
   11CHL1   C15  758   2.206   6.121   9.373 -0.8230  0.5922  0.5906
   11CHL1  H15A  759   2.309   6.153   9.401 -0.4624  0.1075 -0.1445
   11CHL1  H15B  760   2.194   6.011   9.365  0.8641  0.4861 -1.5294
   11CHL1   C16  761   2.176   6.160   9.224 -0.0036 -0.1260 -0.0940
   11CHL1  H16A  762   2.268   6.209   9.187  0.3152  0.0393  0.8943
   11CHL1  H16B  763   2.155   6.078   9.152 -1.8743  0.4730 -0.2872
   11CHL1   C17  764   2.056   6.256   9.226  0.2619 -0.3234 -0.1924
   11CHL1   H17  765   1.969   6.186   9.226  0.1095 -0.1482  0.5581
   11CHL1   C13  766   2.052   6.310   9.374  0.5334  0.3568 -1.2671
   11CHL1   C18  767   2.156   6.427   9.385  0.7779  0.3026  0.1071
   11CHL1  H18A  768   2.185   6.454   9.489 -0.1796  1.0438  0.1881
   11CHL1  H18B  769   2.254   6.395   9.345  0.7480  0.8937 -0.4381
   11CHL1  H18C  770   2.126   6.522   9.336  0.7222 -1.5929 -3.9331
   11CHL1   C12  771   1.922   6.355   9.432 -0.3364  0.1532 -0.3109
   11CHL1  H12A  772   1.893   6.448   9.379  2.2735 -0.0271 -2.3230
   11CHL1  H12B  773   1.858   6.273   9.392  0.3684 -0.3669 -0.3961
   11CHL1   C11  774   1.924   6.377   9.580 -0.5424  0.1990 -1.1570
   11CHL1  H11A  775   1.974   6.475   9.596 -0.6750  0.4054 -1.9606
   11CHL1  H11B  776   1.818   6.381   9.613 -0.5964 -2.3431 -0.8429
   11CHL1    C9  777   1.998   6.264   9.664 -0.1678 -0.1107  0.0910
   11CHL1    H9  778   1.928   6.179   9.650  0.7699 -0.7451 -0.9384
   11CHL1   C10  779   2.002   6.294   9.813 -0.2085 -0.0939 -0.0659
   11CHL1   C19  780   2.094   6.415   9.841  0.5151  0.2805 -0.0993
   11CHL1  H19A  781   2.111   6.426   9.950  4.2813  1.5038 -0.6599
   11CHL1  H19B  782   2.195   6.389   9.803 -0.1541 -1.3159 -0.8580
   11CHL1  H19C  783   2.054   6.510   9.799  0.2715  0.3748  0.3485
   11CHL1    C1  784   1.859   6.325   9.870 -0.4777  0.5174 -0.3729
   11CHL1   H1A  785   1.817   6.418   9.824  1.7573  1.5465 -0.4603
   11CHL1   H1B  786   1.795   6.236   9.850  0.0346 -0.4501  1.9845
   11CHL1    C2  787   1.856   6.341  10.027 -0.4606  0.2561  0.2198
   11CHL1   H2A  788   1.752   6.348  10.064 -0.4906 -0.6631  0.3333
   11CHL1   H2B  789   1.897   6.443  10.048 -0.1291 -0.3410  2.7941
   11CHL1   C20  790   2.054   6.349   9.108 -0.2238  0.3774  0.5126
   11CHL1   H20  791   2.141   6.418   9.108  2.4473 -2.6672 -1.3016
   11CHL1   C21  792   1.928   6.436   9.111 -0.1044  0.1052 -0.3436
   11CHL1  H21A  793   1.957   6.533   9.158  1.3496  0.0530 -1.0686
   11CHL1  H21B  794   1.836   6.392   9.154 -0.4378  0.1130 -1.0440
   11CHL1  H21C  795   1.912   6.471   9.007 -1.1789  2.2423  0.4796
   11CHL1   C22  796   2.062   6.266   8.975  0.4727  0.3368 -0.1653
   11CHL1  H22A  797   2.063   6.337   8.890 -1.2279  0.7443  0.1052
   11CHL1  H22B  798   2.142   6.190   8.961 -0.5940 -1.3625  2.2244
   11CHL1   C23  799   1.942   6.175   8.945  0.0821  0.1203 -0.0642
   11CHL1  H23A  800   1.910   6.106   9.026 -0.6979  2.6641  1.8994
   11CHL1  H23B  801   1.853   6.237   8.923  0.7621  0.8101 -0.9284
   11CHL1   C24  802   1.953   6.084   8.823  0.1047 -0.2342  0.4911
   11CHL1  H24A  803   2.054   6.038   8.815  0.5731  0.6708  1.0237
   11CHL1  H24B  804   1.879   6.002   8.838 -0.0954 -0.1388  0.0334
   11CHL1   C25  805   1.922   6.146   8.682 -1.2303  0.2732 -0.9353
   11CHL1   H25  806   1.950   6.253   8.686  0.0230 -0.0487  2.2984
   11CHL1   C26  807   1.998   6.076   8.565  0.3692  0.0548  0.1730
   11CHL1  H26A  808   1.975   6.123   8.467 -0.7944  1.5964  1.1269
   11CHL1  H26B  809   2.108   6.074   8.580  0.2868  1.2839  1.1707
   11CHL1  H26C  810   1.965   5.971   8.555 -0.1651  0.2482 -0.1429
   11CHL1   C27  811   1.767   6.152   8.659 -0.4148 -0.0443  0.1060
   11CHL1  H27A  812   1.747   6.211   8.567  2.3989  1.7256  0.5127
   11CHL1  H27B  813   1.720   6.054   8.636  0.8042 -1.1250  1.9699
   11CHL1  H27C  814   1.715   6.209   8.739  2.0263  2.2065  0.2291
   12CHL1    C3  815   4.677   3.278  10.225 -0.5675 -0.4460 -0.0998
   12CHL1    H3  816   4.728   3.376  10.242 -1.7400  0.0237  0.8910
   12CHL1    O3  817   4.670   3.223  10.358 -0.2845 -0.1808 -0.1687
   12CHL1   H3'  818   4.584   3.181  10.364 -0.4971  0.2072 -0.4358
   12CHL1    C4  819   4.537   3.296  10.160  0.6496 -0.1086 -0.4529
   12CHL1   H4A  820   4.482   3.200  10.174  0.5380  0.0121 -0.0548
   12CHL1   H4B  821   4.485   3.379  10.213 -3.3988 -2.6996  0.0471
   12CHL1    C5  822   4.542   3.319  10.015  0.3118 -0.8850 -0.1003
   12CHL1    C6  823   4.490   3.428   9.953  0.2715 -1.1166  0.1900
   12CHL1    H6  824   4.433   3.505  10.007  3.9422  2.7730 -0.8919
   12CHL1    C7  825   4.494   3.463   9.808 -0.0974 -0.5026  0.4606
   12CHL1   H7A  826   4.395   3.499   9.775  0.1497  1.0914  1.3951
   12CHL1   H7B  827   4.577   3.536   9.795 -2.4968  2.3838  0.2834
   12CHL1    C8  828   4.534   3.335   9.722 -0.4748 -0.0679 -0.8678
   12CHL1    H8  829   4.445   3.269   9.722 -1.5295  1.2442  1.0891
   12CHL1   C14  830   4.584   3.377   9.590  0.4069 -0.1053 -0.3755
   12CHL1   H14  831   4.681   3.427   9.611 -0.3374  1.6848 -1.0091
   12CHL1   C15  832   4.506   3.491   9.504 -0.8093  0.2484  0.7583
   12CHL1  H15A  833   4.399   3.459   9.505 -0.6987 -0.2840 -1.0810
   12CHL1  H15B  834   4.526   3.586   9.557  1.3764 -0.0652  0.5831
   12CHL1   C16  835   4.560   3.481   9.361 -0.0236  0.3793 -0.2193
   12CHL1  H16A  836   4.479   3.482   9.285 -0.4093 -0.7709  0.1635
   12CHL1  H16B  837   4.626   3.569   9.339 -0.8748  0.4292 -3.0516
   12CHL1   C17  838   4.656   3.355   9.360 -0.1796  0.3291 -0.0981
   12CHL1   H17  839   4.753   3.402   9.386  0.2288 -0.7028  0.2651
   12CHL1   C13  840   4.620   3.266   9.488 -1.1092 -0.2696 -0.5949
   12CHL1   C18  841   4.496   3.181   9.464 -0.5835 -0.1453  0.1894
   12CHL1  H18A  842   4.435   3.152   9.553 -0.9170  2.3466  0.8459
   12CHL1  H18B  843   4.424   3.235   9.399  1.5391  1.5795 -0.8414
   12CHL1  H18C  844   4.526   3.086   9.414 -2.3458 -1.3262  1.2436
   12CHL1   C12  845   4.730   3.179   9.554 -0.1369 -0.0812 -0.0420
   12CHL1  H12A  846   4.744   3.090   9.489 -2.6714 -0.5591 -0.0231
   12CHL1  H12B  847   4.822   3.241   9.558 -0.5467  0.4819  1.6083
   12CHL1   C11  848   4.688   3.143   9.700  0.5374  0.4493 -0.6377
   12CHL1  H11A  849   4.613   3.062   9.685  1.8531 -0.8366 -0.5169
   12CHL1  H11B  850   4.767   3.082   9.749  1.2369  0.4400 -1.7251
   12CHL1    C9  851   4.647   3.253   9.792  0.4744 -0.2189  0.3799
   12CHL1    H9  852   4.729   3.327   9.789  0.4685 -0.2468 -0.5984
   12CHL1   C10  853   4.621   3.215   9.937  0.2895  0.0547  0.0525
   12CHL1   C19  854   4.542   3.079   9.935 -0.2165 -0.7742  0.3357
   12CHL1  H19A  855   4.452   3.088   9.871 -1.0454  0.9813  1.6720
   12CHL1  H19B  856   4.611   3.001   9.897 -1.2563 -1.6031  0.0804
   12CHL1  H19C  857   4.493   3.047  10.030 -1.3423  0.5425  0.2265
   12CHL1    C1  858   4.765   3.204   9.991 -0.5220 -0.1555 -0.2326
   12CHL1   H1A  859   4.827   3.121   9.952 -1.2095 -1.0026  0.4597
   12CHL1   H1B  860   4.821   3.299   9.977 -1.3716  0.4927  0.6328
   12CHL1    C2  861   4.767   3.179  10.145  0.7884  0.2167  0.0518
   12CHL1   H2A  862   4.873   3.183  10.179  1.2645 -0.2633 -1.3232
   12CHL1   H2B  863   4.735   3.076  10.170  2.7868 -1.1928 -2.6629
   12CHL1   C20  864   4.665   3.282   9.220  0.6556  0.0235 -0.4557
   12CHL1   H20  865   4.595   3.197   9.203  0.7093  0.0475 -0.8028
   12CHL1   C21  866   4.811   3.228   9.214  0.1150  0.7999  0.6555
   12CHL1  H21A  867   4.877   3.315   9.193  2.3971 -0.6244  1.5568
   12CHL1  H21B  868   4.808   3.149   9.136 -0.4854  0.1696  1.3013
   12CHL1  H21C  869   4.838   3.178   9.310  0.3229  0.2702  0.3200
   12CHL1   C22  870   4.644   3.381   9.107 -0.0056 -0.4115 -0.2482
   12CHL1  H22A  871   4.539   3.415   9.099 -0.0067 -0.7535 -2.3879
   12CHL1  H22B  872   4.705   3.473   9.121  1.2840 -1.5208  2.1082
   12CHL1   C23  873   4.670   3.323   8.966  0.3197 -0.6880  0.1672
   12CHL1  H23A  874   4.669   3.414   8.901 -2.2107  0.2257  1.3309
   12CHL1  H23B  875   4.768   3.273   8.950  0.9844  0.3993  0.7237
   12CHL1   C24  876   4.563   3.231   8.906  1.3468  0.0652 -0.2851
   12CHL1  H24A  877   4.546   3.137   8.963 -2.2237  0.0748 -1.1190
   12CHL1  H24B  878   4.469   3.288   8.914  1.0295 -0.6692  1.4605
   12CHL1   C25  879   4.589   3.204   8.753  0.0178  0.0632 -0.2398
   12CHL1   H25  880   4.688   3.156   8.737  0.6250  1.9605 -2.7159
   12CHL1   C26  881   4.481   3.108   8.697 -0.0305  0.0589 -0.0896
   12CHL1  H26A  882   4.478   3.113   8.586 -0.1664 -0.1436 -0.0940
   12CHL1  H26B  883   4.507   3.008   8.739  0.4041  0.7337  1.3255
   12CHL1  H26C  884   4.378   3.129   8.734  0.3246 -2.5654  2.7656
   12CHL1   C27  885   4.597   3.335   8.669  0.2146 -0.2341 -0.6588
   12CHL1  H27A  886   4.692   3.393   8.668  0.6734 -0.8763  1.0274
   12CHL1  H27B  887   4.574   3.310   8.563  1.0721 -2.1646 -0.4369
   12CHL1  H27C  888   4.518   3.401   8.710 -0.0798  0.5774 -2.4453
   13CHL1    C3  889   3.542   4.994   9.969 -0.1654  0.2777  0.6015
   13CHL1    H3  890   3.650   5.018   9.974 -0.1864  0.6142 -0.3732
   13CHL1    O3  891   3.481   4.971  10.095  0.0068 -0.0853  0.4485
   13CHL1   H3'  892   3.391   4.940  10.087  0.7215 -3.0941  2.2397
   13CHL1    C4  893   3.467   5.109   9.898 -0.4547 -0.3988 -0.1507
   13CHL1   H4A  894   3.361   5.077   9.892 -0.3736 -0.8690  0.8388
   13CHL1   H4B  895   3.477   5.192   9.971  0.2729 -1.5496  1.1020
   13CHL1    C5  896   3.523   5.139   9.759 -1.0719  0.2649 -0.7512
   13CHL1    C6  897   3.585   5.254   9.722 -0.1602 -0.1017 -0.1510
   13CHL1    H6  898   3.586   5.343   9.788 -2.3611 -0.4512  0.4277
   13CHL1    C7  899   3.619   5.285   9.579 -0.5791  1.1023  0.1687
   13CHL1   H7A  900   3.576   5.381   9.544  0.1454  1.0114 -1.0251
   13CHL1   H7B  901   3.729   5.278   9.564 -0.6533 -0.9954  0.2691
   13CHL1    C8  902   3.558   5.179   9.477 -0.1915 -0.2653 -0.4454
   13CHL1    H8  903   3.450   5.204   9.470  0.2338  2.2880  1.0595
   13CHL1   C14  904   3.621   5.198   9.334 -0.2298 -0.3177 -0.6917
   13CHL1   H14  905   3.724   5.176   9.369 -0.7629 -0.1842  1.0680
   13CHL1   C15  906   3.627   5.339   9.272  0.1750  0.2642  0.3916
   13CHL1  H15A  907   3.539   5.406   9.285 -0.2659  0.1391 -1.6206
   13CHL1  H15B  908   3.711   5.395   9.318 -0.0416  0.0193  1.0979
   13CHL1   C16  909   3.658   5.317   9.121  0.3233 -0.1343 -1.1029
   13CHL1  H16A  910   3.574   5.359   9.062  0.0745  0.6455 -0.2213
   13CHL1  H16B  911   3.757   5.362   9.099  1.5392 -1.6636  0.8428
   13CHL1   C17  912   3.664   5.165   9.104  0.5006  0.7227  0.1752
   13CHL1   H17  913   3.767   5.135   9.130 -0.3515 -1.0900  1.6776
   13CHL1   C13  914   3.585   5.104   9.223  0.2860  0.3872  0.3770
   13CHL1   C18  915   3.441   5.114   9.194  0.4945 -0.1919 -0.7606
   13CHL1  H18A  916   3.412   5.218   9.165 -2.3455 -0.4010  0.9787
   13CHL1  H18B  917   3.423   5.034   9.120  2.7945 -1.3449 -0.1529
   13CHL1  H18C  918   3.384   5.084   9.284 -0.1843  0.2677 -1.0274
   13CHL1   C12  919   3.615   4.957   9.278  0.3766 -0.0195 -0.7798
   13CHL1  H12A  920   3.587   4.874   9.208 -0.3543 -0.5444  0.1148
   13CHL1  H12B  921   3.721   4.940   9.306 -0.0939 -1.0894  0.4244
   13CHL1   C11  922   3.537   4.932   9.414 -0.0481 -0.4509  0.4219
   13CHL1  H11A  923   3.427   4.916   9.401 -0.3392  1.7558 -0.1635
   13CHL1  H11B  924   3.586   4.840   9.452  1.0209 -0.2622 -0.4675
   13CHL1    C9  925   3.570   5.039   9.523  0.2506 -0.2785  0.2257
   13CHL1    H9  926   3.678   5.022   9.540  0.0697 -0.6220  1.1171
   13CHL1   C10  927   3.502   5.019   9.666 -0.0221 -0.4600  0.4877
   13CHL1   C19  928   3.353   4.984   9.646  0.0375 -0.4608  0.0265
   13CHL1  H19A  929   3.359   4.883   9.599  0.8753 -1.8822  2.9226
   13CHL1  H19B  930   3.296   4.965   9.739 -0.3160 -1.3847 -0.3579
   13CHL1  H19C  931   3.315   5.065   9.581 -0.7261 -1.3683 -0.7028
   13CHL1    C1  932   3.580   4.901   9.736 -0.5414  0.3465  0.1454
   13CHL1   H1A  933   3.572   4.814   9.667 -1.6861 -2.1103  3.1177
   13CHL1   H1B  934   3.687   4.930   9.751  0.1641 -2.6901  1.8661
   13CHL1    C2  935   3.535   4.872   9.877  0.3339 -0.6653 -0.1581
   13CHL1   H2A  936   3.598   4.786   9.908  2.9718  0.9299 -0.7953
   13CHL1   H2B  937   3.430   4.838   9.883  0.1550  0.0042  1.0308
   13CHL1   C20  938   3.642   5.102   8.962  1.0495 -0.1240  0.8274
   13CHL1   H20  939   3.596   5.001   8.965 -1.4076  0.9330  0.6923
   13CHL1   C21  940   3.773   5.080   8.893 -0.0627  0.3674  0.3356
   13CHL1  H21A  941   3.816   4.994   8.949 -1.6409  0.1795  1.3194
   13CHL1  H21B  942   3.835   5.172   8.899 -1.3416  1.4183 -1.6992
   13CHL1  H21C  943   3.775   5.049   8.787  0.2501 -0.2061  0.5011
   13CHL1   C22  944   3.541   5.195   8.880 -0.3828  0.4087 -0.8636
   13CHL1  H22A  945   3.443   5.206   8.930 -1.7912 -0.4454 -3.2529
   13CHL1  H22B  946   3.600   5.289   8.871  2.5070 -0.8974  2.3124
   13CHL1   C23  947   3.493   5.147   8.742 -0.1086  0.2426 -0.3425
   13CHL1  H23A  948   3.579   5.127   8.674 -0.5082  1.0175 -1.0968
   13CHL1  H23B  949   3.441   5.049   8.745 -0.3644  0.3474 -1.0687
   13CHL1   C24  950   3.411   5.251   8.675  0.2243  0.3872  1.0525
   13CHL1  H24A  951   3.327   5.282   8.742  0.9782 -1.2601  2.8792
   13CHL1  H24B  952   3.472   5.344   8.669  2.1874 -0.8994  0.1041
   13CHL1   C25  953   3.367   5.219   8.528 -0.6824 -0.6090 -0.2201
   13CHL1   H25  954   3.462   5.202   8.474  0.5187  0.1495  1.5913
   13CHL1   C26  955   3.265   5.096   8.528  0.6931  0.3446 -0.0153
   13CHL1  H26A  956   3.184   5.127   8.597  1.7453  2.2167  0.4517
   13CHL1  H26B  957   3.224   5.076   8.426  2.0977 -1.4392 -0.2894
   13CHL1  H26C  958   3.313   5.005   8.569  1.1692  0.3224 -0.5954
   13CHL1   C27  959   3.298   5.335   8.461  0.6321 -0.2714  0.2625
   13CHL1  H27A  960   3.364   5.423   8.445  1.0816 -0.6801 -0.1676
   13CHL1  H27B  961   3.281   5.308   8.355  3.5066 -0.8254 -0.1290
   13CHL1  H27C  962   3.199   5.347   8.511 -0.7168 -0.8036 -2.1310
   14CHL1    C3  963   2.648   0.780  10.349 -0.2862  0.0848 -0.5929
   14CHL1    H3  964   2.757   0.797  10.342 -0.0393  1.1981  3.3545
   14CHL1    O3  965   2.619   0.779  10.489 -0.7431 -0.2327  0.3003
   14CHL1   H3'  966   2.526   0.802  10.496 -0.7077 -0.4615  1.9003
   14CHL1    C4  967   2.576   0.902  10.299 -0.1488 -0.2210  0.9062
   14CHL1   H4A  968   2.470   0.899  10.331 -0.3293 -2.2215  0.2237
   14CHL1   H4B  969   2.621   0.989  10.352  2.7229  0.0960 -1.7551
   14CHL1    C5  970   2.601   0.922  10.152 -0.8187  0.2591 -0.1385
   14CHL1    C6  971   2.643   1.041  10.109 -0.3848 -0.8926 -1.1908
   14CHL1    H6  972   2.657   1.116  10.189 -2.9055 -0.3148 -1.2300
   14CHL1    C7  973   2.653   1.078   9.964  0.4520 -0.6024 -0.6193
   14CHL1   H7A  974   2.615   1.182   9.958  1.8477  0.0338  0.8144
   14CHL1   H7B  975   2.760   1.103   9.943  0.4399  0.0255  0.0291
   14CHL1    C8  976   2.605   0.965   9.872  0.2289 -0.0729 -0.8713
   14CHL1    H8  977   2.495   0.977   9.868  0.3493  1.5057 -0.0020
   14CHL1   C14  978   2.655   0.986   9.726  0.4235 -0.2500 -0.5795
   14CHL1   H14  979   2.765   0.974   9.741  0.4327 -0.3032 -0.6878
   14CHL1   C15  980   2.648   1.124   9.661 -0.2092  0.4170 -0.4033
   14CHL1  H15A  981   2.550   1.171   9.683 -0.4438 -1.3872  2.9976
   14CHL1  H15B  982   2.717   1.205   9.690  0.6250 -0.0863 -0.9227
   14CHL1   C16  983   2.662   1.091   9.509  0.1026  0.2408  0.5829
   14CHL1  H16A  984   2.569   1.125   9.459 -3.2804 -4.1559  3.1402
   14CHL1  H16B  985   2.758   1.141   9.483 -0.1205  0.8819  0.9742
   14CHL1   C17  986   2.689   0.931   9.504  0.1731 -0.3692 -0.2717
   14CHL1   H17  987   2.797   0.926   9.528  0.1719  0.9449  0.0592
   14CHL1   C13  988   2.608   0.884   9.618  0.0048 -0.0258  0.0878
   14CHL1   C18  989   2.455   0.891   9.590 -0.3761  0.0165 -0.5854
   14CHL1  H18A  990   2.428   0.992   9.555 -0.8767 -0.3140 -1.1808
   14CHL1  H18B  991   2.432   0.819   9.508 -2.7698  0.2865 -0.2090
   14CHL1  H18C  992   2.395   0.872   9.681  1.0052  0.5002  0.4529
   14CHL1   C12  993   2.647   0.740   9.680 -0.4769 -0.4292 -0.7229
   14CHL1  H12A  994   2.605   0.658   9.617 -2.5514 -0.7276  0.9348
   14CHL1  H12B  995   2.757   0.729   9.685 -0.4242  0.2397 -0.2390
   14CHL1   C11  996   2.589   0.720   9.819  0.0826 -0.0182 -0.1905
   14CHL1  H11A  997   2.480   0.738   9.808  0.1738  0.1204 -0.9488
   14CHL1  H11B  998   2.606   0.614   9.849  0.7452  0.0778 -0.2065
   14CHL1    C9  999   2.628   0.828   9.926  0.1242  0.6064 -0.2769
   14CHL1    H9 1000   2.738   0.818   9.936  0.0928 -0.8469 -1.1144
   14CHL1   C10 1001   2.573   0.804  10.068 -0.3388  0.1753 -0.4178
   14CHL1   C19 1002   2.420   0.797  10.066 -0.9300 -0.0203 -0.3249
   14CHL1  H19A 1003   2.386   0.706  10.013  0.9398 -0.8838 -0.1208
   14CHL1  H19B 1004   2.370   0.787  10.164 -1.4476 -0.7377 -0.6583
   14CHL1  H19C 1005   2.382   0.885  10.010 -0.5030 -0.5693 -1.5141
   14CHL1    C1 1006   2.620   0.665  10.125 -0.0194 -0.0320 -0.4750
   14CHL1   H1A 1007   2.568   0.582  10.074  1.7001 -0.8755 -0.9294
   14CHL1   H1B 1008   2.729   0.646  10.113 -0.4076 -1.9225 -1.2525
   14CHL1    C2 1009   2.601   0.652  10.278 -0.5150 -0.2573  0.1848
   14CHL1   H2A 1010   2.658   0.569  10.324 -2.4393 -1.0169  1.3127
   14CHL1   H2B 1011   2.493   0.636  10.298 -0.7107  2.8208  2.4307
   14CHL1   C20 1012   2.673   0.869   9.365 -1.5278  0.0805  0.0453
   14CHL1   H20 1013   2.567   0.864   9.334 -1.4941  1.5209 -0.3688
   14CHL1   C21 1014   2.750   0.735   9.353 -0.3967  0.5384 -0.3781
   14CHL1  H21A 1015   2.855   0.756   9.382 -0.8702 -0.0636  1.9314
   14CHL1  H21B 1016   2.742   0.702   9.247 -0.6041  0.1268 -0.2359
   14CHL1  H21C 1017   2.695   0.670   9.424  0.5226  0.3779  0.1980
   14CHL1   C22 1018   2.731   0.955   9.250 -0.0116  0.1409  0.0127
   14CHL1  H22A 1019   2.732   1.063   9.275 -2.3737  0.2361 -0.0986
   14CHL1  H22B 1020   2.839   0.928   9.245  0.4968  1.5271  2.3557
   14CHL1   C23 1021   2.659   0.934   9.115 -0.0604  0.2756  0.0998
   14CHL1  H23A 1022   2.636   0.826   9.101 -0.5857  0.1758  1.5764
   14CHL1  H23B 1023   2.562   0.987   9.113  0.3124  0.9624 -0.0922
   14CHL1   C24 1024   2.738   0.983   8.997 -0.0220 -0.0836  0.3330
   14CHL1  H24A 1025   2.764   1.088   9.021  3.2167 -0.6356 -0.2773
   14CHL1  H24B 1026   2.841   0.940   8.998  1.2657  2.7648  0.1969
   14CHL1   C25 1027   2.663   0.965   8.865  0.1269  0.3317 -0.1721
   14CHL1   H25 1028   2.569   1.023   8.876  1.2752  3.0530 -3.0689
   14CHL1   C26 1029   2.741   1.045   8.760  0.8455 -0.2882 -0.1146
   14CHL1  H26A 1030   2.704   1.013   8.660 -0.2902  1.2509 -0.2301
   14CHL1  H26B 1031   2.730   1.154   8.777 -0.5369 -0.4529  0.1774
   14CHL1  H26C 1032   2.847   1.016   8.774  0.9288  1.0420  2.6127
   14CHL1   C27 1033   2.649   0.816   8.826  0.7040 -0.2163 -0.5475
   14CHL1  H27A 1034   2.608   0.797   8.725  0.4261 -1.6790 -0.1774
   14CHL1  H27B 1035   2.745   0.759   8.824  0.4888 -0.6042 -3.2053
   14CHL1  H27C 1036   2.576   0.769   8.895  0.1586  0.3236 -0.7489
   15CHL1    C3 1037   3.423   6.496  10.088  1.1279  0.6776 -0.8137
   15CHL1    H3 1038   3.485   6.405  10.071  1.5069  0.7404  0.1681
   15CHL1    O3 1039   3.429   6.516  10.229 -0.0357 -0.1950  0.4564
   15CHL1   H3' 1040   3.358   6.580  10.243  1.3721  1.3084  0.9294
   15CHL1    C4 1041   3.487   6.615  10.010  1.1074  0.3597  0.1099
   15CHL1   H4A 1042   3.448   6.704  10.064 -3.2806 -1.7063  0.7198
   15CHL1   H4B 1043   3.597   6.607  10.028  1.1042  2.6477  1.6029
   15CHL1    C5 1044   3.450   6.617   9.862  0.6121  0.2530 -0.1528
   15CHL1    C6 1045   3.545   6.637   9.773  0.6045  0.1461 -0.8139
   15CHL1    H6 1046   3.649   6.645   9.807  0.3313 -0.9122  0.3168
   15CHL1    C7 1047   3.507   6.648   9.630  0.3483 -0.4223  0.9466
   15CHL1   H7A 1048   3.556   6.732   9.576 -1.4764  1.5323  2.1674
   15CHL1   H7B 1049   3.536   6.548   9.593  1.9644  0.5852 -0.6632
   15CHL1    C8 1050   3.358   6.683   9.601 -0.3460  0.0093  0.2721
   15CHL1    H8 1051   3.340   6.785   9.640  0.4239  0.6450 -0.9842
   15CHL1   C14 1052   3.341   6.674   9.454  0.3165  0.1880  0.2119
   15CHL1   H14 1053   3.372   6.570   9.433  1.2330  0.4367  0.2746
   15CHL1   C15 1054   3.421   6.764   9.356  0.4426  0.3647 -0.3568
   15CHL1  H15A 1055   3.432   6.858   9.414 -3.4964 -1.4669  3.9840
   15CHL1  H15B 1056   3.524   6.730   9.333  0.5497  1.2144 -1.1736
   15CHL1   C16 1057   3.325   6.783   9.236 -0.2451  0.2332  0.4190
   15CHL1  H16A 1058   3.298   6.891   9.226  2.4760  1.0102  0.4991
   15CHL1  H16B 1059   3.373   6.752   9.141  0.0286  0.4212  0.4945
   15CHL1   C17 1060   3.199   6.691   9.265 -0.3127 -0.0470  0.0965
   15CHL1   H17 1061   3.232   6.588   9.239 -0.8910 -0.1049 -0.4411
   15CHL1   C13 1062   3.193   6.698   9.416  0.3584 -0.2061  0.3550
   15CHL1   C18 1063   3.152   6.847   9.463 -0.4101  1.0363 -0.1393
   15CHL1  H18A 1064   3.043   6.855   9.440 -0.5425 -0.1693 -0.0103
   15CHL1  H18B 1065   3.162   6.860   9.572 -0.0911  0.2384 -0.0650
   15CHL1  H18C 1066   3.202   6.928   9.406  0.5215  1.6192  1.4546
   15CHL1   C12 1067   3.106   6.588   9.477 -0.8985  0.0427  0.0586
   15CHL1  H12A 1068   2.997   6.597   9.460 -2.0299 -1.5196  5.0022
   15CHL1  H12B 1069   3.132   6.491   9.430 -0.3258  1.1609 -2.0729
   15CHL1   C11 1070   3.127   6.584   9.627  0.1342  0.0727 -0.5349
   15CHL1  H11A 1071   3.070   6.671   9.667  0.0758 -0.1510 -0.1234
   15CHL1  H11B 1072   3.080   6.498   9.680  4.0421 -0.8262  1.8895
   15CHL1    C9 1073   3.269   6.584   9.678 -0.2630 -0.2668  0.4161
   15CHL1    H9 1074   3.311   6.483   9.660  1.0781  0.4541 -0.6964
   15CHL1   C10 1075   3.295   6.606   9.829 -0.2050  0.4599  0.5598
   15CHL1   C19 1076   3.220   6.728   9.878 -0.3358 -0.8833 -0.0883
   15CHL1  H19A 1077   3.114   6.709   9.906 -0.7411 -1.3636 -1.8080
   15CHL1  H19B 1078   3.255   6.761   9.978 -1.0950 -1.0773  0.2436
   15CHL1  H19C 1079   3.236   6.817   9.813 -0.2337 -1.7053 -1.2224
   15CHL1    C1 1080   3.249   6.471   9.906  0.1658 -0.5926  0.4323
   15CHL1   H1A 1081   3.139   6.467   9.894 -0.1013  1.3101  1.7260
   15CHL1   H1B 1082   3.299   6.380   9.867 -0.1193 -0.9593  0.9047
   15CHL1    C2 1083   3.279   6.468  10.058  0.3537  0.1609  0.2356
   15CHL1   H2A 1084   3.246   6.365  10.086  0.7477  0.1214  0.5688
   15CHL1   H2B 1085   3.219   6.543  10.113  0.4319 -0.0660  0.6383
   15CHL1   C20 1086   3.071   6.708   9.176 -0.3726 -0.2053  0.0715
   15CHL1   H20 1087   3.021   6.796   9.222  0.5934 -1.1748  3.2225
   15CHL1   C21 1088   2.970   6.586   9.191  0.2219 -0.1478 -0.3713
   15CHL1  H21A 1089   2.884   6.606   9.259  0.1610  0.5608 -0.6489
   15CHL1  H21B 1090   3.023   6.496   9.226 -2.4478 -1.4806  0.5482
   15CHL1  H21C 1091   2.933   6.566   9.088  0.9774  1.9676 -1.1120
   15CHL1   C22 1092   3.096   6.745   9.024  0.2111  0.2203 -0.2891
   15CHL1  H22A 1093   2.994   6.754   8.981 -0.1829  0.3445  0.6566
   15CHL1  H22B 1094   3.158   6.836   9.027 -0.5685  0.8310  4.2324
   15CHL1   C23 1095   3.170   6.642   8.939  0.1889 -0.1497 -0.5556
   15CHL1  H23A 1096   3.271   6.619   8.980 -1.0422 -0.2440  2.7841
   15CHL1  H23B 1097   3.108   6.550   8.947 -0.2564  0.2204  0.4869
   15CHL1   C24 1098   3.187   6.678   8.788  0.0834 -0.5971 -0.0101
   15CHL1  H24A 1099   3.248   6.597   8.743 -0.0920 -0.5003 -0.4261
   15CHL1  H24B 1100   3.086   6.691   8.744  0.1888  0.0859 -0.0738
   15CHL1   C25 1101   3.264   6.815   8.772  0.1082  0.1659 -0.3591
   15CHL1   H25 1102   3.188   6.891   8.803  0.0094  0.0412 -0.2948
   15CHL1   C26 1103   3.397   6.823   8.850  0.8872 -0.4009 -0.0310
   15CHL1  H26A 1104   3.466   6.741   8.820  0.4256 -1.2232  1.0821
   15CHL1  H26B 1105   3.456   6.916   8.841  1.0687 -0.4509  0.5855
   15CHL1  H26C 1106   3.374   6.806   8.957  1.4077  1.7255  0.4637
   15CHL1   C27 1107   3.272   6.837   8.616  0.0336 -0.3288  0.1868
   15CHL1  H27A 1108   3.178   6.807   8.564 -0.4554  0.6539  0.4821
   15CHL1  H27B 1109   3.309   6.941   8.603  0.0499 -0.2282  1.0297
   15CHL1  H27C 1110   3.358   6.778   8.578  0.7093 -0.6759  2.1557
   16CHL1    C3 1111   4.206   0.739  10.289  0.3462  0.1149  0.5721
   16CHL1    H3 1112   4.314   0.753  10.268  0.1023  0.6364 -0.3978
   16CHL1    O3 1113   4.176   0.720  10.421  0.7470  0.2842 -0.4194
   16CHL1   H3' 1114   4.251   0.665  10.444  0.0094 -1.0914 -1.1917
   16CHL1    C4 1115   4.128   0.863  10.235 -0.6596  0.4267 -0.6875
   16CHL1   H4A 1116   4.027   0.820  10.253  1.3391 -4.1128  1.0934
   16CHL1   H4B 1117   4.152   0.949  10.302 -2.5634  0.4427  0.0235
   16CHL1    C5 1118   4.149   0.888  10.082 -0.0808 -0.4152  0.3085
   16CHL1    C6 1119   4.201   1.006  10.035 -0.0397  1.4052  0.5316
   16CHL1    H6 1120   4.218   1.095  10.098  1.2713  1.2417  0.4324
   16CHL1    C7 1121   4.217   1.030   9.887 -0.1739 -0.3168 -0.1276
   16CHL1   H7A 1122   4.179   1.133   9.866 -0.9871 -0.7511 -0.8775
   16CHL1   H7B 1123   4.324   1.025   9.857  0.3067  0.7393  1.2922
   16CHL1    C8 1124   4.140   0.933   9.797  0.2734  0.2489  0.1077
   16CHL1    H8 1125   4.036   0.971   9.798 -0.5380 -1.7803 -1.3917
   16CHL1   C14 1126   4.192   0.946   9.655 -0.3193 -0.3175  0.4352
   16CHL1   H14 1127   4.296   0.907   9.663 -1.7169 -4.2640  1.5906
   16CHL1   C15 1128   4.206   1.088   9.599  0.1231  0.6107 -0.2312
   16CHL1  H15A 1129   4.109   1.139   9.617 -1.5049 -2.1822 -0.5148
   16CHL1  H15B 1130   4.283   1.142   9.659 -2.2876  1.8440  1.9564
   16CHL1   C16 1131   4.245   1.063   9.450 -0.5366  0.0224 -0.6202
   16CHL1  H16A 1132   4.172   1.126   9.395 -0.2651  1.9594  1.1547
   16CHL1  H16B 1133   4.347   1.099   9.428 -0.0875  1.0986  2.7256
   16CHL1   C17 1134   4.219   0.910   9.430 -0.1987  0.4341 -0.4471
   16CHL1   H17 1135   4.317   0.860   9.445 -0.2977  0.4449  0.2373
   16CHL1   C13 1136   4.133   0.855   9.544 -0.0136  1.2042  0.5940
   16CHL1   C18 1137   3.982   0.896   9.526 -0.2193 -0.6440 -1.1400
   16CHL1  H18A 1138   3.969   1.003   9.498  0.9490  0.2352  1.3543
   16CHL1  H18B 1139   3.925   0.828   9.460 -1.8751 -0.2015 -0.2083
   16CHL1  H18C 1140   3.937   0.877   9.625  0.7878  1.2567 -0.2462
   16CHL1   C12 1141   4.155   0.703   9.603 -0.2089 -0.5464  0.6457
   16CHL1  H12A 1142   4.113   0.627   9.533  2.1614  0.2163 -1.7994
   16CHL1  H12B 1143   4.262   0.677   9.617 -0.6464 -3.1753 -0.2187
   16CHL1   C11 1144   4.095   0.691   9.750 -0.1888  0.2164  0.2599
   16CHL1  H11A 1145   3.986   0.710   9.751  0.0222  1.4878  0.2918
   16CHL1  H11B 1146   4.102   0.586   9.787  0.1071  0.1829  0.1101
   16CHL1    C9 1147   4.153   0.792   9.849  0.5230  0.4360  0.0993
   16CHL1    H9 1148   4.263   0.786   9.857  1.0644  2.7975 -3.3191
   16CHL1   C10 1149   4.106   0.768   9.995  0.5593 -0.9487 -0.1286
   16CHL1   C19 1150   3.957   0.748  10.010 -0.3164  0.3168  0.4402
   16CHL1  H19A 1151   3.913   0.753  10.112  1.3953  0.9762  1.1760
   16CHL1  H19B 1152   3.906   0.816   9.939 -0.6951 -2.1048 -1.8000
   16CHL1  H19C 1153   3.935   0.645   9.973  1.4733  0.3949 -1.0029
   16CHL1    C1 1154   4.174   0.640  10.058  0.1914  0.9287  0.0797
   16CHL1   H1A 1155   4.137   0.552  10.000 -1.9899  1.1620  1.0428
   16CHL1   H1B 1156   4.282   0.662  10.039  0.8670 -0.6597  1.7780
   16CHL1    C2 1157   4.165   0.609  10.211 -0.1834 -0.0322  0.8148
   16CHL1   H2A 1158   4.232   0.524  10.237  1.0606  0.6357 -0.0522
   16CHL1   H2B 1159   4.061   0.584  10.240 -0.2101  0.8103  1.5017
   16CHL1   C20 1160   4.184   0.867   9.284 -0.1759 -0.4680 -0.2835
   16CHL1   H20 1161   4.081   0.906   9.272  0.1030  1.1231  1.9641
   16CHL1   C21 1162   4.177   0.713   9.287 -0.3812  0.2528  0.3326
   16CHL1  H21A 1163   4.264   0.670   9.339  0.4413  0.8500 -0.5144
   16CHL1  H21B 1164   4.165   0.672   9.184 -1.9520 -1.3082  1.0794
   16CHL1  H21C 1165   4.081   0.682   9.334 -1.5486  0.2381 -1.9027
   16CHL1   C22 1166   4.273   0.927   9.172  0.0329  0.4414 -0.0152
   16CHL1  H22A 1167   4.282   1.037   9.184  1.7949  0.3009  0.3516
   16CHL1  H22B 1168   4.378   0.892   9.185  0.5772  1.8309 -0.4893
   16CHL1   C23 1169   4.225   0.892   9.029 -0.2343 -0.0209  0.4970
   16CHL1  H23A 1170   4.200   0.784   9.023 -0.5845 -0.0025  1.3979
   16CHL1  H23B 1171   4.129   0.949   9.024  0.1908  0.6838  0.2153
   16CHL1   C24 1172   4.316   0.959   8.924 -0.3222  0.1148 -0.1289
   16CHL1  H24A 1173   4.271   1.060   8.926 -2.9956 -0.9911  2.3375
   16CHL1  H24B 1174   4.424   0.969   8.947 -0.1755  3.2394 -1.7243
   16CHL1   C25 1175   4.299   0.910   8.782  0.2934  0.4388  0.0915
   16CHL1   H25 1176   4.306   0.799   8.792  0.3129  0.3905 -0.4335
   16CHL1   C26 1177   4.166   0.954   8.722  0.1886 -0.1935  0.4559
   16CHL1  H26A 1178   4.160   0.919   8.617  0.5247  0.9021  0.0534
   16CHL1  H26B 1179   4.082   0.910   8.779  0.2701  0.0604  0.7776
   16CHL1  H26C 1180   4.156   1.065   8.721  0.9154 -0.1207 -0.0681
   16CHL1   C27 1181   4.410   0.963   8.684 -0.9015 -0.6258  0.5745
   16CHL1  H27A 1182   4.512   0.932   8.713 -0.3905  2.0301  1.8148
   16CHL1  H27B 1183   4.395   0.949   8.575  0.0495  2.7912 -0.1004
   16CHL1  H27C 1184   4.405   1.073   8.692 -2.9635 -0.6296 -0.0472
   17CHL1    C3 1185   6.781   3.828  10.240 -0.2759  0.0127 -0.6429
   17CHL1    H3 1186   6.838   3.738  10.270  1.9165  2.3886  3.0211
   17CHL1    O3 1187   6.757   3.892  10.364  0.3714  0.4791 -0.2312
   17CHL1   H3' 1188   6.671   3.932  10.349  0.2021 -0.2644 -1.3549
   17CHL1    C4 1189   6.855   3.920  10.141 -0.0247 -0.2593  0.2233
   17CHL1   H4A 1190   6.798   4.014  10.124 -0.1783 -0.5127 -0.6738
   17CHL1   H4B 1191   6.957   3.949  10.173  0.0725  0.4570 -0.7101
   17CHL1    C5 1192   6.874   3.860  10.012 -0.8033  0.4535  0.1591
   17CHL1    C6 1193   6.999   3.844   9.953  0.3733 -0.3313 -0.0072
   17CHL1    H6 1194   7.089   3.876  10.007  0.0797 -2.5166  1.9346
   17CHL1    C7 1195   7.020   3.784   9.816 -0.2853  0.2659  0.7017
   17CHL1   H7A 1196   7.092   3.844   9.756 -0.0455 -0.2546  0.4603
   17CHL1   H7B 1197   7.068   3.683   9.811 -2.3441 -0.8412  1.9523
   17CHL1    C8 1198   6.881   3.777   9.732  0.2506  0.8339  0.5798
   17CHL1    H8 1199   6.855   3.883   9.710 -1.0607  0.9261  2.3143
   17CHL1   C14 1200   6.890   3.693   9.603 -0.3493 -0.0402 -0.4516
   17CHL1   H14 1201   6.920   3.591   9.635 -1.4061 -0.3557 -0.4600
   17CHL1   C15 1202   6.996   3.744   9.511  1.2735 -0.3637 -1.1092
   17CHL1  H15A 1203   6.986   3.853   9.490  0.8651 -0.2001 -0.1435
   17CHL1  H15B 1204   7.099   3.731   9.550  0.6476  0.1203  0.8352
   17CHL1   C16 1205   6.966   3.676   9.379  0.2517 -0.6975  0.4171
   17CHL1  H16A 1206   6.960   3.737   9.287 -1.7339  1.7714  2.0595
   17CHL1  H16B 1207   7.041   3.594   9.371 -0.9577 -2.0030  1.7103
   17CHL1   C17 1208   6.820   3.616   9.388 -0.3837 -0.2727 -0.1752
   17CHL1   H17 1209   6.825   3.507   9.410 -0.7981 -0.8051 -2.4180
   17CHL1   C13 1210   6.761   3.684   9.521 -0.8442  0.0129  0.2794
   17CHL1   C18 1211   6.713   3.817   9.472 -0.3564  0.4253 -0.0721
   17CHL1  H18A 1212   6.792   3.878   9.423 -1.1260  2.1790  0.8223
   17CHL1  H18B 1213   6.631   3.815   9.396  1.3878 -0.2236 -2.0537
   17CHL1  H18C 1214   6.697   3.874   9.565  0.0928 -0.3942  0.5217
   17CHL1   C12 1215   6.670   3.608   9.608 -0.2313  0.4438 -0.5028
   17CHL1  H12A 1216   6.576   3.591   9.553 -1.0530 -2.1371  1.5054
   17CHL1  H12B 1217   6.699   3.503   9.630 -2.7869 -0.0652  0.7936
   17CHL1   C11 1218   6.642   3.685   9.741 -0.8973  0.1977  0.3391
   17CHL1  H11A 1219   6.579   3.767   9.703 -0.3221 -0.4778 -2.2213
   17CHL1  H11B 1220   6.569   3.627   9.802 -2.0160  0.3693 -0.7910
   17CHL1    C9 1221   6.774   3.717   9.812  0.0547  0.2250 -0.7962
   17CHL1    H9 1222   6.810   3.622   9.857 -0.1635  0.9707  1.0602
   17CHL1   C10 1223   6.742   3.798   9.939 -0.3631 -0.9019 -0.1304
   17CHL1   C19 1224   6.660   3.923   9.893 -0.0593 -0.0285  0.5021
   17CHL1  H19A 1225   6.718   3.986   9.823  0.0199  0.1718  0.7455
   17CHL1  H19B 1226   6.568   3.890   9.841  0.9339 -2.6940  0.2671
   17CHL1  H19C 1227   6.636   3.992   9.977  2.0568  1.2206  0.1342
   17CHL1    C1 1228   6.674   3.703  10.044 -0.5142  0.3721 -0.0018
   17CHL1   H1A 1229   6.586   3.656   9.996  1.6490 -0.4196 -3.5128
   17CHL1   H1B 1230   6.738   3.621  10.083 -1.0511  0.2394  0.6282
   17CHL1    C2 1231   6.651   3.779  10.175  0.0317 -0.1804  0.3830
   17CHL1   H2A 1232   6.590   3.715  10.243  0.7010  0.5755  1.7454
   17CHL1   H2B 1233   6.592   3.870  10.151 -0.5579 -0.5058  0.5593
   17CHL1   C20 1234   6.746   3.608   9.259 -0.1456  0.6317 -0.4329
   17CHL1   H20 1235   6.747   3.711   9.216 -1.7525 -0.0095 -2.1560
   17CHL1   C21 1236   6.605   3.567   9.273  0.7015 -0.0669  0.1160
   17CHL1  H21A 1237   6.583   3.475   9.331 -1.3549  1.0707  1.3178
   17CHL1  H21B 1238   6.567   3.548   9.171  0.9206  0.3238 -0.0381
   17CHL1  H21C 1239   6.541   3.647   9.318 -1.0266 -1.9886  1.2276
   17CHL1   C22 1240   6.817   3.521   9.152  0.1364  0.5863  0.1469
   17CHL1  H22A 1241   6.926   3.503   9.167  0.0752 -0.2328 -0.3588
   17CHL1  H22B 1242   6.780   3.418   9.170  3.1942 -0.6651 -0.0811
   17CHL1   C23 1243   6.790   3.563   9.010 -0.3510  0.7109  0.2664
   17CHL1  H23A 1244   6.683   3.539   8.987 -0.8994  1.5167  1.8289
   17CHL1  H23B 1245   6.802   3.672   8.994 -4.1913  1.6816  2.6398
   17CHL1   C24 1246   6.873   3.484   8.903 -0.0109 -0.4333 -0.6507
   17CHL1  H24A 1247   6.830   3.523   8.808 -2.9663  0.7461  1.0278
   17CHL1  H24B 1248   6.975   3.527   8.911 -0.3211 -0.0048  1.6754
   17CHL1   C25 1249   6.878   3.332   8.909  0.5189  0.5894 -0.1208
   17CHL1   H25 1250   6.927   3.300   9.003  2.4641 -1.5900 -1.7652
   17CHL1   C26 1251   6.740   3.265   8.915 -0.1562 -0.3702  0.3500
   17CHL1  H26A 1252   6.760   3.156   8.925  0.4141 -0.3581 -0.4588
   17CHL1  H26B 1253   6.673   3.300   8.996  0.5385 -2.5323  1.9458
   17CHL1  H26C 1254   6.682   3.284   8.822 -0.6339 -1.4680  0.4057
   17CHL1   C27 1255   6.957   3.274   8.790  0.2441 -0.0376  0.1443
   17CHL1  H27A 1256   7.056   3.322   8.775  0.6377 -0.5171  1.1104
   17CHL1  H27B 1257   6.973   3.166   8.811  0.5253 -0.1314 -0.5303
   17CHL1  H27C 1258   6.886   3.281   8.705  1.1533 -0.6207 -0.6862
   18CHL1    C3 1259   0.116   3.365  10.149 -0.4127  0.4842  0.0025
   18CHL1    H3 1260   0.187   3.447  10.126  0.8798 -0.4566  0.5586
   18CHL1    O3 1261   0.042   3.409  10.259 -0.4419  0.1302 -0.3316
   18CHL1   H3' 1262   0.004   3.325  10.288 -1.3222  0.4325 -0.5897
   18CHL1    C4 1263   0.023   3.324  10.030  0.2069  0.3720  0.3221
   18CHL1   H4A 1264  -0.052   3.249  10.065  1.5577 -1.2946 -0.2077
   18CHL1   H4B 1265  -0.023   3.422  10.004  0.5004  0.6836  0.9511
   18CHL1    C5 1266   0.111   3.265   9.922  0.8563  0.3867 -0.0759
   18CHL1    C6 1267   0.128   3.321   9.803 -0.2349  0.5019  0.9973
   18CHL1    H6 1268   0.064   3.405   9.774  0.1527 -0.7779 -4.9338
   18CHL1    C7 1269   0.214   3.264   9.689  0.3472  0.1214  0.9600
   18CHL1   H7A 1270   0.167   3.270   9.589  1.8232 -1.9612  0.0783
   18CHL1   H7B 1271   0.303   3.330   9.698 -1.4924  2.9172 -0.1968
   18CHL1    C8 1272   0.234   3.121   9.712  0.5953 -0.3984  0.1067
   18CHL1    H8 1273   0.134   3.074   9.704 -0.6939  2.2139  0.0588
   18CHL1   C14 1274   0.324   3.061   9.609  0.7291 -0.0316  0.3364
   18CHL1   H14 1275   0.418   3.119   9.623  1.7584 -1.4333 -0.5337
   18CHL1   C15 1276   0.288   3.078   9.461 -0.2504  0.8244 -0.0453
   18CHL1  H15A 1277   0.178   3.066   9.450 -0.0959  0.0698 -0.8184
   18CHL1  H15B 1278   0.313   3.174   9.412 -0.2044 -0.6285 -3.0873
   18CHL1   C16 1279   0.349   2.955   9.395  0.2313 -0.3299  0.3381
   18CHL1  H16A 1280   0.273   2.896   9.338  2.8331  0.2644 -4.2557
   18CHL1  H16B 1281   0.420   2.997   9.320 -2.2969 -1.0336 -2.6786
   18CHL1   C17 1282   0.426   2.879   9.504 -0.4741  0.2227  1.1143
   18CHL1   H17 1283   0.518   2.940   9.514 -0.4040  0.0570  1.4867
   18CHL1   C13 1284   0.349   2.914   9.633 -0.4661  0.8379  0.7014
   18CHL1   C18 1285   0.216   2.829   9.642 -0.6061 -0.1256  0.4259
   18CHL1  H18A 1286   0.156   2.858   9.731 -1.8807 -2.3020  0.3532
   18CHL1  H18B 1287   0.153   2.845   9.553  0.0954 -0.6938 -0.1828
   18CHL1  H18C 1288   0.243   2.721   9.645 -0.0992 -0.0031  0.4029
   18CHL1   C12 1289   0.425   2.910   9.758  0.5344 -0.3614  0.2240
   18CHL1  H12A 1290   0.448   2.805   9.786 -0.5303 -0.0513  2.4376
   18CHL1  H12B 1291   0.524   2.961   9.758  0.7292 -0.7276  0.7446
   18CHL1   C11 1292   0.346   2.954   9.877  0.2144  0.3940 -0.0493
   18CHL1  H11A 1293   0.271   2.877   9.904 -0.1944  0.4416 -0.9963
   18CHL1  H11B 1294   0.421   2.961   9.958  1.1297  2.5906 -0.9947
   18CHL1    C9 1295   0.286   3.098   9.856 -0.1030  0.1105 -0.2196
   18CHL1    H9 1296   0.378   3.161   9.853 -0.5176  0.9985  2.8490
   18CHL1   C10 1297   0.188   3.145   9.968 -0.1398  0.3050  0.2704
   18CHL1   C19 1298   0.082   3.034  10.002 -0.5434 -0.0154 -0.7411
   18CHL1  H19A 1299   0.132   2.943  10.043 -1.9695 -1.3225 -1.8032
   18CHL1  H19B 1300   0.012   3.071  10.080 -1.2725  0.5724 -1.6659
   18CHL1  H19C 1301   0.036   3.002   9.906 -1.6554  0.2058 -0.2887
   18CHL1    C1 1302   0.270   3.181  10.097 -0.3420  0.1211 -0.1417
   18CHL1   H1A 1303   0.314   3.090  10.142  1.3738  0.5398 -0.9184
   18CHL1   H1B 1304   0.359   3.239  10.068  1.4568 -2.3323  0.1962
   18CHL1    C2 1305   0.205   3.255  10.206  0.0267 -0.2497 -0.3949
   18CHL1   H2A 1306   0.273   3.294  10.285  1.8520 -1.1496 -1.4517
   18CHL1   H2B 1307   0.137   3.191  10.265  0.6251 -0.6083 -0.0833
   18CHL1   C20 1308   0.454   2.729   9.466 -0.0213  0.3536  0.6128
   18CHL1   H20 1309   0.364   2.667   9.485  0.1349  0.3465  1.3703
   18CHL1   C21 1310   0.557   2.671   9.560 -0.6591  0.2757 -0.6359
   18CHL1  H21A 1311   0.601   2.576   9.523  0.6025 -0.2529  1.9978
   18CHL1  H21B 1312   0.520   2.663   9.664 -3.4546  3.7888 -1.1539
   18CHL1  H21C 1313   0.644   2.741   9.551 -0.4362 -0.1260 -1.7664
   18CHL1   C22 1314   0.489   2.715   9.319 -0.3636  0.0363  0.4128
   18CHL1  H22A 1315   0.397   2.751   9.267 -1.1670 -2.4062  0.0143
   18CHL1  H22B 1316   0.570   2.786   9.294 -0.7952  0.6791  0.7908
   18CHL1   C23 1317   0.535   2.581   9.268 -0.1623  0.6495 -0.0400
   18CHL1  H23A 1318   0.563   2.596   9.161 -0.5042 -0.8368 -0.3596
   18CHL1  H23B 1319   0.623   2.547   9.327  0.7468 -0.0026 -1.6894
   18CHL1   C24 1320   0.414   2.477   9.264 -0.1884  0.1193 -0.1496
   18CHL1  H24A 1321   0.386   2.443   9.366 -1.5034 -4.1753 -1.7393
   18CHL1  H24B 1322   0.327   2.530   9.219 -3.3799 -0.8426  4.1094
   18CHL1   C25 1323   0.440   2.346   9.195  1.6646  0.2753  0.6456
   18CHL1   H25 1324   0.521   2.298   9.254  1.4176 -0.3724  0.4654
   18CHL1   C26 1325   0.315   2.255   9.202  0.1314  0.8249 -0.4508
   18CHL1  H26A 1326   0.335   2.156   9.156  1.1646  0.5735  0.4976
   18CHL1  H26B 1327   0.302   2.227   9.308  2.2723 -0.0105 -0.3682
   18CHL1  H26C 1328   0.226   2.303   9.155 -0.4105  0.1467 -0.1401
   18CHL1   C27 1329   0.479   2.361   9.053 -0.3047 -0.2071  0.5673
   18CHL1  H27A 1330   0.482   2.264   8.998  0.2478  0.4926 -0.6659
   18CHL1  H27B 1331   0.428   2.445   9.002  1.1814  1.1874  1.2845
   18CHL1  H27C 1332   0.586   2.391   9.057 -0.8794  2.1134 -0.2111
   19CHL1    C3 1333   3.057   5.417  10.127  0.5103  0.2131 -0.3895
   19CHL1    H3 1334   3.049   5.528  10.136  0.7502  0.1293  1.1327
   19CHL1    O3 1335   3.032   5.355  10.252  0.5140  0.3122  0.1084
   19CHL1   H3' 1336   2.990   5.270  10.238 -2.2951  1.6250 -0.2489
   19CHL1    C4 1337   2.948   5.368  10.026  0.2577  0.1841  0.1165
   19CHL1   H4A 1338   2.948   5.258  10.015 -1.4553  0.0962  0.7654
   19CHL1   H4B 1339   2.850   5.406  10.062  0.0209  0.2728 -0.6033
   19CHL1    C5 1340   2.983   5.424   9.890 -0.0195 -0.0562 -0.0811
   19CHL1    C6 1341   2.878   5.486   9.826 -0.1917  0.0670  0.6586
   19CHL1    H6 1342   2.779   5.494   9.872  0.1228  1.9209  1.0699
   19CHL1    C7 1343   2.892   5.549   9.693 -0.4739  0.2975 -0.2794
   19CHL1   H7A 1344   2.801   5.538   9.631  1.1457 -0.0507 -2.7013
   19CHL1   H7B 1345   2.920   5.655   9.712 -2.3114  0.3504  2.7199
   19CHL1    C8 1346   3.009   5.491   9.609  0.1904 -0.4046 -0.3720
   19CHL1    H8 1347   2.980   5.387   9.583 -0.0118  0.1913 -2.8895
   19CHL1   C14 1348   3.034   5.578   9.486 -0.3019 -0.3734 -0.1027
   19CHL1   H14 1349   3.075   5.677   9.514 -1.1177  0.3205 -1.3111
   19CHL1   C15 1350   2.912   5.614   9.393  0.3303 -0.0161 -0.1705
   19CHL1  H15A 1351   2.849   5.523   9.387 -0.3464  0.2821  1.6979
   19CHL1  H15B 1352   2.852   5.698   9.434  1.0922 -0.0513  1.0802
   19CHL1   C16 1353   2.975   5.652   9.255  0.7243  0.1604 -0.4557
   19CHL1  H16A 1354   2.912   5.605   9.175  1.8520 -0.5545 -0.9419
   19CHL1  H16B 1355   2.972   5.762   9.244  0.7022  0.4449  2.0409
   19CHL1   C17 1356   3.123   5.608   9.263 -0.4008  0.0286  0.0570
   19CHL1   H17 1357   3.177   5.695   9.307 -0.5611 -0.4315  1.2009
   19CHL1   C13 1358   3.133   5.514   9.386  0.0121  0.4544  0.5864
   19CHL1   C18 1359   3.090   5.371   9.344 -0.1217  0.1217  0.4641
   19CHL1  H18A 1360   2.984   5.376   9.310 -0.2151 -1.8738  0.3691
   19CHL1  H18B 1361   3.152   5.333   9.260  0.8429 -0.6855  1.5286
   19CHL1  H18C 1362   3.103   5.302   9.430  2.1044  0.7759  0.7035
   19CHL1   C12 1363   3.264   5.504   9.458  0.3702  0.8193  0.2181
   19CHL1  H12A 1364   3.335   5.442   9.400  0.4259  0.6919  0.4209
   19CHL1  H12B 1365   3.306   5.606   9.475 -0.6786  1.4474 -0.7683
   19CHL1   C11 1366   3.261   5.433   9.604  0.6309 -1.2128  0.3875
   19CHL1  H11A 1367   3.245   5.325   9.585  1.4446 -1.2160 -0.2977
   19CHL1  H11B 1368   3.356   5.458   9.654  0.8009 -2.5329  0.7516
   19CHL1    C9 1369   3.141   5.480   9.691 -0.8629  0.8865 -0.2507
   19CHL1    H9 1370   3.153   5.585   9.723 -3.6927  1.6182 -1.3148
   19CHL1   C10 1371   3.124   5.406   9.829 -0.3760  0.2159 -0.2101
   19CHL1   C19 1372   3.148   5.254   9.807 -0.4981  0.4052  0.4849
   19CHL1  H19A 1373   3.254   5.226   9.790 -0.6670 -0.7255  1.1999
   19CHL1  H19B 1374   3.121   5.199   9.900 -0.7854 -1.5267 -0.6868
   19CHL1  H19C 1375   3.095   5.215   9.718 -0.0001 -2.7854  1.4822
   19CHL1    C1 1376   3.222   5.456   9.941  0.3193 -0.0378  0.2770
   19CHL1   H1A 1377   3.324   5.421   9.915  1.2257  0.9520  2.3042
   19CHL1   H1B 1378   3.227   5.567   9.941 -0.1127 -0.0140 -0.1760
   19CHL1    C2 1379   3.201   5.399  10.084  0.0421  0.5712  0.2638
   19CHL1   H2A 1380   3.268   5.446  10.159  0.1387  1.9132 -0.6365
   19CHL1   H2B 1381   3.234   5.295  10.062 -0.4411  0.7353 -1.3676
   19CHL1   C20 1382   3.181   5.573   9.129 -0.3203  0.1383 -0.4858
   19CHL1   H20 1383   3.114   5.502   9.075 -1.3668  1.6034 -1.1699
   19CHL1   C21 1384   3.319   5.520   9.141  0.2208  0.4562 -0.4173
   19CHL1  H21A 1385   3.313   5.421   9.191 -1.8217  0.8625  0.2314
   19CHL1  H21B 1386   3.385   5.590   9.198 -0.5753  0.5606  0.4034
   19CHL1  H21C 1387   3.373   5.516   9.044 -1.0661  1.2602 -1.2027
   19CHL1   C22 1388   3.195   5.690   9.032  0.5419 -0.7260  0.4564
   19CHL1  H22A 1389   3.102   5.747   9.054  0.4681 -1.1466  1.2963
   19CHL1  H22B 1390   3.281   5.757   9.052 -0.2694  0.2236  0.8370
   19CHL1   C23 1391   3.201   5.640   8.884  0.4757  0.1380  0.1220
   19CHL1  H23A 1392   3.283   5.567   8.867 -0.3291 -1.1736  1.5851
   19CHL1  H23B 1393   3.106   5.583   8.870  0.8081 -0.3319 -0.2316
   19CHL1   C24 1394   3.206   5.755   8.775 -0.1391 -0.3419 -0.1605
   19CHL1  H24A 1395   3.114   5.818   8.781  0.1649  0.0927 -0.0638
   19CHL1  H24B 1396   3.293   5.814   8.807 -2.2037  2.3422  0.8651
   19CHL1   C25 1397   3.218   5.710   8.626  0.0633  0.1798 -0.3530
   19CHL1   H25 1398   3.294   5.632   8.607 -0.7405 -0.5406 -0.6914
   19CHL1   C26 1399   3.085   5.651   8.570 -0.3127 -0.4538  0.6767
   19CHL1  H26A 1400   3.065   5.549   8.611  0.5535 -1.5443 -1.4323
   19CHL1  H26B 1401   2.999   5.713   8.602  0.4094  0.5094  0.7819
   19CHL1  H26C 1402   3.084   5.632   8.461 -0.8160 -1.6964  0.8742
   19CHL1   C27 1403   3.259   5.823   8.537  0.7316 -0.4412 -0.1663
   19CHL1  H27A 1404   3.299   5.785   8.440 -1.0230 -2.0033 -0.3599
   19CHL1  H27B 1405   3.170   5.888   8.521  0.7005 -0.3542  0.3311
   19CHL1  H27C 1406   3.341   5.872   8.593  1.1011 -2.2099  0.9510
   20CHL1    C3 1407   4.538   0.953  10.399  0.6854  0.4417  0.2011
   20CHL1    H3 1408   4.432   0.925  10.385 -0.3574  4.8053 -2.3412
   20CHL1    O3 1409   4.570   0.999  10.525  0.2155  0.1088 -1.0196
   20CHL1   H3' 1410   4.657   1.039  10.524  0.2390  0.2350  1.3651
   20CHL1    C4 1411   4.630   0.837  10.363 -0.3793  0.3638 -0.0647
   20CHL1   H4A 1412   4.730   0.881  10.381 -0.8222  0.7858  1.5861
   20CHL1   H4B 1413   4.619   0.762  10.444  0.4804  1.1150  0.7709
   20CHL1    C5 1414   4.637   0.788  10.222  0.4754 -0.5657 -0.2772
   20CHL1    C6 1415   4.633   0.664  10.188  0.1355 -0.2263  0.4777
   20CHL1    H6 1416   4.622   0.578  10.256 -0.9324 -2.1130 -1.9090
   20CHL1    C7 1417   4.640   0.617  10.042  0.3415  0.3484  0.4826
   20CHL1   H7A 1418   4.720   0.541  10.040  1.3191  1.3456 -1.7413
   20CHL1   H7B 1419   4.543   0.571  10.013  0.7155 -0.3164  0.2697
   20CHL1    C8 1420   4.670   0.717   9.932 -0.0211 -0.1551  0.4847
   20CHL1    H8 1421   4.780   0.707   9.933 -0.1532 -2.1210  0.9617
   20CHL1   C14 1422   4.625   0.675   9.796  0.1401  0.3098  0.2255
   20CHL1   H14 1423   4.515   0.685   9.791  0.2198  1.3359 -4.4614
   20CHL1   C15 1424   4.656   0.528   9.752 -0.1467 -0.3229  0.0368
   20CHL1  H15A 1425   4.757   0.494   9.784  0.7461 -0.6676 -2.8171
   20CHL1  H15B 1426   4.578   0.458   9.789  0.2763 -1.1265 -0.5606
   20CHL1   C16 1427   4.638   0.530   9.600  0.0636  0.0992 -0.2258
   20CHL1  H16A 1428   4.735   0.499   9.556 -0.3210  0.2147 -1.1814
   20CHL1  H16B 1429   4.553   0.474   9.554  0.6336 -0.4050 -0.6876
   20CHL1   C17 1430   4.618   0.676   9.564 -0.0450  0.0953 -0.7916
   20CHL1   H17 1431   4.509   0.698   9.551 -0.4023 -1.6377 -1.0005
   20CHL1   C13 1432   4.668   0.767   9.682  0.5793  0.5248 -1.1504
   20CHL1   C18 1433   4.821   0.781   9.675 -0.2735  0.6475 -0.3216
   20CHL1  H18A 1434   4.875   0.685   9.661 -0.6585  0.4950 -0.7475
   20CHL1  H18B 1435   4.854   0.849   9.594 -0.2921  0.5315 -0.4253
   20CHL1  H18C 1436   4.862   0.830   9.767 -2.1239  0.4915  0.6388
   20CHL1   C12 1437   4.598   0.906   9.719  0.2719 -0.1962  0.5458
   20CHL1  H12A 1438   4.623   0.976   9.636 -0.4564 -2.3034 -1.5843
   20CHL1  H12B 1439   4.488   0.893   9.720  0.0030  1.6797  2.6487
   20CHL1   C11 1440   4.645   0.964   9.850  0.3184 -0.2115 -0.2898
   20CHL1  H11A 1441   4.755   0.981   9.851  0.5407 -1.5418 -0.1807
   20CHL1  H11B 1442   4.605   1.065   9.872  0.9545  0.0254 -0.2129
   20CHL1    C9 1443   4.613   0.860   9.966  0.4171  0.3762  0.2446
   20CHL1    H9 1444   4.503   0.852   9.961  0.5768 -2.0742 -1.0797
   20CHL1   C10 1445   4.644   0.904  10.114 -0.8690 -0.3398 -0.8381
   20CHL1   C19 1446   4.786   0.951  10.120 -0.2228 -0.0680 -0.1460
   20CHL1  H19A 1447   4.799   1.045  10.061  4.0572 -0.8085 -0.7283
   20CHL1  H19B 1448   4.817   0.980  10.222  2.2585 -0.4876 -0.7238
   20CHL1  H19C 1449   4.854   0.875  10.076  1.8971  1.9271 -0.4991
   20CHL1    C1 1450   4.557   1.025  10.154  0.1768 -0.0797 -0.0077
   20CHL1   H1A 1451   4.574   1.107  10.080 -1.7046 -1.7567 -2.4596
   20CHL1   H1B 1452   4.454   0.987  10.142  0.8023 -2.2284  1.0412
   20CHL1    C2 1453   4.562   1.074  10.303 -0.5549  0.6099 -0.0123
   20CHL1   H2A 1454   4.465   1.124  10.322 -0.9346 -0.3653  0.6657
   20CHL1   H2B 1455   4.651   1.137  10.326 -0.2034  0.0627  0.1301
   20CHL1   C20 1456   4.664   0.705   9.423 -0.4205 -0.1556  0.1980
   20CHL1   H20 1457   4.773   0.688   9.417 -0.6212 -1.2649 -0.5380
   20CHL1   C21 1458   4.641   0.858   9.396 -0.0393 -0.1475 -0.6672
   20CHL1  H21A 1459   4.674   0.872   9.291  2.2443 -2.8050 -0.4125
   20CHL1  H21B 1460   4.709   0.914   9.464 -2.2268 -1.6941  3.1013
   20CHL1  H21C 1461   4.534   0.886   9.407  0.1086  0.1339  0.1169
   20CHL1   C22 1462   4.589   0.624   9.315 -0.2296 -0.0250 -0.0773
   20CHL1  H22A 1463   4.594   0.518   9.346  0.6165  0.0009 -0.1137
   20CHL1  H22B 1464   4.482   0.657   9.312 -0.3979 -0.5465  0.0997
   20CHL1   C23 1465   4.644   0.638   9.168  0.4210 -0.3478 -0.4035
   20CHL1  H23A 1466   4.613   0.737   9.128  0.8413 -0.3888 -0.8354
   20CHL1  H23B 1467   4.754   0.639   9.177  0.4049 -0.1858 -0.2274
   20CHL1   C24 1468   4.588   0.521   9.077 -0.3951 -0.2221  0.4198
   20CHL1  H24A 1469   4.570   0.423   9.126 -1.3114  0.3949  1.3518
   20CHL1  H24B 1470   4.486   0.562   9.065 -1.0802 -1.0525  2.7698
   20CHL1   C25 1471   4.660   0.505   8.940 -0.0435 -0.5775 -0.1428
   20CHL1   H25 1472   4.591   0.434   8.889 -1.7523  1.8191 -1.3699
   20CHL1   C26 1473   4.657   0.630   8.859  0.7243  0.1484 -0.2828
   20CHL1  H26A 1474   4.557   0.677   8.870  0.7126  0.4790 -1.5956
   20CHL1  H26B 1475   4.727   0.705   8.902 -0.4195  2.0435 -1.5455
   20CHL1  H26C 1476   4.694   0.602   8.758  1.3158 -3.0397  0.6980
   20CHL1   C27 1477   4.807   0.453   8.943  0.6123  0.0513 -0.0304
   20CHL1  H27A 1478   4.862   0.456   8.846  1.8190 -0.7888  0.6094
   20CHL1  H27B 1479   4.867   0.513   9.015  1.0443 -0.0108 -0.3363
   20CHL1  H27C 1480   4.803   0.349   8.982 -0.8917 -0.0568 -0.3852
   21CHL1    C3 1481   3.854   4.449  10.059 -0.1076  0.8231 -0.4820
   21CHL1    H3 1482   3.798   4.545  10.058 -1.6013  0.0588  1.7673
   21CHL1    O3 1483   3.858   4.413  10.192  0.0697  0.1491 -0.2404
   21CHL1   H3' 1484   3.865   4.317  10.188  0.8905  0.2092 -0.4690
   21CHL1    C4 1485   3.788   4.331   9.976  0.0510  0.0919  0.0355
   21CHL1   H4A 1486   3.852   4.241   9.989  0.0376  0.3294  2.0072
   21CHL1   H4B 1487   3.694   4.301  10.027  0.7187 -1.4787  0.4033
   21CHL1    C5 1488   3.766   4.360   9.827 -0.1929 -1.1686  0.2353
   21CHL1    C6 1489   3.647   4.368   9.773  0.4391  0.1702 -0.1703
   21CHL1    H6 1490   3.561   4.348   9.839 -0.4000  1.6636 -0.7538
   21CHL1    C7 1491   3.629   4.399   9.626 -0.1575 -0.4676 -0.1677
   21CHL1   H7A 1492   3.559   4.325   9.581 -1.5767  0.0777  1.0756
   21CHL1   H7B 1493   3.584   4.501   9.626  0.4246 -0.2086  0.2695
   21CHL1    C8 1494   3.760   4.401   9.539 -0.5734 -0.6100 -0.0257
   21CHL1    H8 1495   3.767   4.297   9.499  2.3134 -0.5102  0.0157
   21CHL1   C14 1496   3.749   4.493   9.416  0.0373  0.0660  0.4720
   21CHL1   H14 1497   3.743   4.594   9.464  1.1902  0.4253 -0.1069
   21CHL1   C15 1498   3.627   4.479   9.316  0.6531  0.0544  0.5822
   21CHL1  H15A 1499   3.584   4.377   9.320  1.3734 -0.4329 -2.1212
   21CHL1  H15B 1500   3.554   4.547   9.364 -0.9220 -0.8810 -0.3923
   21CHL1   C16 1501   3.671   4.540   9.180  0.3827 -0.3797  0.5739
   21CHL1  H16A 1502   3.682   4.452   9.112  1.1736 -0.5377  0.8922
   21CHL1  H16B 1503   3.591   4.609   9.147 -0.5742 -2.1261 -0.9294
   21CHL1   C17 1504   3.814   4.595   9.208  0.9389 -0.3375  0.8221
   21CHL1   H17 1505   3.808   4.693   9.261 -1.2035 -1.0068  1.9257
   21CHL1   C13 1506   3.867   4.501   9.322  0.1809  0.4202  0.9074
   21CHL1   C18 1507   3.892   4.358   9.273 -0.4523  0.3596  0.3126
   21CHL1  H18A 1508   3.800   4.321   9.223 -1.2158 -1.1767  2.6673
   21CHL1  H18B 1509   3.978   4.357   9.203 -0.4071  0.4748  0.3679
   21CHL1  H18C 1510   3.910   4.294   9.362  0.3874  0.9397  0.5631
   21CHL1   C12 1511   3.978   4.550   9.408  0.4746  0.3827 -0.6904
   21CHL1  H12A 1512   4.070   4.555   9.346  0.1347 -0.7596 -1.3159
   21CHL1  H12B 1513   3.946   4.651   9.441  1.0364  0.1881  0.4936
   21CHL1   C11 1514   4.006   4.467   9.537 -0.1505 -0.4072  0.1762
   21CHL1  H11A 1515   4.035   4.364   9.504  1.4295  0.2324 -0.5161
   21CHL1  H11B 1516   4.093   4.505   9.593 -0.7332 -0.3516  1.0571
   21CHL1    C9 1517   3.880   4.452   9.619  0.6654  0.1860 -0.5066
   21CHL1    H9 1518   3.850   4.554   9.649  2.1745  0.9483 -1.4810
   21CHL1   C10 1519   3.902   4.390   9.755 -0.4028  0.0939  0.3039
   21CHL1   C19 1520   3.981   4.254   9.741 -0.5069  0.3288 -0.1775
   21CHL1  H19A 1521   4.077   4.269   9.687  0.9026 -1.3267  1.7012
   21CHL1  H19B 1522   4.011   4.213   9.839 -2.0363  1.2823  0.7232
   21CHL1  H19C 1523   3.919   4.179   9.688  0.3024 -0.9576  0.6441
   21CHL1    C1 1524   3.997   4.478   9.842 -0.0636 -0.1001  0.4274
   21CHL1   H1A 1525   4.101   4.475   9.803 -0.2786 -0.0766 -0.1537
   21CHL1   H1B 1526   3.955   4.581   9.841 -0.2525 -0.1774  0.3601
   21CHL1    C2 1527   3.996   4.461  10.002  0.0381  0.2869  0.1047
   21CHL1   H2A 1528   4.045   4.544  10.057 -1.7791  2.0926 -0.8377
   21CHL1   H2B 1529   4.046   4.366  10.029  0.1694 -0.1206 -1.4801
   21CHL1   C20 1530   3.909   4.609   9.085 -0.4390 -0.7567 -1.1260
   21CHL1   H20 1531   3.981   4.524   9.084  2.2374  1.2833  1.1307
   21CHL1   C21 1532   3.987   4.746   9.114 -0.6194  0.0067  0.0909
   21CHL1  H21A 1533   4.066   4.730   9.190  1.6631  1.0621 -1.9059
   21CHL1  H21B 1534   3.913   4.823   9.143 -1.9415 -1.0340 -0.4559
   21CHL1  H21C 1535   4.036   4.793   9.026 -1.6925  1.4049  0.2000
   21CHL1   C22 1536   3.835   4.612   8.953  0.0034  0.1917  0.0048
   21CHL1  H22A 1537   3.775   4.520   8.942 -1.8572  1.1196  1.7245
   21CHL1  H22B 1538   3.769   4.701   8.940 -1.4870 -0.9141 -0.3136
   21CHL1   C23 1539   3.940   4.607   8.827  0.0495  0.2328  0.1738
   21CHL1  H23A 1540   4.026   4.675   8.844 -0.8625  0.5012  5.1524
   21CHL1  H23B 1541   3.970   4.502   8.811 -1.1028 -0.0787 -0.0645
   21CHL1   C24 1542   3.868   4.666   8.699  0.3791  0.3445  0.4080
   21CHL1  H24A 1543   3.791   4.596   8.661  0.2237 -0.2990  1.8448
   21CHL1  H24B 1544   3.833   4.770   8.721  0.9268  0.1117  2.7099
   21CHL1   C25 1545   3.973   4.680   8.575  0.1849 -0.2756 -0.6170
   21CHL1   H25 1546   3.923   4.718   8.483 -0.0668 -1.5964 -1.0431
   21CHL1   C26 1547   4.081   4.781   8.615  0.5137  0.2133  0.5998
   21CHL1  H26A 1548   4.151   4.783   8.529  0.9139  2.0971  0.9228
   21CHL1  H26B 1549   4.032   4.879   8.635 -0.1679 -0.0186  0.0801
   21CHL1  H26C 1550   4.141   4.733   8.695 -1.9060  2.1605  3.8415
   21CHL1   C27 1551   4.034   4.548   8.535  0.2515 -0.6053 -0.1771
   21CHL1  H27A 1552   4.078   4.489   8.619 -1.1776 -1.1499  0.2167
   21CHL1  H27B 1553   3.959   4.476   8.497 -2.1486  1.1751  0.9377
   21CHL1  H27C 1554   4.107   4.576   8.457 -1.5584  3.6244 -0.6190
   22CHL1    C3 1555   3.968   4.932   9.935 -0.4669 -0.2922  1.0809
   22CHL1    H3 1556   3.883   4.874   9.893  0.3816 -0.7276 -0.1179
   22CHL1    O3 1557   3.986   4.888  10.071  0.3183  0.3532  0.4592
   22CHL1   H3' 1558   4.079   4.896  10.092  1.1128  0.3958 -2.6582
   22CHL1    C4 1559   4.098   4.899   9.862 -0.4585 -0.4355 -0.7457
   22CHL1   H4A 1560   4.170   4.947   9.931 -0.4075 -1.0445 -0.3690
   22CHL1   H4B 1561   4.113   4.789   9.873 -2.0902 -0.5473  0.8375
   22CHL1    C5 1562   4.104   4.948   9.723 -0.0256  0.1439  0.7261
   22CHL1    C6 1563   4.119   4.873   9.614  0.3933 -0.5023 -0.5038
   22CHL1    H6 1564   4.141   4.766   9.629  0.0721 -0.5897 -0.6489
   22CHL1    C7 1565   4.131   4.923   9.475  0.1195  0.0408  0.0874
   22CHL1   H7A 1566   4.223   4.874   9.435 -0.4946 -2.9002  1.9672
   22CHL1   H7B 1567   4.035   4.893   9.427  0.2471 -0.1161 -0.0722
   22CHL1    C8 1568   4.146   5.074   9.457 -1.1953  0.0239  0.5183
   22CHL1    H8 1569   4.247   5.108   9.487 -0.4509 -1.2545 -0.4213
   22CHL1   C14 1570   4.113   5.121   9.314  0.5519  0.4707 -0.1833
   22CHL1   H14 1571   4.008   5.087   9.299  0.8934 -1.4374  1.3760
   22CHL1   C15 1572   4.186   5.064   9.191 -0.3866  0.1746  0.1594
   22CHL1  H15A 1573   4.292   5.070   9.224 -0.1996  2.2548 -0.6370
   22CHL1  H15B 1574   4.165   4.959   9.162 -0.3371  0.2069  0.0052
   22CHL1   C16 1575   4.160   5.160   9.073  0.1443  0.0141 -0.5152
   22CHL1  H16A 1576   4.256   5.176   9.021  1.0633 -0.1886  1.0681
   22CHL1  H16B 1577   4.092   5.109   9.001 -0.5252 -1.5986  1.1823
   22CHL1   C17 1578   4.100   5.292   9.137 -0.3973  1.2576  0.3678
   22CHL1   H17 1579   3.991   5.291   9.116 -0.8059 -0.3311  2.3354
   22CHL1   C13 1580   4.123   5.273   9.292 -1.1287  0.7348 -0.2277
   22CHL1   C18 1581   4.278   5.309   9.330  0.4404  0.2748  0.4230
   22CHL1  H18A 1582   4.313   5.296   9.435 -0.0072 -0.5490  0.4829
   22CHL1  H18B 1583   4.350   5.265   9.258  1.1275  0.3281  1.0661
   22CHL1  H18C 1584   4.286   5.419   9.323 -1.5498  0.4544  0.3863
   22CHL1   C12 1585   4.030   5.340   9.387  0.3362  0.3861 -0.3526
   22CHL1  H12A 1586   4.040   5.450   9.399  0.3538  0.2669  0.8807
   22CHL1  H12B 1587   3.929   5.310   9.351  1.2916 -1.1889 -1.8591
   22CHL1   C11 1588   4.044   5.291   9.533 -0.5843 -1.0637 -0.1259
   22CHL1  H11A 1589   4.133   5.338   9.580 -2.3863  3.0887 -0.3626
   22CHL1  H11B 1590   3.963   5.344   9.587 -0.4897  1.2039 -2.0602
   22CHL1    C9 1591   4.052   5.135   9.561 -0.0746  0.4898 -0.3074
   22CHL1    H9 1592   3.949   5.100   9.538  0.4583 -1.2381 -0.1887
   22CHL1   C10 1593   4.071   5.102   9.707 -0.6887  0.5281 -0.7209
   22CHL1   C19 1594   4.190   5.185   9.766 -0.6151 -0.4229 -0.0324
   22CHL1  H19A 1595   4.150   5.288   9.774  0.8391  0.1293  0.3224
   22CHL1  H19B 1596   4.204   5.156   9.872 -2.8404 -0.8599  0.1845
   22CHL1  H19C 1597   4.274   5.188   9.694  0.0092 -0.7124  0.6699
   22CHL1    C1 1598   3.941   5.122   9.780 -0.0384 -0.2751 -0.2618
   22CHL1   H1A 1599   3.902   5.226   9.774 -0.0375 -0.2138  0.7124
   22CHL1   H1B 1600   3.864   5.055   9.734 -0.1954 -2.0001  2.3421
   22CHL1    C2 1601   3.951   5.084   9.928  1.1082  0.2651 -0.3446
   22CHL1   H2A 1602   3.854   5.100   9.980  1.9945  0.5670  1.2826
   22CHL1   H2B 1603   4.029   5.129   9.992  1.7173 -0.7050 -0.3919
   22CHL1   C20 1604   4.163   5.415   9.078 -0.2875 -0.0591  0.9602
   22CHL1   H20 1605   4.269   5.412   9.109 -0.1485 -2.9338  0.5109
   22CHL1   C21 1606   4.090   5.541   9.128 -0.5228 -0.3656  0.1464
   22CHL1  H21A 1607   3.980   5.524   9.132 -1.0375  2.5675  0.9428
   22CHL1  H21B 1608   4.105   5.637   9.074 -4.0504  1.4049  1.9749
   22CHL1  H21C 1609   4.114   5.551   9.235 -0.5888  1.6700 -0.0014
   22CHL1   C22 1610   4.176   5.419   8.924 -0.4064 -0.0545  1.0588
   22CHL1  H22A 1611   4.199   5.323   8.873 -0.2808 -0.5482  2.0338
   22CHL1  H22B 1612   4.074   5.448   8.891 -0.1732 -0.3683  0.0116
   22CHL1   C23 1613   4.272   5.530   8.875 -0.5254  0.2030  0.2887
   22CHL1  H23A 1614   4.298   5.607   8.950  3.2272 -2.5257  2.1098
   22CHL1  H23B 1615   4.371   5.485   8.851 -1.1875 -0.8339 -0.6167
   22CHL1   C24 1616   4.219   5.578   8.732 -0.5585  0.0892  0.0316
   22CHL1  H24A 1617   4.235   5.486   8.673 -2.2249  1.0185 -1.9933
   22CHL1  H24B 1618   4.110   5.598   8.738 -0.4242  1.1587 -0.7540
   22CHL1   C25 1619   4.291   5.703   8.677  0.1262  0.0223 -0.9684
   22CHL1   H25 1620   4.286   5.776   8.761  0.5963 -0.2997 -0.6598
   22CHL1   C26 1621   4.432   5.656   8.643  0.0451  0.0358  0.0958
   22CHL1  H26A 1622   4.433   5.593   8.552 -0.7487  1.7963 -1.1912
   22CHL1  H26B 1623   4.493   5.745   8.613 -1.8360  1.1870 -0.4818
   22CHL1  H26C 1624   4.477   5.604   8.730 -0.6962 -2.4956 -0.9634
   22CHL1   C27 1625   4.225   5.777   8.553 -0.3367 -0.0509 -0.4357
   22CHL1  H27A 1626   4.118   5.799   8.576 -0.6573 -0.8404 -1.0810
   22CHL1  H27B 1627   4.291   5.860   8.520  1.7773 -1.1847  0.7885
   22CHL1  H27C 1628   4.221   5.696   8.477  0.3400  0.8020 -1.4028
   23CHL1    C3 1629   1.523   4.099  10.176 -0.8016  0.1381 -1.1248
   23CHL1    H3 1630   1.605   4.167  10.145 -0.1913  0.9158  1.8599
   23CHL1    O3 1631   1.511   4.115  10.324 -0.1303  0.1421  0.1216
   23CHL1   H3' 1632   1.424   4.087  10.352 -0.9624  2.8674  0.5416
   23CHL1    C4 1633   1.398   4.139  10.106  0.9016 -0.7583 -0.3111
   23CHL1   H4A 1634   1.314   4.076  10.142 -1.3052  2.7744  1.3158
   23CHL1   H4B 1635   1.363   4.237  10.146 -2.4950 -1.9541 -0.0754
   23CHL1    C5 1636   1.410   4.139   9.957  0.0773  0.1929  0.1512
   23CHL1    C6 1637   1.378   4.250   9.886 -0.6092  0.1472  0.9376
   23CHL1    H6 1638   1.355   4.348   9.930  0.2724  2.6501 -3.5518
   23CHL1    C7 1639   1.386   4.250   9.734 -0.1741 -0.0657 -1.0069
   23CHL1   H7A 1640   1.300   4.300   9.685  0.3971  0.4170 -1.5321
   23CHL1   H7B 1641   1.480   4.302   9.708 -0.9441  1.4979 -0.7534
   23CHL1    C8 1642   1.384   4.105   9.676  0.8048 -0.3905 -0.9490
   23CHL1    H8 1643   1.283   4.062   9.690  1.0745 -0.8393 -0.3279
   23CHL1   C14 1644   1.428   4.115   9.535 -1.3084  0.3726  0.0272
   23CHL1   H14 1645   1.528   4.161   9.546  0.2526 -2.5966 -0.6579
   23CHL1   C15 1646   1.353   4.204   9.436  0.8570  0.1327  0.2840
   23CHL1  H15A 1647   1.243   4.187   9.441  1.0545 -1.5900 -0.6509
   23CHL1  H15B 1648   1.367   4.313   9.452 -1.4586  0.5033  0.2492
   23CHL1   C16 1649   1.420   4.170   9.300 -0.1850 -0.4844  0.1477
   23CHL1  H16A 1650   1.344   4.180   9.220 -1.4683  1.4845  1.5227
   23CHL1  H16B 1651   1.506   4.238   9.282  1.2329 -2.0902  0.6009
   23CHL1   C17 1652   1.484   4.024   9.313 -0.0187 -0.3136  0.1748
   23CHL1   H17 1653   1.595   4.037   9.311  0.1766 -1.8648 -0.6209
   23CHL1   C13 1654   1.451   3.980   9.462  0.3653 -0.8035 -0.1042
   23CHL1   C18 1655   1.315   3.903   9.458  0.1013  0.7084 -0.6154
   23CHL1  H18A 1656   1.246   3.970   9.403 -1.4502  0.1783  0.5876
   23CHL1  H18B 1657   1.321   3.804   9.409  1.2310  0.2233  0.4466
   23CHL1  H18C 1658   1.281   3.895   9.564 -0.2720  1.4070 -0.6734
   23CHL1   C12 1659   1.562   3.901   9.534  0.1472  0.1085  0.3147
   23CHL1  H12A 1660   1.568   3.802   9.482  3.0637  0.5273 -0.2787
   23CHL1  H12B 1661   1.665   3.941   9.531 -0.0594  0.7354  1.4207
   23CHL1   C11 1662   1.521   3.885   9.685  0.3848  1.3162 -0.2717
   23CHL1  H11A 1663   1.439   3.810   9.683  0.1010  1.6266 -0.3920
   23CHL1  H11B 1664   1.609   3.838   9.733  0.0788  1.2183  0.1962
   23CHL1    C9 1665   1.484   4.016   9.753  0.0389  0.4363 -0.3721
   23CHL1    H9 1666   1.581   4.070   9.756  1.6160 -2.2049  2.3687
   23CHL1   C10 1667   1.450   3.999   9.902 -0.2266 -0.1288 -0.2370
   23CHL1   C19 1668   1.340   3.893   9.919  0.3810  0.1335  0.6030
   23CHL1  H19A 1669   1.378   3.789   9.909  2.6825  0.9697 -0.0405
   23CHL1  H19B 1670   1.285   3.905  10.015 -2.6198  1.0331 -1.0643
   23CHL1  H19C 1671   1.256   3.901   9.846  0.6107 -0.0549  0.3158
   23CHL1    C1 1672   1.578   3.956   9.979 -0.0119  0.3666  0.3255
   23CHL1   H1A 1673   1.610   3.853   9.953  0.3761  1.1243 -2.4919
   23CHL1   H1B 1674   1.663   4.023   9.954  0.1627  0.7671  1.8824
   23CHL1    C2 1675   1.566   3.960  10.132 -0.8782  0.3728  0.4055
   23CHL1   H2A 1676   1.661   3.923  10.176  0.2826  1.6383 -0.9571
   23CHL1   H2B 1677   1.493   3.881  10.163  0.6724 -1.5088 -0.5352
   23CHL1   C20 1678   1.458   3.930   9.199  0.3858  0.7761  0.6975
   23CHL1   H20 1679   1.349   3.912   9.189  0.7426 -2.2449  1.1023
   23CHL1   C21 1680   1.525   3.792   9.218 -0.3773 -0.2596 -0.4189
   23CHL1  H21A 1681   1.505   3.716   9.139 -0.9418 -2.0378  1.3697
   23CHL1  H21B 1682   1.480   3.744   9.307  0.4157 -1.2456 -0.5313
   23CHL1  H21C 1683   1.632   3.817   9.238 -0.8630  2.7324 -1.0901
   23CHL1   C22 1684   1.491   4.000   9.066 -0.0493  0.2137 -0.8480
   23CHL1  H22A 1685   1.419   4.083   9.050  1.8031  2.2222  0.7731
   23CHL1  H22B 1686   1.593   4.043   9.073  0.3264 -0.9294  2.0208
   23CHL1   C23 1687   1.476   3.915   8.940 -0.3563 -0.3391  0.0527
   23CHL1  H23A 1688   1.531   3.819   8.952  0.0335 -0.3271 -1.4596
   23CHL1  H23B 1689   1.369   3.895   8.915 -0.2234 -0.4618 -0.4367
   23CHL1   C24 1690   1.548   3.984   8.825 -0.2650 -0.4777 -0.0750
   23CHL1  H24A 1691   1.495   4.080   8.807  0.3081 -0.4282 -1.7889
   23CHL1  H24B 1692   1.654   4.012   8.845 -0.1713  0.0014 -1.1510
   23CHL1   C25 1693   1.547   3.893   8.691 -0.0949  0.0911  0.5540
   23CHL1   H25 1694   1.601   3.801   8.721  0.7294  0.4601  0.2186
   23CHL1   C26 1695   1.405   3.840   8.649 -0.9906 -0.2844  0.7440
   23CHL1  H26A 1696   1.379   3.759   8.721 -0.3645 -1.8808 -0.7286
   23CHL1  H26B 1697   1.327   3.917   8.661 -0.4289  0.3282  0.5302
   23CHL1  H26C 1698   1.413   3.797   8.546 -0.5801 -0.6283  0.9121
   23CHL1   C27 1699   1.611   3.960   8.577  0.3250  0.0791 -0.7187
   23CHL1  H27A 1700   1.722   3.967   8.584  0.2806  0.7621 -0.6271
   23CHL1  H27B 1701   1.591   3.907   8.482  2.0996  1.2879 -1.8377
   23CHL1  H27C 1702   1.573   4.063   8.562 -0.1720 -0.2470 -1.7632
   24CHL1    C3 1703   2.433   5.279  10.206  0.4114 -0.3722  0.0202
   24CHL1    H3 1704   2.415   5.170  10.213 -1.2990 -0.0675  0.9208
   24CHL1    O3 1705   2.450   5.330  10.338 -0.5370  0.5713 -0.6463
   24CHL1   H3' 1706   2.462   5.425  10.335  2.9338  0.3011  0.3998
   24CHL1    C4 1707   2.562   5.306  10.123  0.0994  0.0037 -1.0076
   24CHL1   H4A 1708   2.600   5.402  10.162 -1.1149 -0.0725  0.4243
   24CHL1   H4B 1709   2.642   5.236  10.156  1.2339  0.7414 -2.0963
   24CHL1    C5 1710   2.544   5.282   9.977  0.0413  0.0938  0.8207
   24CHL1    C6 1711   2.629   5.207   9.903 -0.0915  0.5770 -0.5692
   24CHL1    H6 1712   2.707   5.154   9.959  0.9640 -0.6823 -3.0446
   24CHL1    C7 1713   2.631   5.200   9.749  0.0702  0.6740  0.1145
   24CHL1   H7A 1714   2.728   5.217   9.697  0.0159 -0.1781 -0.2711
   24CHL1   H7B 1715   2.592   5.100   9.722 -0.4978  0.7892  0.4911
   24CHL1    C8 1716   2.539   5.311   9.690  0.2110 -0.4288 -0.1947
   24CHL1    H8 1717   2.597   5.405   9.703  3.0805 -2.0100 -0.8208
   24CHL1   C14 1718   2.522   5.288   9.542 -0.8869  0.0145  0.2521
   24CHL1   H14 1719   2.459   5.196   9.536 -1.2730  0.3437 -1.3917
   24CHL1   C15 1720   2.650   5.275   9.452 -0.4059 -0.1657 -0.7505
   24CHL1  H15A 1721   2.734   5.342   9.481  0.5681 -1.8407  0.5366
   24CHL1  H15B 1722   2.683   5.169   9.462 -1.2398 -0.2082  2.8458
   24CHL1   C16 1723   2.601   5.317   9.315 -0.6272 -0.4660 -0.2749
   24CHL1  H16A 1724   2.665   5.403   9.286  0.2466 -0.3985  1.6989
   24CHL1  H16B 1725   2.618   5.237   9.241 -0.8729  0.9468 -1.9168
   24CHL1   C17 1726   2.456   5.356   9.324 -0.2231  0.1262 -0.5914
   24CHL1   H17 1727   2.394   5.268   9.296 -0.5363  0.1272  0.0719
   24CHL1   C13 1728   2.437   5.393   9.472 -0.5638  0.0047 -0.1371
   24CHL1   C18 1729   2.508   5.537   9.491  0.2303  0.7489 -0.2030
   24CHL1  H18A 1730   2.435   5.619   9.473 -1.4001 -0.2111  1.6764
   24CHL1  H18B 1731   2.540   5.552   9.596  0.8381 -0.2121 -0.2451
   24CHL1  H18C 1732   2.601   5.554   9.433  0.7734  0.9804  0.7085
   24CHL1   C12 1733   2.296   5.392   9.531 -0.1727 -0.4698  0.0588
   24CHL1  H12A 1734   2.227   5.466   9.486  0.2211 -1.9817 -3.3532
   24CHL1  H12B 1735   2.246   5.296   9.507  0.7434 -0.8638 -0.3232
   24CHL1   C11 1736   2.296   5.395   9.682  0.0464 -0.5985 -0.7998
   24CHL1  H11A 1737   2.301   5.505   9.697  0.1296 -0.4799 -1.6433
   24CHL1  H11B 1738   2.196   5.365   9.720  0.7360  0.0303  1.6896
   24CHL1    C9 1739   2.404   5.318   9.759  0.4368  0.5431  0.7992
   24CHL1    H9 1740   2.372   5.211   9.760  4.0421 -0.6629  0.6703
   24CHL1   C10 1741   2.415   5.353   9.914 -0.2134  0.2697 -0.5522
   24CHL1   C19 1742   2.436   5.506   9.929  0.3978 -0.0451 -0.9777
   24CHL1  H19A 1743   2.345   5.566   9.906 -0.5503 -0.3203  1.7200
   24CHL1  H19B 1744   2.473   5.532  10.030 -0.2824  0.6687 -0.9005
   24CHL1  H19C 1745   2.519   5.529   9.860  0.8944 -0.5197 -0.5433
   24CHL1    C1 1746   2.290   5.311   9.995 -0.3067  0.4617  0.0363
   24CHL1   H1A 1747   2.197   5.351   9.950  0.1501 -0.3124 -1.6747
   24CHL1   H1B 1748   2.283   5.201   9.983 -0.2195  0.3716  0.7281
   24CHL1    C2 1749   2.302   5.334  10.147  0.2222  0.2867 -0.2099
   24CHL1   H2A 1750   2.213   5.295  10.202  1.5851  0.2824  2.1055
   24CHL1   H2B 1751   2.311   5.438  10.185 -1.3355 -0.7275  3.3819
   24CHL1   C20 1752   2.423   5.452   9.214 -0.7201  0.3913  0.5745
   24CHL1   H20 1753   2.480   5.546   9.230 -0.4505  0.2176  0.6339
   24CHL1   C21 1754   2.271   5.475   9.225 -0.5266 -0.0721  0.3491
   24CHL1  H21A 1755   2.223   5.521   9.137  1.9800 -0.2626 -1.2184
   24CHL1  H21B 1756   2.257   5.551   9.304  0.5071  1.6068 -1.0119
   24CHL1  H21C 1757   2.207   5.391   9.260 -0.9843 -0.3602 -1.1048
   24CHL1   C22 1758   2.468   5.417   9.070 -0.4424  0.2603  1.3447
   24CHL1  H22A 1759   2.446   5.511   9.017 -1.8329 -0.1176  1.2092
   24CHL1  H22B 1760   2.577   5.405   9.055 -0.7935 -1.2324 -0.5068
   24CHL1   C23 1761   2.401   5.292   9.003 -0.4093  0.3532 -0.0120
   24CHL1  H23A 1762   2.432   5.204   9.064 -0.1096  0.3060 -0.2309
   24CHL1  H23B 1763   2.291   5.299   9.017 -0.5970 -0.5536 -0.8551
   24CHL1   C24 1764   2.434   5.263   8.850 -0.4558 -0.2868 -0.1352
   24CHL1  H24A 1765   2.391   5.352   8.798  1.2375  0.4658 -0.2962
   24CHL1  H24B 1766   2.544   5.254   8.844 -0.4966 -0.4196 -0.8364
   24CHL1   C25 1767   2.359   5.141   8.792 -1.0672  0.3795  0.6706
   24CHL1   H25 1768   2.254   5.137   8.829 -1.4572 -1.0949 -0.5344
   24CHL1   C26 1769   2.344   5.163   8.641  0.4060  0.7439  0.3074
   24CHL1  H26A 1770   2.341   5.064   8.591  1.4209  1.7252 -1.8198
   24CHL1  H26B 1771   2.259   5.230   8.615  0.4185  0.2543 -1.0669
   24CHL1  H26C 1772   2.440   5.207   8.607  1.5528 -2.5063 -1.0326
   24CHL1   C27 1773   2.421   5.007   8.831  0.2536 -0.5693 -0.1986
   24CHL1  H27A 1774   2.528   5.016   8.804  0.1607  0.6499 -0.2083
   24CHL1  H27B 1775   2.415   5.001   8.942  2.1028 -0.8266 -0.0837
   24CHL1  H27C 1776   2.370   4.921   8.782 -0.3493 -1.0666  1.2475
   25CHL1    C3 1777   1.093   1.093  10.310 -0.2502  0.6493  0.1975
   25CHL1    H3 1778   0.993   1.132  10.279  0.6688  2.4395 -0.7276
   25CHL1    O3 1779   1.101   1.096  10.450  0.0882 -0.1317 -0.2135
   25CHL1   H3' 1780   1.195   1.085  10.468  0.5961 -0.6356 -2.7525
   25CHL1    C4 1781   1.110   0.954  10.248 -0.2960  0.7727  0.2615
   25CHL1   H4A 1782   1.212   0.921  10.277  0.0787  1.1374 -0.6312
   25CHL1   H4B 1783   1.034   0.895  10.304 -0.0703  2.4636  2.4948
   25CHL1    C5 1784   1.085   0.966  10.100 -0.0737  0.1039 -0.3889
   25CHL1    C6 1785   0.978   0.902  10.054 -0.1682  0.2850 -0.1429
   25CHL1    H6 1786   0.919   0.833  10.116 -1.5090 -1.6365 -3.3561
   25CHL1    C7 1787   0.941   0.888   9.911 -0.9277 -0.0607 -0.7746
   25CHL1   H7A 1788   0.917   0.783   9.881  0.7497 -0.4412 -0.9350
   25CHL1   H7B 1789   0.850   0.950   9.904  0.8438  2.5924 -1.9683
   25CHL1    C8 1790   1.057   0.946   9.827 -0.6474 -0.1407 -0.1836
   25CHL1    H8 1791   1.139   0.873   9.839 -0.4828  0.2914  1.5988
   25CHL1   C14 1792   1.017   0.974   9.686 -0.2309 -0.2629  0.6893
   25CHL1   H14 1793   0.946   1.060   9.684  0.7069  0.5591  1.6187
   25CHL1   C15 1794   0.948   0.854   9.610  0.3011  0.7406 -0.1326
   25CHL1  H15A 1795   0.998   0.755   9.622  1.2513  1.1832 -0.3546
   25CHL1  H15B 1796   0.849   0.840   9.659  1.0559 -0.6849  1.0760
   25CHL1   C16 1797   0.956   0.894   9.464 -0.3088  0.1697  0.0602
   25CHL1  H16A 1798   1.012   0.808   9.422 -0.3057  0.2388 -0.0758
   25CHL1  H16B 1799   0.858   0.912   9.414 -1.0673 -0.6441  1.1948
   25CHL1   C17 1800   1.044   1.019   9.459 -0.7960 -0.7143 -0.0963
   25CHL1   H17 1801   0.976   1.107   9.471  0.1635  0.0120  0.1261
   25CHL1   C13 1802   1.124   1.019   9.593  0.4979  0.5272 -0.0597
   25CHL1   C18 1803   1.244   0.914   9.594 -0.0064 -1.1094 -0.0513
   25CHL1  H18A 1804   1.213   0.811   9.563 -0.9357 -2.1836  3.9089
   25CHL1  H18B 1805   1.321   0.952   9.524  0.0911 -2.5453 -0.7728
   25CHL1  H18C 1806   1.289   0.908   9.695  1.1790 -0.2585 -0.5176
   25CHL1   C12 1807   1.181   1.161   9.635  0.1328  0.1656  0.2717
   25CHL1  H12A 1808   1.272   1.178   9.573  0.3475 -2.9075 -0.4239
   25CHL1  H12B 1809   1.107   1.243   9.630  0.2529  0.6432  3.7611
   25CHL1   C11 1810   1.212   1.154   9.787 -0.5709  0.3878 -0.3629
   25CHL1  H11A 1811   1.305   1.094   9.789 -1.5578 -1.1786  1.3703
   25CHL1  H11B 1812   1.234   1.259   9.817 -0.2334  0.1331  0.3013
   25CHL1    C9 1813   1.112   1.083   9.885  0.0391  0.1317  0.5245
   25CHL1    H9 1814   1.020   1.144   9.885  0.2752  0.4912  0.3283
   25CHL1   C10 1815   1.175   1.066  10.029  0.3899  0.0681  1.1128
   25CHL1   C19 1816   1.318   1.014  10.022  0.0981  0.8209 -0.1458
   25CHL1  H19A 1817   1.344   0.978  10.124 -0.3843  0.8011 -0.0245
   25CHL1  H19B 1818   1.330   0.935   9.946  2.2869  1.7595 -0.8664
   25CHL1  H19C 1819   1.390   1.096   9.998  1.9939 -0.6709  0.2272
   25CHL1    C1 1820   1.161   1.205  10.099 -0.1400  0.1164  0.0830
   25CHL1   H1A 1821   1.223   1.278  10.043  1.4837  1.8442  3.7814
   25CHL1   H1B 1822   1.055   1.237  10.089  0.0051  0.2239 -1.1892
   25CHL1    C2 1823   1.188   1.195  10.248  0.1803  0.3705  0.1919
   25CHL1   H2A 1824   1.170   1.296  10.291  2.3850  0.7292  0.3806
   25CHL1   H2B 1825   1.291   1.169  10.279 -0.8042 -1.6409  2.0740
   25CHL1   C20 1826   1.116   1.032   9.325  0.4807  0.3160  0.0033
   25CHL1   H20 1827   1.174   0.937   9.313  0.6956  0.4983 -0.4464
   25CHL1   C21 1828   1.226   1.142   9.325  0.5596 -0.3694  0.7853
   25CHL1  H21A 1829   1.308   1.115   9.395  0.5496  0.7887  1.2642
   25CHL1  H21B 1830   1.191   1.245   9.348  0.4341  0.3592 -2.3379
   25CHL1  H21C 1831   1.278   1.149   9.227  0.1234 -0.4664  0.5446
   25CHL1   C22 1832   1.015   1.061   9.214 -0.0717  0.1423  0.2780
   25CHL1  H22A 1833   0.938   0.981   9.209  0.7016 -0.6414  0.6713
   25CHL1  H22B 1834   0.959   1.154   9.237 -0.6568 -0.4553  1.3629
   25CHL1   C23 1835   1.078   1.075   9.073 -0.1935  0.0766 -0.4308
   25CHL1  H23A 1836   1.138   1.168   9.066 -0.7678  0.3391 -2.2396
   25CHL1  H23B 1837   1.140   0.983   9.061 -1.3301 -0.9473  1.1362
   25CHL1   C24 1838   0.976   1.076   8.958 -0.1480  0.3474 -0.1531
   25CHL1  H24A 1839   0.947   0.975   8.921 -1.7242  1.3596 -1.8589
   25CHL1  H24B 1840   0.884   1.127   8.992 -0.8144  0.5932 -2.1504
   25CHL1   C25 1841   1.038   1.137   8.828  0.1185 -0.3573  0.5395
   25CHL1   H25 1842   1.063   1.245   8.841  0.5060 -0.0812 -1.9112
   25CHL1   C26 1843   1.169   1.061   8.782  0.3183 -0.0742 -0.2515
   25CHL1  H26A 1844   1.132   0.961   8.753  1.1104  0.1369 -2.1250
   25CHL1  H26B 1845   1.217   1.118   8.699  2.0632  0.8196  1.2802
   25CHL1  H26C 1846   1.246   1.059   8.863 -1.4944  1.0884  1.6095
   25CHL1   C27 1847   0.931   1.128   8.721  0.4653 -0.2638 -0.5834
   25CHL1  H27A 1848   0.846   1.192   8.755 -0.1649 -0.2537 -2.1228
   25CHL1  H27B 1849   0.966   1.185   8.633 -1.0431  1.1324 -0.3320
   25CHL1  H27C 1850   0.900   1.025   8.693  1.5618 -0.7582 -0.0476
   26CHL1    C3 1851   5.839   5.917  10.195  0.2656  0.5331  0.7726
   26CHL1    H3 1852   5.888   5.820  10.175 -1.6210 -0.3716  0.3666
   26CHL1    O3 1853   5.823   5.922  10.332  0.4237  0.2565  0.1491
   26CHL1   H3' 1854   5.787   6.010  10.346 -1.7283 -0.4839 -0.3192
   26CHL1    C4 1855   5.924   6.038  10.139 -0.7238 -0.3241  0.8279
   26CHL1   H4A 1856   5.868   6.133  10.156  0.9709  1.0941 -1.0079
   26CHL1   H4B 1857   6.023   6.035  10.190  0.6105  0.3982 -1.5315
   26CHL1    C5 1858   5.950   6.037   9.986  0.8178 -0.5867  0.8208
   26CHL1    C6 1859   6.073   6.037   9.928  0.0602  0.5053  0.9022
   26CHL1    H6 1860   6.160   6.055   9.993  0.7696  1.6575 -0.3057
   26CHL1    C7 1861   6.097   6.039   9.775 -0.1282 -0.0428  0.4704
   26CHL1   H7A 1862   6.164   6.121   9.739 -0.0847 -1.0059 -1.8429
   26CHL1   H7B 1863   6.143   5.941   9.750 -0.4082 -0.6206  2.1142
   26CHL1    C8 1864   5.963   6.056   9.702 -0.4033  0.0855 -0.0790
   26CHL1    H8 1865   5.949   6.166   9.712 -1.7869 -0.0319 -0.4678
   26CHL1   C14 1866   5.981   6.023   9.549 -1.0983  0.0191 -0.1956
   26CHL1   H14 1867   5.997   5.914   9.534 -1.6567 -0.6973  3.3666
   26CHL1   C15 1868   6.087   6.096   9.473 -0.6509  0.0143  0.8612
   26CHL1  H15A 1869   6.114   6.199   9.504 -1.6263  0.8214 -0.8070
   26CHL1  H15B 1870   6.176   6.030   9.465 -0.8411 -0.2248  0.6833
   26CHL1   C16 1871   6.035   6.112   9.326  0.2151  0.6824 -0.6862
   26CHL1  H16A 1872   6.003   6.218   9.313 -0.1120  0.7321  0.3752
   26CHL1  H16B 1873   6.100   6.071   9.247 -0.5260  0.7048 -1.3185
   26CHL1   C17 1874   5.899   6.033   9.330  0.7199 -0.5768 -0.0700
   26CHL1   H17 1875   5.913   5.923   9.318  1.0207 -0.6020  0.4945
   26CHL1   C13 1876   5.848   6.054   9.478 -0.3516  0.3371 -0.5192
   26CHL1   C18 1877   5.805   6.202   9.487 -0.2210 -0.4892 -0.3339
   26CHL1  H18A 1878   5.716   6.212   9.421 -1.6518 -1.5883  1.3391
   26CHL1  H18B 1879   5.774   6.236   9.588 -1.7618 -0.6796 -0.7266
   26CHL1  H18C 1880   5.895   6.259   9.454 -0.1600 -1.3210 -1.6998
   26CHL1   C12 1881   5.743   5.952   9.520 -0.5039 -0.1226  0.5307
   26CHL1  H12A 1882   5.644   5.980   9.477 -0.6604 -2.3504 -0.6891
   26CHL1  H12B 1883   5.772   5.850   9.488  0.2575  0.1317  0.3972
   26CHL1   C11 1884   5.717   5.969   9.672  0.3252 -0.1942 -0.3332
   26CHL1  H11A 1885   5.642   6.051   9.676 -0.1784 -0.6652 -0.0229
   26CHL1  H11B 1886   5.659   5.881   9.706  1.1143 -0.7429 -0.3760
   26CHL1    C9 1887   5.845   5.972   9.759 -0.2013  0.2833  0.2309
   26CHL1    H9 1888   5.873   5.865   9.767 -1.2856 -0.1500 -1.3645
   26CHL1   C10 1889   5.821   6.019   9.903 -0.1242  0.6474  0.6965
   26CHL1   C19 1890   5.748   6.156   9.903 -0.1496 -0.7502 -0.2430
   26CHL1  H19A 1891   5.665   6.169   9.831 -0.1889  2.4206  0.2326
   26CHL1  H19B 1892   5.697   6.172  10.001 -2.1013 -1.0293 -1.1613
   26CHL1  H19C 1893   5.809   6.244   9.874 -2.3679  0.1654 -2.4220
   26CHL1    C1 1894   5.732   5.907   9.967  0.4417 -0.0113  0.1452
   26CHL1   H1A 1895   5.638   5.885   9.912  0.2390 -0.8646  0.8005
   26CHL1   H1B 1896   5.792   5.813   9.970  1.2964  0.5165  2.7819
   26CHL1    C2 1897   5.698   5.920  10.120 -0.3569 -0.6192  0.1055
   26CHL1   H2A 1898   5.636   5.834  10.154 -1.2949 -0.7768 -1.8936
   26CHL1   H2B 1899   5.647   6.017  10.135  1.3503  0.2838  0.3775
   26CHL1   C20 1900   5.815   6.055   9.208 -0.2110  0.0195 -0.1849
   26CHL1   H20 1901   5.767   6.156   9.215 -2.5641 -1.0521  0.4116
   26CHL1   C21 1902   5.709   5.937   9.194  0.1864  0.0820 -0.3219
   26CHL1  H21A 1903   5.755   5.844   9.233  0.0046  0.5906  1.2027
   26CHL1  H21B 1904   5.663   5.920   9.095  0.9599 -2.1895 -0.3410
   26CHL1  H21C 1905   5.621   5.954   9.260 -0.0113 -2.0103  0.0019
   26CHL1   C22 1906   5.898   6.054   9.082  1.0298 -0.6777 -0.0865
   26CHL1  H22A 1907   5.983   6.125   9.091  0.0660  0.9758 -2.7553
   26CHL1  H22B 1908   5.929   5.950   9.060 -1.1903 -1.2857 -0.5905
   26CHL1   C23 1909   5.824   6.104   8.950  0.1859  0.0933 -0.6001
   26CHL1  H23A 1910   5.721   6.066   8.963 -0.0735  0.8182 -0.4895
   26CHL1  H23B 1911   5.821   6.215   8.954  1.9262  0.5557 -5.4644
   26CHL1   C24 1912   5.908   6.055   8.831 -0.3277  0.1514 -0.3358
   26CHL1  H24A 1913   6.005   6.107   8.827 -0.4679  0.6173  1.4601
   26CHL1  H24B 1914   5.926   5.945   8.835  0.3857  0.1919 -1.6573
   26CHL1   C25 1915   5.853   6.087   8.688  0.3930  0.3644 -0.3957
   26CHL1   H25 1916   5.746   6.060   8.686  0.9776 -2.1276 -1.9276
   26CHL1   C26 1917   5.866   6.238   8.660  0.3927  0.6952 -0.1825
   26CHL1  H26A 1918   5.812   6.261   8.566 -2.1290 -1.4945  0.6290
   26CHL1  H26B 1919   5.826   6.304   8.741  0.7627  2.6610 -1.5261
   26CHL1  H26C 1920   5.972   6.271   8.652  0.7565  0.2160  1.9524
   26CHL1   C27 1921   5.912   6.011   8.572 -0.3336  0.5618 -0.1186
   26CHL1  H27A 1922   5.871   6.037   8.471  0.9899 -2.4125 -1.5648
   26CHL1  H27B 1923   6.022   6.019   8.565 -0.3178 -0.4420 -1.5272
   26CHL1  H27C 1924   5.891   5.903   8.589  0.4630  0.2347 -1.0896
   27CHL1    C3 1925   3.615   1.093  10.439 -0.2158 -0.3121  0.3954
   27CHL1    H3 1926   3.610   0.991  10.396  1.8556  0.3378 -1.5183
   27CHL1    O3 1927   3.624   1.095  10.577  0.6008 -0.8701  0.3951
   27CHL1   H3' 1928   3.659   1.009  10.599  0.1662 -0.9834  0.6683
   27CHL1    C4 1929   3.744   1.161  10.379  0.4382 -0.4860  0.0871
   27CHL1   H4A 1930   3.760   1.257  10.433 -1.6310  0.4921 -0.9446
   27CHL1   H4B 1931   3.820   1.086  10.410 -1.4211 -2.8616 -0.7718
   27CHL1    C5 1932   3.722   1.172  10.227  0.4785  0.3113  0.4186
   27CHL1    C6 1933   3.803   1.112  10.149 -0.6482  0.6573 -0.0199
   27CHL1    H6 1934   3.888   1.048  10.179 -2.7161 -4.8586 -4.1075
   27CHL1    C7 1935   3.790   1.107   9.996 -0.1580 -0.4995  0.4540
   27CHL1   H7A 1936   3.886   1.130   9.944 -1.5401 -0.3733 -2.2010
   27CHL1   H7B 1937   3.748   1.010   9.964 -0.1623 -0.0451 -1.0242
   27CHL1    C8 1938   3.696   1.222   9.943  0.5030  0.1683  0.1109
   27CHL1    H8 1939   3.753   1.315   9.966  1.2651 -0.5098  1.0754
   27CHL1   C14 1940   3.664   1.215   9.792  0.5778 -1.0858 -0.3848
   27CHL1   H14 1941   3.618   1.114   9.785  0.9417 -1.2799 -0.0348
   27CHL1   C15 1942   3.785   1.216   9.698 -0.1525 -0.1619 -0.2386
   27CHL1  H15A 1943   3.855   1.292   9.739  0.0707  0.1307 -1.1467
   27CHL1  H15B 1944   3.848   1.125   9.700  1.0725  0.6545 -0.7112
   27CHL1   C16 1945   3.728   1.269   9.569  0.1062  0.2995 -0.0769
   27CHL1  H16A 1946   3.775   1.364   9.535  0.8269  0.2129  0.6619
   27CHL1  H16B 1947   3.749   1.205   9.481 -1.2939 -0.5796  0.2073
   27CHL1   C17 1948   3.574   1.282   9.589 -0.0030 -0.4209 -0.7589
   27CHL1   H17 1949   3.520   1.186   9.579  0.9075 -1.3411  2.1170
   27CHL1   C13 1950   3.570   1.320   9.738  0.0441  0.2209 -0.2082
   27CHL1   C18 1951   3.627   1.454   9.760  0.0330 -1.0326 -0.2281
   27CHL1  H18A 1952   3.729   1.475   9.723 -0.0293  1.7065  0.8732
   27CHL1  H18B 1953   3.555   1.534   9.730 -0.0941 -0.9615  0.2575
   27CHL1  H18C 1954   3.644   1.477   9.867  0.6326  0.3313 -0.5838
   27CHL1   C12 1955   3.437   1.315   9.812  0.2905 -0.3084  0.2050
   27CHL1  H12A 1956   3.370   1.398   9.781  1.6501  0.4083 -0.9166
   27CHL1  H12B 1957   3.374   1.225   9.792 -0.6059  0.4803 -0.6194
   27CHL1   C11 1958   3.463   1.331   9.964 -0.4908 -0.0575  0.6645
   27CHL1  H11A 1959   3.488   1.435   9.990 -0.1795 -0.0266  0.2532
   27CHL1  H11B 1960   3.360   1.317  10.003 -1.2458  0.2809 -1.1068
   27CHL1    C9 1961   3.566   1.226  10.019  0.0368 -0.3972 -0.8270
   27CHL1    H9 1962   3.520   1.126  10.009  0.0359 -0.5431  0.5350
   27CHL1   C10 1963   3.596   1.247  10.175  0.3363  0.1738  0.8668
   27CHL1   C19 1964   3.605   1.404  10.206 -0.3682  0.3172 -0.4331
   27CHL1  H19A 1965   3.644   1.416  10.310  3.2168 -0.2622 -1.5496
   27CHL1  H19B 1966   3.685   1.460  10.152 -1.0779  1.0873 -0.6982
   27CHL1  H19C 1967   3.504   1.449  10.204 -0.3932  0.2691 -2.4674
   27CHL1    C1 1968   3.477   1.199  10.255 -0.0565  0.7480  0.0174
   27CHL1   H1A 1969   3.381   1.252  10.241 -0.5344  0.1804  1.0778
   27CHL1   H1B 1970   3.465   1.095  10.219  0.9813  1.1298 -1.5769
   27CHL1    C2 1971   3.493   1.180  10.412  0.4216  0.4724  0.0388
   27CHL1   H2A 1972   3.403   1.151  10.469  1.2432  0.3952  1.3395
   27CHL1   H2B 1973   3.515   1.283  10.448 -0.9411  0.3266  1.3590
   27CHL1   C20 1974   3.511   1.382   9.491 -0.5917 -0.5254 -0.2110
   27CHL1   H20 1975   3.558   1.483   9.495  0.8673 -1.1648 -0.3799
   27CHL1   C21 1976   3.359   1.402   9.511  0.1751  0.3154  0.3994
   27CHL1  H21A 1977   3.307   1.418   9.414  0.0432  1.2223  0.6132
   27CHL1  H21B 1978   3.341   1.492   9.574 -0.2603 -0.8310  1.9697
   27CHL1  H21C 1979   3.310   1.320   9.568  2.1304 -0.8774  0.4506
   27CHL1   C22 1980   3.547   1.327   9.349  0.4237  1.0414 -0.6918
   27CHL1  H22A 1981   3.655   1.303   9.339  0.1522 -1.5106  1.3334
   27CHL1  H22B 1982   3.490   1.234   9.330 -1.8495  2.4903 -1.3100
   27CHL1   C23 1983   3.502   1.416   9.231  0.1433 -0.3484  0.0177
   27CHL1  H23A 1984   3.391   1.420   9.234  0.0845  1.8290 -2.1099
   27CHL1  H23B 1985   3.547   1.513   9.262 -0.3173 -0.7721  2.1522
   27CHL1   C24 1986   3.555   1.378   9.087 -0.0747  0.1753  0.1667
   27CHL1  H24A 1987   3.665   1.379   9.098  0.1022 -0.2636 -1.3665
   27CHL1  H24B 1988   3.515   1.276   9.071  1.0186 -0.6377  2.3092
   27CHL1   C25 1989   3.514   1.475   8.978 -0.5087 -0.6038 -0.5323
   27CHL1   H25 1990   3.403   1.480   8.986 -0.5435 -0.9381 -0.8137
   27CHL1   C26 1991   3.575   1.615   8.982 -0.2916 -0.8670 -0.4486
   27CHL1  H26A 1992   3.545   1.655   9.081  0.6311 -1.8292  0.2509
   27CHL1  H26B 1993   3.684   1.621   8.963 -0.6723 -1.1783 -3.0540
   27CHL1  H26C 1994   3.533   1.668   8.894 -1.0939  2.2498  1.6650
   27CHL1   C27 1995   3.518   1.430   8.837  0.0453  0.1374 -0.0216
   27CHL1  H27A 1996   3.464   1.501   8.770 -2.6579 -1.8279 -0.0757
   27CHL1  H27B 1997   3.623   1.422   8.801  0.0571  1.0417 -0.2173
   27CHL1  H27C 1998   3.474   1.329   8.822  0.0317  0.4718 -2.7735
   28CHL1    C3 1999   3.217   5.773  10.196 -0.2667  0.0969 -0.5811
   28CHL1    H3 2000   3.221   5.672  10.150  0.7270  0.0669 -0.4569
   28CHL1    O3 2001   3.236   5.747  10.334 -0.2097 -0.1067  0.4534
   28CHL1   H3' 2002   3.202   5.832  10.364  0.7860  1.8776 -3.3250
   28CHL1    C4 2003   3.333   5.857  10.143  0.4570 -0.1836 -0.6542
   28CHL1   H4A 2004   3.344   5.956  10.193 -0.6294 -1.9439  3.4407
   28CHL1   H4B 2005   3.423   5.802  10.179 -0.3726 -0.5357  0.9835
   28CHL1    C5 2006   3.324   5.860   9.990 -0.0483 -0.2614  0.2412
   28CHL1    C6 2007   3.407   5.793   9.905  0.1285  0.3750  0.0140
   28CHL1    H6 2008   3.472   5.712   9.941 -0.4704 -0.6199 -1.0702
   28CHL1    C7 2009   3.398   5.807   9.757 -0.2215  0.7521  0.9087
   28CHL1   H7A 2010   3.497   5.802   9.706 -0.4408  1.2426  0.4216
   28CHL1   H7B 2011   3.363   5.708   9.721  0.7570 -0.0314  2.0313
   28CHL1    C8 2012   3.313   5.927   9.715  0.4053 -0.3009 -0.5934
   28CHL1    H8 2013   3.373   6.015   9.746 -0.7320  0.2560  0.0731
   28CHL1   C14 2014   3.287   5.931   9.563 -0.8699 -0.8201 -0.5779
   28CHL1   H14 2015   3.230   5.837   9.544 -2.5885 -0.1747  1.0714
   28CHL1   C15 2016   3.403   5.924   9.455 -0.0552  0.7409  0.5727
   28CHL1  H15A 2017   3.492   5.983   9.486  0.6694  0.3288 -0.6500
   28CHL1  H15B 2018   3.429   5.816   9.452  0.1656  0.8148 -1.1832
   28CHL1   C16 2019   3.345   5.963   9.322 -0.3068 -0.3857  0.2997
   28CHL1  H16A 2020   3.406   6.051   9.293 -0.1051 -0.7805 -0.5002
   28CHL1  H16B 2021   3.346   5.892   9.237 -0.7100  1.0039 -0.8942
   28CHL1   C17 2022   3.194   6.004   9.359 -0.0200 -0.3230 -0.1503
   28CHL1   H17 2023   3.125   5.917   9.354  0.4573 -0.6445 -2.1448
   28CHL1   C13 2024   3.194   6.043   9.512 -0.1025  0.1979 -0.0144
   28CHL1   C18 2025   3.262   6.179   9.537 -0.3519  0.4199  0.2588
   28CHL1  H18A 2026   3.280   6.189   9.646  1.9812 -1.5808  0.1353
   28CHL1  H18B 2027   3.362   6.174   9.490 -0.2829 -1.8783  0.5197
   28CHL1  H18C 2028   3.214   6.259   9.477  0.6618  0.1837 -0.8937
   28CHL1   C12 2029   3.056   6.035   9.583 -0.1970  0.3286 -0.5902
   28CHL1  H12A 2030   2.985   6.113   9.549 -2.2477 -1.2099 -0.0516
   28CHL1  H12B 2031   3.009   5.940   9.548  0.1996  1.1723 -3.7233
   28CHL1   C11 2032   3.082   6.042   9.734  0.3111  0.1502 -0.2465
   28CHL1  H11A 2033   3.101   6.150   9.755  1.5109 -0.3350  1.3638
   28CHL1  H11B 2034   2.985   6.006   9.774  1.3048  1.4703  3.8303
   28CHL1    C9 2035   3.181   5.938   9.788 -0.1088 -0.1630  0.5760
   28CHL1    H9 2036   3.134   5.838   9.778  1.3216 -0.6823 -2.1731
   28CHL1   C10 2037   3.206   5.940   9.949  0.1973  0.0142  0.1649
   28CHL1   C19 2038   3.238   6.086   9.980 -0.2596 -0.6261  0.1770
   28CHL1  H19A 2039   3.278   6.112  10.080  0.2625  2.2285 -0.6853
   28CHL1  H19B 2040   3.318   6.124   9.913 -0.1211  0.9295  1.1761
   28CHL1  H19C 2041   3.146   6.146   9.964 -1.1350 -1.8426  0.4536
   28CHL1    C1 2042   3.081   5.881  10.023 -0.3369  0.2356 -0.0060
   28CHL1   H1A 2043   2.983   5.934  10.016 -0.3200  0.3234  0.3913
   28CHL1   H1B 2044   3.054   5.787   9.970 -0.4985  0.0840  0.3385
   28CHL1    C2 2045   3.093   5.848  10.170  0.0981 -0.2590 -0.2667
   28CHL1   H2A 2046   3.006   5.786  10.200  0.5696 -0.3411  0.9656
   28CHL1   H2B 2047   3.087   5.946  10.221 -0.1603  0.3140 -1.3743
   28CHL1   C20 2048   3.133   6.107   9.253 -0.5533  0.2780  0.0717
   28CHL1   H20 2049   3.167   6.209   9.282  0.0094 -0.4581  2.2434
   28CHL1   C21 2050   2.976   6.117   9.261 -0.3138  0.7643 -0.0039
   28CHL1  H21A 2051   2.924   6.021   9.242  0.7570  0.3690 -1.0331
   28CHL1  H21B 2052   2.939   6.191   9.187 -0.0418 -0.0596 -0.9702
   28CHL1  H21C 2053   2.934   6.143   9.361 -0.2809 -2.2590  0.9075
   28CHL1   C22 2054   3.177   6.078   9.111  0.5923 -0.5415 -0.0183
   28CHL1  H22A 2055   3.280   6.116   9.090 -0.4888  2.1639 -0.7916
   28CHL1  H22B 2056   3.165   5.971   9.085 -0.7422  0.1167 -2.4512
   28CHL1   C23 2057   3.098   6.145   8.997 -0.0151  0.2465  0.1973
   28CHL1  H23A 2058   2.992   6.113   9.000  0.4703 -1.6553 -1.2972
   28CHL1  H23B 2059   3.111   6.254   9.014  0.4169  0.6921 -2.5186
   28CHL1   C24 2060   3.162   6.128   8.855 -0.5685 -0.3118 -0.2686
   28CHL1  H24A 2061   3.254   6.191   8.856 -0.7867  0.0085  0.3689
   28CHL1  H24B 2062   3.184   6.021   8.833  0.0903 -0.1695 -0.3415
   28CHL1   C25 2063   3.073   6.182   8.738 -0.5419 -0.4276 -0.1094
   28CHL1   H25 2064   3.135   6.155   8.651  0.0823 -1.3097  0.5846
   28CHL1   C26 2065   2.949   6.097   8.724  0.2317 -0.1426 -0.5469
   28CHL1  H26A 2066   2.914   6.107   8.619  0.8599  2.9031 -0.5555
   28CHL1  H26B 2067   2.974   5.989   8.730  3.0600  0.4743  0.7191
   28CHL1  H26C 2068   2.865   6.107   8.796 -0.3373 -0.2211 -1.1908
   28CHL1   C27 2069   3.043   6.327   8.736 -0.4445  0.0570 -0.4777
   28CHL1  H27A 2070   3.025   6.357   8.630  0.2904  0.3390 -0.5280
   28CHL1  H27B 2071   2.959   6.361   8.800 -0.2838  0.0759 -0.2773
   28CHL1  H27C 2072   3.130   6.388   8.768 -0.6048  0.3381 -0.5722
   29CHL1    C3 2073   2.318   4.278   6.623 -0.5661  0.0051 -0.3683
   29CHL1    H3 2074   2.211   4.300   6.605 -0.9421 -1.6034 -0.2898
   29CHL1    O3 2075   2.390   4.298   6.508  0.1923  0.6893  1.0587
   29CHL1   H3' 2076   2.480   4.265   6.512  0.6537  1.9360  1.2767
   29CHL1    C4 2077   2.387   4.384   6.709  0.6329 -0.5853 -0.1799
   29CHL1   H4A 2078   2.495   4.378   6.687  0.6051 -0.2884 -0.4047
   29CHL1   H4B 2079   2.356   4.482   6.666  0.4371 -0.2403  0.7238
   29CHL1    C5 2080   2.354   4.383   6.857 -0.8789  0.2828  0.5642
   29CHL1    C6 2081   2.294   4.486   6.916  0.4879  0.0683  0.0118
   29CHL1    H6 2082   2.277   4.578   6.857 -0.5355  0.2687  0.5906
   29CHL1    C7 2083   2.243   4.475   7.052  0.3441  0.3054 -0.0933
   29CHL1   H7A 2084   2.262   4.564   7.116 -0.4503  0.8548 -0.6033
   29CHL1   H7B 2085   2.134   4.454   7.057  0.4180  0.0386  0.4051
   29CHL1    C8 2086   2.320   4.375   7.133 -0.1057  0.1607 -0.0232
   29CHL1    H8 2087   2.426   4.402   7.149  0.1831 -0.4959 -0.7703
   29CHL1   C14 2088   2.253   4.360   7.271  0.0972 -0.1875  0.6791
   29CHL1   H14 2089   2.147   4.331   7.253  0.2206  0.2947 -0.9597
   29CHL1   C15 2090   2.256   4.489   7.354  0.6373  0.1224 -0.4310
   29CHL1  H15A 2091   2.356   4.537   7.364  1.1303 -1.3010  2.5503
   29CHL1  H15B 2092   2.180   4.563   7.322  0.2657  1.1179  2.4400
   29CHL1   C16 2093   2.231   4.433   7.502 -0.1588 -0.2766 -0.1411
   29CHL1  H16A 2094   2.314   4.464   7.568 -2.0233  0.0462  2.1783
   29CHL1  H16B 2095   2.146   4.481   7.555  0.2740  3.7810 -2.6924
   29CHL1   C17 2096   2.241   4.281   7.494  0.7748  0.4602  0.0177
   29CHL1   H17 2097   2.139   4.241   7.474  2.1622 -3.1096 -0.6634
   29CHL1   C13 2098   2.315   4.252   7.363 -0.7070  0.0834 -0.4819
   29CHL1   C18 2099   2.464   4.285   7.395 -0.6852 -0.2916 -0.2521
   29CHL1  H18A 2100   2.518   4.287   7.298 -0.0268  1.9271  0.1056
   29CHL1  H18B 2101   2.494   4.377   7.450  0.0703  0.3858 -1.7326
   29CHL1  H18C 2102   2.494   4.197   7.457  1.1197  0.8221  0.5578
   29CHL1   C12 2103   2.298   4.118   7.289  0.0985  0.4748  0.3836
   29CHL1  H12A 2104   2.342   4.033   7.346 -0.3540 -0.2602 -0.3325
   29CHL1  H12B 2105   2.190   4.099   7.275 -0.0342  0.9677  0.7212
   29CHL1   C11 2106   2.369   4.121   7.147  0.4354  0.4364 -0.9782
   29CHL1  H11A 2107   2.477   4.137   7.166  0.3300  1.3893 -1.1519
   29CHL1  H11B 2108   2.360   4.023   7.095 -2.4207 -0.6850  1.3416
   29CHL1    C9 2109   2.314   4.235   7.064  0.4857  0.3938 -0.4709
   29CHL1    H9 2110   2.205   4.215   7.063  0.5447 -0.0648  0.6256
   29CHL1   C10 2111   2.371   4.246   6.915 -0.5247  0.6679 -0.1938
   29CHL1   C19 2112   2.528   4.224   6.917 -0.3574 -0.4416 -0.2932
   29CHL1  H19A 2113   2.584   4.300   6.976  1.1750 -0.6844 -1.3892
   29CHL1  H19B 2114   2.541   4.126   6.967 -1.9903 -0.9287 -0.7435
   29CHL1  H19C 2115   2.564   4.220   6.812  0.2883 -0.6778 -0.0667
   29CHL1    C1 2116   2.309   4.133   6.822  0.0690 -0.5824 -0.0921
   29CHL1   H1A 2117   2.330   4.035   6.870  1.8185 -0.9847 -1.5771
   29CHL1   H1B 2118   2.199   4.137   6.837  0.0525 -1.2396 -0.0125
   29CHL1    C2 2119   2.345   4.133   6.676  0.2572  0.3609  0.0394
   29CHL1   H2A 2120   2.286   4.053   6.625 -0.1739  0.3364  0.5721
   29CHL1   H2B 2121   2.454   4.118   6.664  0.5002  1.2692  1.0147
   29CHL1   C20 2122   2.297   4.206   7.619  0.3102  0.1713 -0.1800
   29CHL1   H20 2123   2.403   4.235   7.631  0.6122 -1.2106  0.6895
   29CHL1   C21 2124   2.274   4.056   7.608  0.1844 -0.5007  0.5851
   29CHL1  H21A 2125   2.340   4.011   7.531 -0.1611  2.4560 -1.5739
   29CHL1  H21B 2126   2.170   4.024   7.585  0.4224 -0.4916 -0.5635
   29CHL1  H21C 2127   2.305   4.001   7.700  0.0769  1.1861  1.6682
   29CHL1   C22 2128   2.226   4.258   7.744  0.6372 -0.3208 -0.0016
   29CHL1  H22A 2129   2.242   4.367   7.734  0.2432 -0.3491 -1.0995
   29CHL1  H22B 2130   2.116   4.247   7.730  0.4494  1.1400  0.2285
   29CHL1   C23 2131   2.267   4.207   7.880 -0.0141  0.8117  0.3765
   29CHL1  H23A 2132   2.237   4.103   7.905 -3.8273  2.0522  1.5835
   29CHL1  H23B 2133   2.378   4.209   7.875 -0.0363  1.2177 -0.0231
   29CHL1   C24 2134   2.216   4.305   7.995  0.5188  0.8679  0.1765
   29CHL1  H24A 2135   2.263   4.405   7.983  1.1458  0.6662  0.8784
   29CHL1  H24B 2136   2.106   4.312   7.978  0.4909  1.5266  0.5938
   29CHL1   C25 2137   2.242   4.252   8.137  0.0642 -0.5575 -0.4701
   29CHL1   H25 2138   2.208   4.146   8.143  0.3658 -0.5768  1.8723
   29CHL1   C26 2139   2.392   4.263   8.172 -0.1709  0.1117  0.0081
   29CHL1  H26A 2140   2.424   4.369   8.163  0.2185 -0.1173 -1.6617
   29CHL1  H26B 2141   2.417   4.211   8.268 -2.4699 -0.6059  0.2772
   29CHL1  H26C 2142   2.468   4.215   8.107  1.2274  0.2877  1.4374
   29CHL1   C27 2143   2.164   4.328   8.238 -0.1286  0.3889 -0.6076
   29CHL1  H27A 2144   2.055   4.309   8.239 -1.0396  4.4970  1.2036
   29CHL1  H27B 2145   2.210   4.295   8.334  1.5652 -0.9996 -1.8339
   29CHL1  H27C 2146   2.170   4.438   8.221  0.6851  1.1063  3.2470
   30CHL1    C3 2147   2.390   2.288   7.186  0.2688  0.2123 -0.2949
   30CHL1    H3 2148   2.287   2.252   7.207  0.7368 -1.2260 -0.3379
   30CHL1    O3 2149   2.390   2.367   7.067  0.1324  0.2816  0.4947
   30CHL1   H3' 2150   2.483   2.379   7.045  0.7523 -0.4793  2.4571
   30CHL1    C4 2151   2.447   2.374   7.297 -0.9202 -0.1934  0.1599
   30CHL1   H4A 2152   2.541   2.422   7.263 -0.5823 -2.0172 -1.6026
   30CHL1   H4B 2153   2.377   2.460   7.311 -0.4625  0.0316  1.2071
   30CHL1    C5 2154   2.460   2.294   7.428 -0.2535  0.1437  1.0056
   30CHL1    C6 2155   2.404   2.325   7.543  0.9882  0.6334  0.4213
   30CHL1    H6 2156   2.337   2.410   7.555 -0.8310 -0.3779 -1.7566
   30CHL1    C7 2157   2.425   2.257   7.671 -0.3523 -0.3791  0.7276
   30CHL1   H7A 2158   2.446   2.331   7.752 -0.1773  1.7507 -1.1751
   30CHL1   H7B 2159   2.336   2.196   7.696  0.3116 -1.3307  0.8631
   30CHL1    C8 2160   2.549   2.160   7.674  0.7129 -0.2390  0.4626
   30CHL1    H8 2161   2.636   2.228   7.686  0.5380 -0.1727  1.5326
   30CHL1   C14 2162   2.540   2.060   7.790 -0.1401  0.4102  0.4400
   30CHL1   H14 2163   2.446   2.003   7.770  1.1454 -0.9319 -2.3497
   30CHL1   C15 2164   2.540   2.122   7.934  0.0880 -0.2031  0.4101
   30CHL1  H15A 2165   2.609   2.208   7.947  1.4005 -0.2972 -4.1180
   30CHL1  H15B 2166   2.441   2.161   7.964 -0.7164  0.1415 -2.4555
   30CHL1   C16 2167   2.566   1.998   8.026  0.0942 -0.6846  0.8120
   30CHL1  H16A 2168   2.638   2.035   8.101  0.7273  2.1452 -1.0385
   30CHL1  H16B 2169   2.467   1.966   8.066 -1.7656  1.2424 -1.8627
   30CHL1   C17 2170   2.607   1.890   7.923 -0.5642 -0.0618 -0.2299
   30CHL1   H17 2171   2.519   1.831   7.892 -1.8128  2.4499 -1.7499
   30CHL1   C13 2172   2.660   1.958   7.791 -0.2639 -0.3547  0.0946
   30CHL1   C18 2173   2.795   2.033   7.816 -0.4479  0.6726 -0.2121
   30CHL1  H18A 2174   2.877   1.963   7.787 -1.4682  1.2338 -5.5430
   30CHL1  H18B 2175   2.809   2.121   7.750  0.2084 -0.9093 -2.3246
   30CHL1  H18C 2176   2.805   2.060   7.923  0.4667 -1.8067  0.4054
   30CHL1   C12 2177   2.655   1.875   7.659 -0.4499 -0.3277  0.4474
   30CHL1  H12A 2178   2.744   1.808   7.659 -0.4936 -0.3960  1.3267
   30CHL1  H12B 2179   2.566   1.809   7.657  0.4126 -1.5180  0.0451
   30CHL1   C11 2180   2.665   1.972   7.546  0.0115  0.0849  0.2437
   30CHL1  H11A 2181   2.755   2.037   7.552 -0.7493  1.2783 -0.7305
   30CHL1  H11B 2182   2.664   1.924   7.445 -0.0218 -0.2790  0.4143
   30CHL1    C9 2183   2.551   2.075   7.543 -0.8328  0.3494 -0.3318
   30CHL1    H9 2184   2.461   2.010   7.540 -0.0391 -0.8844  1.1988
   30CHL1   C10 2185   2.543   2.165   7.409 -0.3147  0.3721  0.5098
   30CHL1   C19 2186   2.690   2.200   7.370 -0.0880 -0.1408 -0.0898
   30CHL1  H19A 2187   2.699   2.275   7.289 -0.4650 -0.8386 -0.7905
   30CHL1  H19B 2188   2.746   2.235   7.460 -2.9501  0.6969  1.4937
   30CHL1  H19C 2189   2.732   2.105   7.330  0.2893 -1.6435  3.4403
   30CHL1    C1 2190   2.487   2.076   7.288 -0.8084 -0.4341  0.0528
   30CHL1   H1A 2191   2.558   1.992   7.271 -1.2334 -0.6188 -0.8703
   30CHL1   H1B 2192   2.386   2.038   7.314 -2.2287  1.7469 -1.8779
   30CHL1    C2 2193   2.476   2.157   7.165  0.1331 -1.0113  0.0901
   30CHL1   H2A 2194   2.431   2.104   7.079  1.4947 -0.2549 -1.1440
   30CHL1   H2B 2195   2.576   2.196   7.134  0.7214 -2.6489 -0.1923
   30CHL1   C20 2196   2.712   1.799   7.990  0.3131  0.2050 -0.2994
   30CHL1   H20 2197   2.810   1.850   8.007  1.0176 -0.6488 -1.5657
   30CHL1   C21 2198   2.738   1.682   7.895 -0.0052  0.0203  0.0329
   30CHL1  H21A 2199   2.811   1.721   7.820  0.2945 -0.7831 -0.1121
   30CHL1  H21B 2200   2.648   1.647   7.841 -0.3204 -0.0366  0.5924
   30CHL1  H21C 2201   2.793   1.600   7.947  0.4388 -0.2920 -0.8823
   30CHL1   C22 2202   2.653   1.747   8.120  0.1478  0.3089 -0.2749
   30CHL1  H22A 2203   2.613   1.825   8.189 -1.2288 -0.8223  0.2369
   30CHL1  H22B 2204   2.561   1.695   8.086  0.0493  0.4503 -0.2266
   30CHL1   C23 2205   2.734   1.662   8.209 -0.4028 -0.0069 -0.0901
   30CHL1  H23A 2206   2.754   1.565   8.160 -0.9674  0.6661 -1.7348
   30CHL1  H23B 2207   2.833   1.712   8.220 -0.2179 -0.0205 -1.4902
   30CHL1   C24 2208   2.654   1.645   8.338  0.1908  0.0544  0.0195
   30CHL1  H24A 2209   2.642   1.739   8.396 -0.3767  0.2908 -0.4621
   30CHL1  H24B 2210   2.550   1.620   8.310  1.0946 -0.9345 -2.9222
   30CHL1   C25 2211   2.721   1.550   8.439  0.2941 -0.2215 -0.0893
   30CHL1   H25 2212   2.738   1.460   8.376 -1.2713 -1.1294  0.7250
   30CHL1   C26 2213   2.856   1.590   8.504 -0.0724  0.0077 -0.1240
   30CHL1  H26A 2214   2.851   1.667   8.584 -0.4072 -1.0731  0.9283
   30CHL1  H26B 2215   2.884   1.504   8.569 -4.1568 -0.4116  1.3493
   30CHL1  H26C 2216   2.928   1.622   8.425  0.3604 -1.0048 -0.1569
   30CHL1   C27 2217   2.620   1.506   8.558  0.3885 -0.3826  0.5206
   30CHL1  H27A 2218   2.581   1.593   8.615  1.8442  0.6093  0.0597
   30CHL1  H27B 2219   2.526   1.473   8.509  2.0043 -0.4485 -2.7509
   30CHL1  H27C 2220   2.672   1.422   8.608  0.8787 -0.4075 -0.0176
   31CHL1    C3 2221   2.610   5.482   6.660 -0.2306 -0.1131 -0.4055
   31CHL1    H3 2222   2.596   5.584   6.700  1.1035 -1.3146  3.6223
   31CHL1    O3 2223   2.609   5.482   6.516 -0.0351  0.0619 -0.1527
   31CHL1   H3' 2224   2.679   5.544   6.494  0.0486  0.0559  0.0904
   31CHL1    C4 2225   2.746   5.431   6.706 -0.1407  0.0261  0.0975
   31CHL1   H4A 2226   2.769   5.336   6.654  0.4168  1.3688 -2.2353
   31CHL1   H4B 2227   2.830   5.497   6.678 -1.9852  1.5548 -2.2515
   31CHL1    C5 2228   2.768   5.415   6.854  0.0167 -0.4087 -0.4981
   31CHL1    C6 2229   2.860   5.474   6.941  0.2039  0.1623  0.3383
   31CHL1    H6 2230   2.927   5.550   6.898 -0.1592  0.1045 -0.3579
   31CHL1    C7 2231   2.881   5.435   7.083 -1.3157 -0.4603  0.1179
   31CHL1   H7A 2232   2.990   5.440   7.101 -0.5507  0.2872 -3.7927
   31CHL1   H7B 2233   2.826   5.509   7.145 -0.9127 -1.6364  1.9491
   31CHL1    C8 2234   2.798   5.313   7.127 -0.0189  0.3344 -0.1496
   31CHL1    H8 2235   2.849   5.218   7.097  0.9818  0.5099  0.9038
   31CHL1   C14 2236   2.788   5.306   7.278  0.4168  0.3847  0.1225
   31CHL1   H14 2237   2.726   5.394   7.305  0.6018  0.4385  0.3798
   31CHL1   C15 2238   2.920   5.320   7.361 -0.7841  1.2568 -0.3810
   31CHL1  H15A 2239   3.007   5.261   7.324 -1.0665  0.1842  0.6004
   31CHL1  H15B 2240   2.955   5.425   7.368 -0.5424  1.2710 -1.5974
   31CHL1   C16 2241   2.879   5.258   7.496 -0.0967  0.0004 -0.2525
   31CHL1  H16A 2242   2.951   5.175   7.515  0.7562 -0.4590 -4.4320
   31CHL1  H16B 2243   2.896   5.334   7.575  3.9635 -1.2577  0.3226
   31CHL1   C17 2244   2.732   5.215   7.488  0.0923  0.2235  0.4034
   31CHL1   H17 2245   2.672   5.304   7.514 -1.1594  0.2113 -2.1457
   31CHL1   C13 2246   2.709   5.192   7.337 -0.2479 -0.7394  0.0414
   31CHL1   C18 2247   2.764   5.054   7.291 -0.1311  0.5621  0.4951
   31CHL1  H18A 2248   2.867   5.024   7.320 -0.4729 -0.9459  0.2274
   31CHL1  H18B 2249   2.691   4.975   7.319 -1.4955  1.5450 -0.2032
   31CHL1  H18C 2250   2.768   5.062   7.181  1.9505  2.2031  0.6359
   31CHL1   C12 2251   2.571   5.207   7.284  0.6243 -0.4241 -0.4559
   31CHL1  H12A 2252   2.503   5.124   7.311  0.7851 -1.1194 -2.0321
   31CHL1  H12B 2253   2.535   5.299   7.334  1.0454 -1.1725  1.2848
   31CHL1   C11 2254   2.555   5.207   7.134  0.3120 -0.2046 -0.1298
   31CHL1  H11A 2255   2.571   5.105   7.093 -0.4521 -0.1263 -0.6408
   31CHL1  H11B 2256   2.449   5.235   7.113  0.3085  0.3973  0.6265
   31CHL1    C9 2257   2.661   5.307   7.060  0.9546  0.0282  0.6723
   31CHL1    H9 2258   2.629   5.409   7.090  1.2505 -0.1044  1.4794
   31CHL1   C10 2259   2.658   5.314   6.901 -0.1440  0.0799 -1.2072
   31CHL1   C19 2260   2.673   5.168   6.846  0.0310  0.0860  0.5224
   31CHL1  H19A 2261   2.755   5.103   6.883 -2.6448 -4.0246 -0.1256
   31CHL1  H19B 2262   2.586   5.110   6.883  1.2716 -2.3079 -0.0632
   31CHL1  H19C 2263   2.677   5.175   6.735  1.1486  0.1746  0.5561
   31CHL1    C1 2264   2.513   5.356   6.862  0.0628 -0.5395 -0.1294
   31CHL1   H1A 2265   2.440   5.280   6.897  0.6521  0.2564  3.1937
   31CHL1   H1B 2266   2.484   5.449   6.915 -1.4821 -1.2529  0.3469
   31CHL1    C2 2267   2.499   5.385   6.712 -0.0818  0.5446 -0.1567
   31CHL1   H2A 2268   2.406   5.442   6.689 -0.3877  0.6361  1.2391
   31CHL1   H2B 2269   2.511   5.298   6.643 -2.2967 -0.0451  0.1262
   31CHL1   C20 2270   2.693   5.095   7.583 -0.3001 -0.0731  0.0186
   31CHL1   H20 2271   2.737   5.001   7.543  0.6277 -1.4781  3.9086
   31CHL1   C21 2272   2.545   5.088   7.590 -0.0976 -0.4560  0.7666
   31CHL1  H21A 2273   2.494   5.180   7.627  1.0874  1.6067 -2.2889
   31CHL1  H21B 2274   2.522   5.009   7.664  1.2200 -1.8321 -0.2397
   31CHL1  H21C 2275   2.498   5.056   7.494  0.0424 -1.1777  0.9372
   31CHL1   C22 2276   2.748   5.110   7.728  0.0280 -0.7328  0.9406
   31CHL1  H22A 2277   2.851   5.151   7.729 -0.3896  1.0060 -3.4684
   31CHL1  H22B 2278   2.687   5.198   7.760 -2.7770 -0.1244 -4.8360
   31CHL1   C23 2279   2.741   4.978   7.810 -0.3757  0.1314  0.4307
   31CHL1  H23A 2280   2.634   4.951   7.818 -0.4717  0.2879 -0.2742
   31CHL1  H23B 2281   2.789   4.897   7.751 -2.0123  2.1574 -4.1921
   31CHL1   C24 2282   2.802   4.977   7.954 -0.1544 -0.1598 -0.7553
   31CHL1  H24A 2283   2.756   5.060   8.012  0.8251 -1.3859  1.9651
   31CHL1  H24B 2284   2.786   4.885   8.015  1.5951 -0.4008 -0.5968
   31CHL1   C25 2285   2.965   4.991   7.950  0.2942  0.9657  0.1632
   31CHL1   H25 2286   2.991   5.080   7.888 -0.8732  0.4223 -1.1733
   31CHL1   C26 2287   3.016   5.008   8.097  0.0120 -0.3017  0.0613
   31CHL1  H26A 2288   2.957   4.964   8.180 -0.2115  0.2342  0.1918
   31CHL1  H26B 2289   3.116   4.961   8.096  0.7682  1.2244  0.2879
   31CHL1  H26C 2290   3.023   5.116   8.124  0.4029 -0.6094  1.2387
   31CHL1   C27 2291   3.033   4.868   7.878  0.1109  0.3384  0.2763
   31CHL1  H27A 2292   2.991   4.778   7.928  1.2226  0.4380  1.4665
   31CHL1  H27B 2293   3.140   4.874   7.907 -0.4143  2.7809  2.0445
   31CHL1  H27C 2294   3.009   4.849   7.772 -3.4022 -1.1237  1.1732
   32CHL1    C3 2295   1.472   3.579   6.968  0.0192 -0.1440 -0.9781
   32CHL1    H3 2296   1.567   3.522   6.977 -1.2642 -2.0224  2.5321
   32CHL1    O3 2297   1.427   3.600   6.835  0.6743 -0.4383  0.2977
   32CHL1   H3' 2298   1.350   3.654   6.855  2.2348  1.7308  0.7801
   32CHL1    C4 2299   1.370   3.496   7.049  0.2482 -0.1503  0.2653
   32CHL1   H4A 2300   1.267   3.537   7.047 -0.0070 -0.8264 -0.9877
   32CHL1   H4B 2301   1.361   3.398   6.998  0.8384 -1.7109  2.9533
   32CHL1    C5 2302   1.413   3.477   7.193  0.2271 -0.4056  0.1247
   32CHL1    C6 2303   1.418   3.361   7.252 -0.0389  0.5612  0.3268
   32CHL1    H6 2304   1.379   3.270   7.203  1.0491 -0.9580  2.1385
   32CHL1    C7 2305   1.450   3.341   7.392  0.0255 -0.1307  0.2704
   32CHL1   H7A 2306   1.381   3.267   7.437  1.5989 -2.3309 -0.7613
   32CHL1   H7B 2307   1.551   3.297   7.401  0.4641  0.7251 -0.3003
   32CHL1    C8 2308   1.456   3.469   7.471 -0.1694  0.0058 -0.0341
   32CHL1    H8 2309   1.350   3.498   7.491 -0.4064  0.0175 -1.2287
   32CHL1   C14 2310   1.535   3.449   7.606 -0.1775 -0.0776  0.4040
   32CHL1   H14 2311   1.634   3.416   7.568 -1.6947 -1.4607 -2.7199
   32CHL1   C15 2312   1.486   3.336   7.698 -0.4044 -0.5854  0.3419
   32CHL1  H15A 2313   1.376   3.337   7.709 -0.7187 -2.7520 -1.8511
   32CHL1  H15B 2314   1.501   3.236   7.654 -1.8462 -1.8469  2.4963
   32CHL1   C16 2315   1.554   3.367   7.829  0.2198  0.5554 -0.1632
   32CHL1  H16A 2316   1.468   3.372   7.900  0.2986  3.3219 -0.1825
   32CHL1  H16B 2317   1.638   3.304   7.866 -0.2284 -0.1360 -0.2954
   32CHL1   C17 2318   1.620   3.506   7.813  0.5366 -0.2847 -0.4573
   32CHL1   H17 2319   1.721   3.486   7.773  1.2376  1.1478  0.4975
   32CHL1   C13 2320   1.551   3.565   7.693  0.8381 -0.2644 -0.2630
   32CHL1   C18 2321   1.415   3.633   7.735 -0.2709  0.0964  0.4582
   32CHL1  H18A 2322   1.351   3.647   7.646 -0.8127 -0.4760  0.7495
   32CHL1  H18B 2323   1.354   3.571   7.805 -1.6226 -0.1822 -0.9092
   32CHL1  H18C 2324   1.428   3.735   7.776  3.2503  0.5928 -1.5315
   32CHL1   C12 2325   1.637   3.662   7.599 -0.2427  0.1741 -0.1965
   32CHL1  H12A 2326   1.658   3.759   7.648 -0.0591  0.7821 -1.4205
   32CHL1  H12B 2327   1.726   3.599   7.579  0.6186  1.7434 -1.5263
   32CHL1   C11 2328   1.560   3.697   7.470 -0.8566 -1.1514 -0.3616
   32CHL1  H11A 2329   1.486   3.777   7.489  1.1449  0.6959  0.0744
   32CHL1  H11B 2330   1.638   3.762   7.425 -1.6564  1.5795  1.9464
   32CHL1    C9 2331   1.526   3.576   7.391  0.6769 -0.2833  0.3772
   32CHL1    H9 2332   1.628   3.539   7.366  0.3606 -1.4994  0.7887
   32CHL1   C10 2333   1.460   3.610   7.256 -0.4852 -0.1276  0.1177
   32CHL1   C19 2334   1.332   3.701   7.278  0.4567 -0.6987 -0.4741
   32CHL1  H19A 2335   1.255   3.642   7.331  1.1886 -2.1242 -0.9421
   32CHL1  H19B 2336   1.350   3.802   7.322  0.6938 -1.1219  0.4360
   32CHL1  H19C 2337   1.279   3.722   7.183 -1.4333 -0.4698  0.5795
   32CHL1    C1 2338   1.557   3.695   7.168 -0.5563  0.3302  0.6245
   32CHL1   H1A 2339   1.584   3.794   7.213 -2.4898  0.6893  1.0937
   32CHL1   H1B 2340   1.653   3.640   7.158  0.9815  3.0556 -1.0591
   32CHL1    C2 2341   1.505   3.721   7.022 -0.2024  0.8235  0.1603
   32CHL1   H2A 2342   1.579   3.759   6.949 -0.2779 -0.0780 -0.3944
   32CHL1   H2B 2343   1.425   3.798   7.020  1.1074  2.3230  1.7567
   32CHL1   C20 2344   1.630   3.579   7.949  0.3146  0.2719 -0.6860
   32CHL1   H20 2345   1.532   3.610   7.991  0.5459  0.5246 -0.3210
   32CHL1   C21 2346   1.714   3.711   7.930 -0.3745  0.1760 -0.7977
   32CHL1  H21A 2347   1.704   3.770   8.023 -1.9404 -1.4148  0.0927
   32CHL1  H21B 2348   1.668   3.771   7.848  1.0894  1.6122 -0.6342
   32CHL1  H21C 2349   1.816   3.682   7.896  0.9202  1.2499  1.8905
   32CHL1   C22 2350   1.697   3.495   8.063  0.6451  0.2997  0.5267
   32CHL1  H22A 2351   1.632   3.405   8.074 -0.4352  0.9006 -0.6837
   32CHL1  H22B 2352   1.801   3.477   8.027 -0.0436 -0.8803 -0.9770
   32CHL1   C23 2353   1.704   3.569   8.196 -0.4235 -0.5470  0.8243
   32CHL1  H23A 2354   1.778   3.652   8.190  1.7335 -2.4440 -0.2923
   32CHL1  H23B 2355   1.600   3.603   8.217 -0.3048  1.1604 -0.9768
   32CHL1   C24 2356   1.751   3.481   8.309 -0.0716  0.0234 -0.2769
   32CHL1  H24A 2357   1.672   3.403   8.312 -0.5388  0.4885 -0.4012
   32CHL1  H24B 2358   1.848   3.434   8.282  0.6090  0.9469  0.5241
   32CHL1   C25 2359   1.757   3.555   8.444 -0.3035 -0.5178 -0.4396
   32CHL1   H25 2360   1.820   3.645   8.433 -0.8019 -0.1763 -0.5358
   32CHL1   C26 2361   1.614   3.604   8.481 -0.5747 -0.1945  0.2848
   32CHL1  H26A 2362   1.621   3.635   8.588 -0.0944  1.0888 -0.0956
   32CHL1  H26B 2363   1.579   3.684   8.413  1.6700  0.7042  0.0881
   32CHL1  H26C 2364   1.539   3.524   8.468 -3.8569  2.4111  1.7053
   32CHL1   C27 2365   1.823   3.478   8.564  0.2268  0.6829  0.1421
   32CHL1  H27A 2366   1.930   3.460   8.544 -0.5111 -1.4901 -2.4546
   32CHL1  H27B 2367   1.822   3.523   8.666 -2.4325  3.0473 -0.7961
   32CHL1  H27C 2368   1.775   3.378   8.576 -2.0913  1.8691  1.7134
   33CHL1    C3 2369   3.780   3.120   6.745  0.4358 -0.2109  0.6732
   33CHL1    H3 2370   3.710   3.202   6.776  1.7283  0.9064  0.7280
   33CHL1    O3 2371   3.774   3.094   6.605  0.6501  0.7726 -0.9112
   33CHL1   H3' 2372   3.839   3.024   6.599  0.3936  0.6609 -3.4608
   33CHL1    C4 2373   3.921   3.165   6.791  0.6579 -0.1451  0.0050
   33CHL1   H4A 2374   3.990   3.096   6.737  0.9675  0.2998 -0.1725
   33CHL1   H4B 2375   3.929   3.265   6.743 -1.4172 -0.7530 -1.8079
   33CHL1    C5 2376   3.947   3.161   6.938 -0.5811  0.0474 -0.7618
   33CHL1    C6 2377   3.986   3.266   7.008 -0.4149  0.2973 -0.3240
   33CHL1    H6 2378   4.021   3.347   6.942 -1.7428  0.2286 -1.1660
   33CHL1    C7 2379   4.008   3.264   7.159  0.4575 -0.0017  0.1154
   33CHL1   H7A 2380   4.095   3.327   7.188 -1.4296  2.4631  0.6638
   33CHL1   H7B 2381   3.916   3.310   7.201 -1.5186 -3.4715 -0.0160
   33CHL1    C8 2382   4.028   3.119   7.216 -0.1112 -0.0987  0.2147
   33CHL1    H8 2383   4.119   3.063   7.184  0.2809  0.1121  0.9268
   33CHL1   C14 2384   4.028   3.125   7.368 -0.3352  0.5703 -0.6429
   33CHL1   H14 2385   3.944   3.193   7.394  1.3386  1.5696  2.8538
   33CHL1   C15 2386   4.135   3.207   7.440 -0.1883 -0.2750  0.5065
   33CHL1  H15A 2387   4.235   3.169   7.411  0.1956 -0.0377  1.4818
   33CHL1  H15B 2388   4.126   3.313   7.408 -0.5575 -0.6218 -0.5665
   33CHL1   C16 2389   4.115   3.169   7.587  0.2667 -0.1510  0.4166
   33CHL1  H16A 2390   4.219   3.151   7.622 -0.2454 -3.9471  0.3580
   33CHL1  H16B 2391   4.082   3.255   7.650 -0.5210  0.6282 -1.0022
   33CHL1   C17 2392   4.027   3.047   7.591  0.6105  0.3039  0.0784
   33CHL1   H17 2393   3.929   3.095   7.608 -0.2372 -0.8994 -1.2704
   33CHL1   C13 2394   4.018   2.993   7.452  0.2060  0.4123  0.4047
   33CHL1   C18 2395   4.132   2.899   7.429 -0.1515  0.0150 -0.2871
   33CHL1  H18A 2396   4.108   2.802   7.478 -1.1229  0.3427 -0.0885
   33CHL1  H18B 2397   4.155   2.887   7.321  1.9151  0.3152  0.0842
   33CHL1  H18C 2398   4.227   2.932   7.476 -0.4972 -0.1992  0.5945
   33CHL1   C12 2399   3.884   2.927   7.404  0.0544  1.2072  0.4906
   33CHL1  H12A 2400   3.881   2.829   7.457  0.5680  0.8027 -0.2135
   33CHL1  H12B 2401   3.796   2.992   7.422 -0.4254  0.9348 -0.7616
   33CHL1   C11 2402   3.890   2.901   7.250  0.8000  0.2895 -0.8254
   33CHL1  H11A 2403   3.975   2.832   7.232  1.6876  0.5402  1.8692
   33CHL1  H11B 2404   3.790   2.863   7.223 -0.5250  0.2697  3.4155
   33CHL1    C9 2405   3.907   3.035   7.161  0.2783 -0.0591 -0.0851
   33CHL1    H9 2406   3.824   3.103   7.190  0.2315  0.1978 -0.7860
   33CHL1   C10 2407   3.903   3.030   7.010 -0.6839  0.6709 -0.2478
   33CHL1   C19 2408   4.004   2.931   6.950  0.9416  0.7314 -0.0547
   33CHL1  H19A 2409   4.109   2.946   6.984  0.3229 -0.2688  2.4879
   33CHL1  H19B 2410   3.970   2.833   6.989  0.4398  0.9201 -0.0088
   33CHL1  H19C 2411   3.994   2.915   6.840 -0.4802  3.0095 -0.3284
   33CHL1    C1 2412   3.752   2.987   6.968 -0.1795 -0.0498 -0.1329
   33CHL1   H1A 2413   3.710   2.903   7.028  1.1624  0.1447  1.1115
   33CHL1   H1B 2414   3.691   3.073   7.004  1.0187  0.0227  1.8191
   33CHL1    C2 2415   3.739   2.992   6.818  0.4794 -0.1623 -0.0648
   33CHL1   H2A 2416   3.631   2.969   6.806  0.9160 -1.1053 -2.7516
   33CHL1   H2B 2417   3.789   2.910   6.763  1.2609  1.3081 -1.6284
   33CHL1   C20 2418   4.063   2.960   7.716  0.4435  0.6362  0.3504
   33CHL1   H20 2419   4.164   2.917   7.702  0.7228  1.0774  0.9617
   33CHL1   C21 2420   3.974   2.850   7.745  0.0086 -0.4020  0.3748
   33CHL1  H21A 2421   4.007   2.783   7.827 -0.9105 -0.9959  0.2728
   33CHL1  H21B 2422   3.955   2.783   7.658  1.2944 -0.4644  0.1289
   33CHL1  H21C 2423   3.873   2.891   7.769 -0.3120 -0.5037 -0.7216
   33CHL1   C22 2424   4.068   3.047   7.850 -0.1113  0.1465 -0.0357
   33CHL1  H22A 2425   4.145   3.125   7.831  0.9259 -0.4194  1.6495
   33CHL1  H22B 2426   3.973   3.106   7.853 -0.9437 -0.9699 -2.0115
   33CHL1   C23 2427   4.104   2.983   7.981 -0.1070  0.0081 -0.0123
   33CHL1  H23A 2428   4.031   2.903   8.006  0.8549 -0.8994 -0.0412
   33CHL1  H23B 2429   4.207   2.943   7.974  1.5447  3.8176  0.0186
   33CHL1   C24 2430   4.111   3.082   8.093  0.1739  0.7139 -0.1595
   33CHL1  H24A 2431   4.147   3.177   8.046 -0.3999  0.5484 -0.9601
   33CHL1  H24B 2432   4.009   3.098   8.136  0.3990  0.8863  0.3192
   33CHL1   C25 2433   4.209   3.047   8.204  0.1809  0.5518  0.0352
   33CHL1   H25 2434   4.306   3.018   8.158 -0.3896 -3.3167  0.9296
   33CHL1   C26 2435   4.239   3.169   8.299  0.2840 -0.0312 -0.2870
   33CHL1  H26A 2436   4.264   3.252   8.229  0.2520  0.6927  0.5468
   33CHL1  H26B 2437   4.142   3.195   8.346  0.7252  0.4751  0.3540
   33CHL1  H26C 2438   4.316   3.156   8.378  0.7510 -0.8349 -0.8578
   33CHL1   C27 2439   4.165   2.923   8.278  0.1952  0.0989  0.0555
   33CHL1  H27A 2440   4.222   2.915   8.373  0.1963 -1.5302 -0.0472
   33CHL1  H27B 2441   4.055   2.932   8.292  0.2932  0.1810  0.8090
   33CHL1  H27C 2442   4.168   2.824   8.227 -0.5865  0.7992 -1.4106
   34CHL1    C3 2443   4.987   1.690   7.146 -0.1331 -0.6249 -0.2016
   34CHL1    H3 2444   4.990   1.801   7.151  1.4170 -0.6755  0.6403
   34CHL1    O3 2445   5.016   1.645   7.015 -0.2234  0.3587 -1.0080
   34CHL1   H3' 2446   4.932   1.607   6.986 -0.6481  1.0644 -0.7243
   34CHL1    C4 2447   5.094   1.637   7.241 -0.3424 -0.0629 -0.1272
   34CHL1   H4A 2448   5.104   1.529   7.218 -1.4089 -0.1988 -0.0451
   34CHL1   H4B 2449   5.192   1.686   7.226  0.8801 -1.7647  1.9018
   34CHL1    C5 2450   5.058   1.665   7.386  0.7581 -0.4447 -0.3860
   34CHL1    C6 2451   5.143   1.731   7.469  0.6152 -0.0477  0.0222
   34CHL1    H6 2452   5.244   1.753   7.434 -0.2710  1.3645 -1.8070
   34CHL1    C7 2453   5.110   1.756   7.618  0.1983  0.7087  0.1320
   34CHL1   H7A 2454   5.199   1.724   7.675 -0.2309  1.9183  1.5380
   34CHL1   H7B 2455   5.079   1.861   7.638  0.5880  1.2868 -1.9422
   34CHL1    C8 2456   4.992   1.663   7.665  0.5753  1.1611  0.6038
   34CHL1    H8 2457   5.026   1.558   7.681 -1.0398  0.3218 -1.0435
   34CHL1   C14 2458   4.942   1.718   7.805  0.2491 -0.4557 -1.0475
   34CHL1   H14 2459   4.908   1.821   7.782  0.4358  0.1256  1.0965
   34CHL1   C15 2460   5.046   1.735   7.915  0.7230 -0.6435 -0.2152
   34CHL1  H15A 2461   5.109   1.643   7.914  0.5407 -0.7895  0.8020
   34CHL1  H15B 2462   5.110   1.824   7.896  1.5329 -1.0990  0.2874
   34CHL1   C16 2463   4.962   1.741   8.041 -0.0206  0.3388  0.4023
   34CHL1  H16A 2464   4.997   1.663   8.112 -1.5125 -0.7309  0.0255
   34CHL1  H16B 2465   4.958   1.844   8.084  0.6320  1.0160 -1.0963
   34CHL1   C17 2466   4.807   1.712   7.999  0.3634  0.6470  0.6657
   34CHL1   H17 2467   4.756   1.811   7.996 -1.1339 -0.0754 -2.5839
   34CHL1   C13 2468   4.825   1.635   7.868  0.1048  0.4934  0.0197
   34CHL1   C18 2469   4.865   1.484   7.897 -1.0457 -1.0297  0.0836
   34CHL1  H18A 2470   4.778   1.435   7.946 -1.2894  0.0910  0.7950
   34CHL1  H18B 2471   4.871   1.427   7.802  0.1223  0.4584 -0.7747
   34CHL1  H18C 2472   4.952   1.487   7.966 -0.6975  2.1473 -0.3354
   34CHL1   C12 2473   4.713   1.637   7.768 -0.0040  1.1199  0.3248
   34CHL1  H12A 2474   4.626   1.574   7.799  0.1737 -0.5727 -2.2745
   34CHL1  H12B 2475   4.681   1.743   7.756 -1.1963  0.6985 -0.4375
   34CHL1   C11 2476   4.744   1.591   7.628  0.2080 -0.5146 -0.5759
   34CHL1  H11A 2477   4.755   1.481   7.628 -0.8229 -0.6278  0.0247
   34CHL1  H11B 2478   4.651   1.614   7.571 -0.4985  0.0414  0.7601
   34CHL1    C9 2479   4.871   1.668   7.573 -0.1320  0.3490  0.0630
   34CHL1    H9 2480   4.847   1.776   7.564  1.1484  0.5474 -1.4469
   34CHL1   C10 2481   4.911   1.629   7.425  0.9328  0.2563  0.1139
   34CHL1   C19 2482   4.901   1.476   7.427  0.0910  0.9858  0.2257
   34CHL1  H19A 2483   4.803   1.427   7.446  1.4029 -2.0303 -0.2043
   34CHL1  H19B 2484   4.930   1.430   7.330  0.9860 -1.1062  1.4220
   34CHL1  H19C 2485   4.967   1.438   7.507  0.6229 -0.3096 -0.7800
   34CHL1    C1 2486   4.814   1.693   7.324 -0.2520 -0.0272  0.0210
   34CHL1   H1A 2487   4.711   1.660   7.347  0.4240 -0.8049  2.1988
   34CHL1   H1B 2488   4.827   1.803   7.338  2.3999 -0.4703  1.7883
   34CHL1    C2 2489   4.841   1.648   7.183 -0.4101  0.1474 -0.8462
   34CHL1   H2A 2490   4.773   1.694   7.108  2.4316  2.1900 -2.3306
   34CHL1   H2B 2491   4.833   1.538   7.170  0.9904 -0.2570  1.1132
   34CHL1   C20 2492   4.728   1.645   8.115 -0.0302  0.0371  0.0433
   34CHL1   H20 2493   4.772   1.549   8.149  1.6261  1.1159  1.0857
   34CHL1   C21 2494   4.578   1.634   8.081 -0.0990 -0.2337 -0.1644
   34CHL1  H21A 2495   4.535   1.737   8.080  0.6350  0.0865  0.4386
   34CHL1  H21B 2496   4.528   1.586   8.168  1.4213  0.7704  1.3324
   34CHL1  H21C 2497   4.555   1.579   7.987  0.0266 -0.8407  0.1548
   34CHL1   C22 2498   4.751   1.713   8.256 -0.2245 -0.1338  0.2946
   34CHL1  H22A 2499   4.860   1.705   8.276 -0.0036  0.4380 -0.6400
   34CHL1  H22B 2500   4.714   1.818   8.256 -2.2251 -0.7922  0.0207
   34CHL1   C23 2501   4.668   1.650   8.375  0.3723 -0.5275  0.2109
   34CHL1  H23A 2502   4.567   1.694   8.367  0.7759  0.3382 -0.2445
   34CHL1  H23B 2503   4.660   1.539   8.373  0.6901 -0.5422 -0.3783
   34CHL1   C24 2504   4.719   1.699   8.515  0.5651 -0.1254  0.4514
   34CHL1  H24A 2505   4.829   1.694   8.525  0.4961 -0.9146  0.8716
   34CHL1  H24B 2506   4.683   1.804   8.520 -1.0635 -0.4895 -1.9706
   34CHL1   C25 2507   4.656   1.621   8.633 -0.3916  0.2788  0.6709
   34CHL1   H25 2508   4.691   1.516   8.627  1.5440  0.7895  1.8333
   34CHL1   C26 2509   4.716   1.678   8.769 -0.1412 -0.1250  0.1070
   34CHL1  H26A 2510   4.827   1.671   8.763 -0.3411 -2.6641 -2.9105
   34CHL1  H26B 2511   4.688   1.784   8.786  0.5126 -0.0323  0.6802
   34CHL1  H26C 2512   4.686   1.626   8.863  1.9475  0.7113  1.3160
   34CHL1   C27 2513   4.502   1.629   8.640 -0.1899  0.4388  0.3286
   34CHL1  H27A 2514   4.448   1.587   8.552  1.4562 -0.9428 -0.0705
   34CHL1  H27B 2515   4.469   1.576   8.732  2.3050 -0.3306  0.8503
   34CHL1  H27C 2516   4.465   1.734   8.643  0.9180  0.8447 -0.0039
   35CHL1    C3 2517   1.128   2.723   7.164  0.5474 -0.1821 -0.1739
   35CHL1    H3 2518   1.224   2.668   7.161  1.0746  0.7260 -0.1612
   35CHL1    O3 2519   1.058   2.721   7.039 -0.2319 -0.3470 -0.2107
   35CHL1   H3' 2520   1.121   2.768   6.983 -2.3648  1.4489 -1.2485
   35CHL1    C4 2521   1.041   2.655   7.272  0.0188  0.0986  0.7876
   35CHL1   H4A 2522   0.939   2.696   7.255  0.9793  1.9595 -0.8829
   35CHL1   H4B 2523   1.038   2.544   7.264 -1.4065  0.1770 -0.1171
   35CHL1    C5 2524   1.102   2.679   7.414 -0.0448 -1.1674  0.0819
   35CHL1    C6 2525   1.123   2.578   7.501 -0.0103  0.3002 -0.3651
   35CHL1    H6 2526   1.105   2.474   7.470  3.8657 -1.1602  1.6469
   35CHL1    C7 2527   1.167   2.594   7.650 -0.0809 -0.2302 -0.3425
   35CHL1   H7A 2528   1.094   2.537   7.712 -2.0032  1.4931 -0.9075
   35CHL1   H7B 2529   1.268   2.558   7.679 -0.0693  1.3686  1.8877
   35CHL1    C8 2530   1.146   2.739   7.698  0.1371  0.0346 -0.2547
   35CHL1    H8 2531   1.037   2.752   7.716  0.4333  1.7522  0.4191
   35CHL1   C14 2532   1.234   2.755   7.823 -0.0852  0.7230  0.6726
   35CHL1   H14 2533   1.338   2.744   7.786 -0.6306 -1.6633 -0.3522
   35CHL1   C15 2534   1.223   2.657   7.936  0.0686 -0.1638 -0.5611
   35CHL1  H15A 2535   1.119   2.623   7.950  1.0820 -2.9593  1.0911
   35CHL1  H15B 2536   1.280   2.564   7.913 -0.6602 -0.4634 -1.2194
   35CHL1   C16 2537   1.275   2.728   8.057  0.0615  0.4898 -0.0621
   35CHL1  H16A 2538   1.189   2.738   8.126  0.5288  3.2072  0.2474
   35CHL1  H16B 2539   1.352   2.665   8.106  1.6444  1.5450 -1.0966
   35CHL1   C17 2540   1.304   2.866   8.006  0.4995  0.2753 -0.2538
   35CHL1   H17 2541   1.411   2.862   7.975  0.9470 -0.1882  1.2679
   35CHL1   C13 2542   1.213   2.890   7.888  0.7765  0.3284  0.4119
   35CHL1   C18 2543   1.065   2.915   7.931  0.1416  0.3743  0.1756
   35CHL1  H18A 2544   1.042   2.845   8.014 -0.0265  0.7719  0.4671
   35CHL1  H18B 2545   1.053   3.017   7.973  0.5746  0.1108  0.9563
   35CHL1  H18C 2546   0.994   2.910   7.846  0.0385  1.2626  0.2067
   35CHL1   C12 2547   1.276   2.994   7.789  0.3574  0.0861  0.2039
   35CHL1  H12A 2548   1.280   3.099   7.824  0.5651  0.3228 -0.5168
   35CHL1  H12B 2549   1.382   2.971   7.762  0.5282 -0.3124  1.1769
   35CHL1   C11 2550   1.199   2.986   7.654 -0.1598 -0.4952  0.7949
   35CHL1  H11A 2551   1.103   3.040   7.668  0.1880  1.3701 -2.7805
   35CHL1  H11B 2552   1.253   3.054   7.585  1.4531 -2.4944 -0.0148
   35CHL1    C9 2553   1.186   2.844   7.593 -0.0818 -0.2261  0.0817
   35CHL1    H9 2554   1.291   2.821   7.565  0.6133  1.2783  1.2873
   35CHL1   C10 2555   1.113   2.826   7.457  0.1223 -0.3158 -0.1318
   35CHL1   C19 2556   0.974   2.896   7.469  0.0029 -0.4387 -0.2113
   35CHL1  H19A 2557   0.906   2.832   7.528 -1.2758  0.6754 -0.4190
   35CHL1  H19B 2558   0.987   3.004   7.494  0.9764 -0.9150  1.5225
   35CHL1  H19C 2559   0.912   2.903   7.377 -1.3388  1.7681  0.7767
   35CHL1    C1 2560   1.201   2.894   7.343 -0.9046 -0.3725 -0.2288
   35CHL1   H1A 2561   1.195   3.004   7.360 -0.2872  0.3598 -3.9327
   35CHL1   H1B 2562   1.305   2.858   7.350 -0.5656  0.7307  1.0050
   35CHL1    C2 2563   1.147   2.871   7.206 -0.6369 -0.7278 -0.1688
   35CHL1   H2A 2564   1.195   2.933   7.127 -0.5834 -0.6951 -0.1122
   35CHL1   H2B 2565   1.054   2.928   7.186  0.6881  0.4594 -3.6776
   35CHL1   C20 2566   1.308   2.977   8.113  0.5124  0.1938  0.2271
   35CHL1   H20 2567   1.206   3.020   8.126  0.3326 -0.1777  0.0560
   35CHL1   C21 2568   1.405   3.094   8.075 -0.4218  0.1902 -0.1551
   35CHL1  H21A 2569   1.384   3.152   7.982  1.0764 -0.2857 -0.8327
   35CHL1  H21B 2570   1.511   3.061   8.072  0.1644  1.7805  1.4184
   35CHL1  H21C 2571   1.392   3.166   8.158 -1.2879 -2.1818  1.8908
   35CHL1   C22 2572   1.347   2.926   8.260 -0.2830  0.3429  0.3384
   35CHL1  H22A 2573   1.288   2.833   8.268 -1.2732  0.5977 -2.5056
   35CHL1  H22B 2574   1.456   2.907   8.269 -0.3087  0.0320  0.0008
   35CHL1   C23 2575   1.307   3.022   8.379 -0.1818  0.2504  0.0031
   35CHL1  H23A 2576   1.385   3.098   8.401 -1.7141  1.5853  1.0069
   35CHL1  H23B 2577   1.207   3.069   8.368 -1.0866 -1.7419 -0.8026
   35CHL1   C24 2578   1.307   2.953   8.522 -0.4431  0.1272 -0.0500
   35CHL1  H24A 2579   1.404   2.903   8.544  0.3010  2.1565  1.5836
   35CHL1  H24B 2580   1.283   3.028   8.600 -0.7313 -2.1613  2.2298
   35CHL1   C25 2581   1.196   2.845   8.538  0.0972  0.1460  0.6617
   35CHL1   H25 2582   1.216   2.763   8.466  0.8210 -0.9432  2.0422
   35CHL1   C26 2583   1.204   2.788   8.681  0.3529 -0.3141  0.3338
   35CHL1  H26A 2584   1.124   2.712   8.695 -0.1018 -0.0227 -0.5995
   35CHL1  H26B 2585   1.303   2.737   8.685  0.4098 -0.2053  0.2892
   35CHL1  H26C 2586   1.205   2.867   8.758 -2.5918 -1.3773  1.5961
   35CHL1   C27 2587   1.056   2.895   8.500  0.2420 -0.1510  0.5904
   35CHL1  H27A 2588   1.026   2.989   8.549 -1.9768 -0.7004  0.3705
   35CHL1  H27B 2589   0.974   2.824   8.524  1.2353 -2.5734 -2.5446
   35CHL1  H27C 2590   1.048   2.910   8.390  0.6781  0.8631  0.6861
   36CHL1    C3 2591   0.997   2.155   6.992  0.8463  0.1418 -0.2069
   36CHL1    H3 2592   0.998   2.266   6.985 -0.3400  0.0769 -2.0691
   36CHL1    O3 2593   0.968   2.109   6.858 -0.2478 -0.5396  0.4238
   36CHL1   H3' 2594   0.939   2.018   6.871 -0.2345 -0.5379  0.4660
   36CHL1    C4 2595   1.142   2.108   7.029 -0.0754 -0.0533 -0.0547
   36CHL1   H4A 2596   1.162   1.999   7.019 -0.0392 -0.1432  0.9045
   36CHL1   H4B 2597   1.218   2.158   6.966  2.6455 -1.3772  1.9735
   36CHL1    C5 2598   1.160   2.148   7.169 -0.5173 -0.2078 -0.3224
   36CHL1    C6 2599   1.258   2.233   7.199  0.4433  0.2575  0.7924
   36CHL1    H6 2600   1.322   2.273   7.119 -0.0116  1.0997  0.8433
   36CHL1    C7 2601   1.307   2.266   7.338  0.0802  0.1019 -0.3490
   36CHL1   H7A 2602   1.418   2.265   7.345  0.1709  3.6327  0.3395
   36CHL1   H7B 2603   1.281   2.371   7.363 -0.2142 -0.2198  0.7594
   36CHL1    C8 2604   1.243   2.172   7.448  0.9471  0.7182 -0.0043
   36CHL1    H8 2605   1.304   2.079   7.449 -1.1794 -0.7647  1.2250
   36CHL1   C14 2606   1.270   2.232   7.586 -0.2315  1.0438  0.2037
   36CHL1   H14 2607   1.216   2.329   7.585  0.7669  1.6223  0.7009
   36CHL1   C15 2608   1.411   2.263   7.627 -0.0146  0.0457 -0.1364
   36CHL1  H15A 2609   1.472   2.177   7.594 -0.2692 -0.5636  0.9372
   36CHL1  H15B 2610   1.444   2.365   7.597  0.5764  0.3815  1.5385
   36CHL1   C16 2611   1.408   2.260   7.785 -0.3081 -0.8461 -0.3530
   36CHL1  H16A 2612   1.483   2.184   7.813  0.5723  0.9614  2.6212
   36CHL1  H16B 2613   1.438   2.355   7.834  1.0086 -2.0434  1.2516
   36CHL1   C17 2614   1.257   2.250   7.820  0.3260 -0.5963  0.8086
   36CHL1   H17 2615   1.225   2.355   7.806 -1.5253 -1.0047  1.6707
   36CHL1   C13 2616   1.203   2.167   7.704 -0.2178  0.3314  0.5634
   36CHL1   C18 2617   1.247   2.023   7.710  0.0485 -0.5186  0.0828
   36CHL1  H18A 2618   1.223   1.969   7.616  0.0215  0.6342 -0.5882
   36CHL1  H18B 2619   1.354   2.018   7.737  0.1010 -0.2203 -0.0618
   36CHL1  H18C 2620   1.189   1.968   7.787 -0.3182 -1.4860 -0.8523
   36CHL1   C12 2621   1.048   2.181   7.676 -0.2471  0.2935 -0.1838
   36CHL1  H12A 2622   0.988   2.131   7.755  0.6497  0.0775  0.3699
   36CHL1  H12B 2623   1.028   2.289   7.661 -1.7721  0.1216  0.4735
   36CHL1   C11 2624   1.019   2.101   7.538 -0.1230 -0.6759 -0.2167
   36CHL1  H11A 2625   1.038   1.993   7.551  0.3669 -0.5309  0.2846
   36CHL1  H11B 2626   0.913   2.121   7.510  0.2193  2.8909  0.5667
   36CHL1    C9 2627   1.098   2.149   7.418 -0.8621 -0.3833 -0.8688
   36CHL1    H9 2628   1.063   2.253   7.401 -0.8321 -0.5783 -2.2192
   36CHL1   C10 2629   1.067   2.088   7.278  0.8392 -0.8144 -0.4012
   36CHL1   C19 2630   1.084   1.936   7.282  0.1552  0.6832  0.9431
   36CHL1  H19A 2631   1.007   1.890   7.347 -0.9958 -3.9616 -3.1566
   36CHL1  H19B 2632   1.089   1.889   7.182  1.4036  0.8280  0.9199
   36CHL1  H19C 2633   1.180   1.913   7.334 -0.4300 -0.3534  1.5935
   36CHL1    C1 2634   0.920   2.126   7.241  0.0002 -0.0454  0.4754
   36CHL1   H1A 2635   0.854   2.060   7.301 -2.6409  1.8170 -0.1930
   36CHL1   H1B 2636   0.896   2.234   7.249 -0.1318  0.1995 -2.1434
   36CHL1    C2 2637   0.886   2.094   7.088  0.1923  0.1835  0.1718
   36CHL1   H2A 2638   0.783   2.131   7.067 -0.0878 -0.6190  0.0672
   36CHL1   H2B 2639   0.887   1.984   7.068 -1.0392  0.4562 -1.6455
   36CHL1   C20 2640   1.211   2.221   7.965 -0.6357  0.5446  0.1604
   36CHL1   H20 2641   1.209   2.111   7.975 -0.1258  0.5182 -0.0015
   36CHL1   C21 2642   1.072   2.282   8.000 -0.7102 -0.2955  0.6959
   36CHL1  H21A 2643   0.982   2.246   7.946  0.3075 -3.0996  0.6729
   36CHL1  H21B 2644   1.072   2.390   7.973 -2.4445 -0.2267  0.9080
   36CHL1  H21C 2645   1.041   2.267   8.105  2.0230  2.9158  2.1634
   36CHL1   C22 2646   1.318   2.267   8.069  0.3239 -0.4517  0.5298
   36CHL1  H22A 2647   1.416   2.225   8.039  0.1415 -1.9664  1.8971
   36CHL1  H22B 2648   1.325   2.377   8.057  0.1186 -0.4210  0.6877
   36CHL1   C23 2649   1.297   2.216   8.214 -0.1124  0.4348 -1.2348
   36CHL1  H23A 2650   1.198   2.261   8.239 -1.2531 -1.5724 -1.9212
   36CHL1  H23B 2651   1.283   2.106   8.223  0.1866  0.5249  0.5894
   36CHL1   C24 2652   1.409   2.248   8.307  0.4455  0.8368 -0.0250
   36CHL1  H24A 2653   1.373   2.231   8.411 -2.4243 -0.1651 -1.0701
   36CHL1  H24B 2654   1.489   2.172   8.295 -1.6774 -1.2659 -1.7448
   36CHL1   C25 2655   1.456   2.389   8.301 -0.5846  0.3697 -0.0203
   36CHL1   H25 2656   1.478   2.433   8.201 -0.6639 -1.2564 -0.7820
   36CHL1   C26 2657   1.353   2.486   8.357  0.6556 -0.3916 -0.5106
   36CHL1  H26A 2658   1.257   2.478   8.302  0.4977 -2.8001  0.0411
   36CHL1  H26B 2659   1.340   2.469   8.466 -0.4552 -1.7460 -0.8264
   36CHL1  H26C 2660   1.389   2.589   8.336  2.0537 -0.8079 -0.2344
   36CHL1   C27 2661   1.586   2.396   8.392 -0.1195 -0.4804 -0.1346
   36CHL1  H27A 2662   1.581   2.335   8.484 -0.3128  0.4870  0.5084
   36CHL1  H27B 2663   1.681   2.391   8.335 -0.6679  0.7458 -1.2136
   36CHL1  H27C 2664   1.601   2.501   8.425 -0.4310 -0.2270 -0.7756
   37CHL1    C3 2665   4.599   3.573   6.862  0.4464 -0.8845  0.1048
   37CHL1    H3 2666   4.637   3.677   6.869  0.0442 -0.5521 -1.9414
   37CHL1    O3 2667   4.589   3.547   6.722  0.3499  0.1522 -0.6437
   37CHL1   H3' 2668   4.673   3.501   6.709 -0.1424 -1.3771  1.1613
   37CHL1    C4 2669   4.705   3.477   6.932  1.2922 -0.8649 -0.2191
   37CHL1   H4A 2670   4.675   3.377   6.895 -1.9994 -1.0070  2.3310
   37CHL1   H4B 2671   4.800   3.503   6.881  0.8666 -0.0496 -0.6091
   37CHL1    C5 2672   4.702   3.486   7.079 -0.2767  0.4230 -0.0926
   37CHL1    C6 2673   4.819   3.501   7.147 -0.0670  0.0827 -0.2124
   37CHL1    H6 2674   4.912   3.498   7.088  0.0907  0.0876  0.0369
   37CHL1    C7 2675   4.826   3.515   7.301  0.3689  0.6623  0.1533
   37CHL1   H7A 2676   4.919   3.469   7.342 -0.1153 -1.3153 -0.8780
   37CHL1   H7B 2677   4.819   3.625   7.317  1.8204  0.9692 -1.0456
   37CHL1    C8 2678   4.702   3.448   7.368 -0.4281 -0.0136 -0.1022
   37CHL1    H8 2679   4.723   3.339   7.359 -0.8797  0.0307 -1.9637
   37CHL1   C14 2680   4.698   3.484   7.514  0.0898 -0.0697 -0.2014
   37CHL1   H14 2681   4.681   3.594   7.526 -0.8176 -0.3680  1.5637
   37CHL1   C15 2682   4.827   3.459   7.596 -0.7716  0.0161  0.1143
   37CHL1  H15A 2683   4.874   3.362   7.568 -0.0122 -0.4733  2.8418
   37CHL1  H15B 2684   4.898   3.544   7.580 -0.6497  0.0725  0.8942
   37CHL1   C16 2685   4.766   3.449   7.740 -0.3890  0.2735 -0.5895
   37CHL1  H16A 2686   4.784   3.347   7.781 -3.1260 -0.4287 -0.9248
   37CHL1  H16B 2687   4.831   3.520   7.796  2.2044  0.6434 -3.7333
   37CHL1   C17 2688   4.615   3.462   7.738  0.1550  0.5409  0.0427
   37CHL1   H17 2689   4.585   3.569   7.737  1.3865  0.8939 -0.7224
   37CHL1   C13 2690   4.581   3.423   7.597 -0.5032  0.0224  0.5483
   37CHL1   C18 2691   4.574   3.273   7.596  0.1092  0.0365 -0.1254
   37CHL1  H18A 2692   4.580   3.221   7.498  0.2819  0.1013 -0.1504
   37CHL1  H18B 2693   4.662   3.233   7.652  0.9440  0.2064 -1.2764
   37CHL1  H18C 2694   4.478   3.242   7.643  0.2131  1.8009  1.3936
   37CHL1   C12 2695   4.454   3.490   7.545 -0.2584  0.3177  0.2207
   37CHL1  H12A 2696   4.361   3.443   7.584 -0.1685  1.1346  1.5047
   37CHL1  H12B 2697   4.458   3.601   7.553 -1.2040  0.3161  1.0274
   37CHL1   C11 2698   4.445   3.465   7.388 -0.1571  0.4692  0.2817
   37CHL1  H11A 2699   4.437   3.355   7.377  0.1260  0.0873  3.0851
   37CHL1  H11B 2700   4.360   3.522   7.346  1.3577  0.7743 -2.6332
   37CHL1    C9 2701   4.576   3.507   7.305 -0.0123  0.2656 -0.2534
   37CHL1    H9 2702   4.585   3.615   7.329  1.0801  0.2071 -0.3765
   37CHL1   C10 2703   4.566   3.482   7.150  0.4754  0.3434 -0.8724
   37CHL1   C19 2704   4.523   3.332   7.138  0.1195  0.0648  0.5979
   37CHL1  H19A 2705   4.510   3.310   7.030 -0.0012  2.1133  0.1538
   37CHL1  H19B 2706   4.588   3.260   7.192  1.0797  1.9942  2.1287
   37CHL1  H19C 2707   4.420   3.334   7.178 -0.7274  0.1539 -1.4452
   37CHL1    C1 2708   4.472   3.588   7.084  0.5826 -0.0132  0.6456
   37CHL1   H1A 2709   4.371   3.569   7.126  0.2672 -0.2555 -0.2076
   37CHL1   H1B 2710   4.492   3.697   7.098 -1.4357  0.6756 -1.2293
   37CHL1    C2 2711   4.461   3.566   6.933 -0.0591 -0.4869 -0.4798
   37CHL1   H2A 2712   4.389   3.636   6.887 -1.6689 -2.0142 -0.4025
   37CHL1   H2B 2713   4.424   3.462   6.916 -2.0341  0.2015 -0.6383
   37CHL1   C20 2714   4.553   3.388   7.859 -0.1794  0.1167  0.0746
   37CHL1   H20 2715   4.580   3.280   7.853 -0.3244 -0.1719  2.8661
   37CHL1   C21 2716   4.398   3.402   7.854  0.3886 -0.0375 -0.2357
   37CHL1  H21A 2717   4.367   3.409   7.960  1.2227  1.6064 -0.0710
   37CHL1  H21B 2718   4.353   3.313   7.805 -0.8093  0.6171 -0.3440
   37CHL1  H21C 2719   4.369   3.490   7.793 -1.7690 -0.8058 -0.3797
   37CHL1   C22 2720   4.606   3.443   7.995  1.6969  0.1396  0.3724
   37CHL1  H22A 2721   4.540   3.400   8.073 -0.2474 -0.3550 -1.4442
   37CHL1  H22B 2722   4.711   3.414   8.016  1.4430 -1.1736 -0.0744
   37CHL1   C23 2723   4.597   3.597   8.017  0.0118 -0.1610 -0.6798
   37CHL1  H23A 2724   4.675   3.651   7.959  1.6668  0.9577  2.3060
   37CHL1  H23B 2725   4.494   3.633   7.997  0.4673  0.7337 -1.5263
   37CHL1   C24 2726   4.624   3.629   8.166 -0.2135  0.1170 -0.5335
   37CHL1  H24A 2727   4.574   3.727   8.181 -0.0590  0.3590 -1.5310
   37CHL1  H24B 2728   4.576   3.550   8.227  1.5130 -0.6879 -0.1595
   37CHL1   C25 2729   4.769   3.641   8.204 -0.6733 -0.0220  0.3583
   37CHL1   H25 2730   4.828   3.551   8.177  0.9450  1.1499 -0.1350
   37CHL1   C26 2731   4.832   3.761   8.142  0.1905 -0.4304  0.4658
   37CHL1  H26A 2732   4.822   3.765   8.031  3.5752  1.3124  0.0806
   37CHL1  H26B 2733   4.792   3.850   8.193  1.1405 -0.4981  1.3514
   37CHL1  H26C 2734   4.943   3.754   8.148  0.2892  1.0211  0.6313
   37CHL1   C27 2735   4.782   3.668   8.352  0.6220 -0.0319 -0.1212
   37CHL1  H27A 2736   4.742   3.766   8.387 -0.0622 -1.0117  2.0448
   37CHL1  H27B 2737   4.731   3.595   8.419  0.0900  0.3152 -0.1452
   37CHL1  H27C 2738   4.887   3.670   8.389  0.3248 -0.3621  0.7786
   38CHL1    C3 2739   1.963   5.362   6.661  0.7335  0.0547  0.1766
   38CHL1    H3 2740   1.894   5.282   6.694  1.4454 -0.0545  1.4712
   38CHL1    O3 2741   1.932   5.378   6.522 -0.6829  0.4710  0.0835
   38CHL1   H3' 2742   1.876   5.456   6.527  0.3653  1.2040  0.7563
   38CHL1    C4 2743   1.925   5.500   6.727  0.2181 -0.4936 -0.5613
   38CHL1   H4A 2744   2.000   5.573   6.693  1.9804 -2.5773 -1.3882
   38CHL1   H4B 2745   1.822   5.536   6.706 -0.3698 -1.1853  0.9659
   38CHL1    C5 2746   1.925   5.492   6.879  0.0230 -0.5648  0.6489
   38CHL1    C6 2747   1.812   5.521   6.951 -0.1732 -0.0252 -0.0983
   38CHL1    H6 2748   1.714   5.533   6.902  0.2994  0.7998 -0.8687
   38CHL1    C7 2749   1.812   5.531   7.100  0.3239 -0.8083 -0.3558
   38CHL1   H7A 2750   1.756   5.621   7.134 -0.6517 -1.2385 -0.7683
   38CHL1   H7B 2751   1.745   5.445   7.125  0.0893 -0.8198 -0.9955
   38CHL1    C8 2752   1.956   5.513   7.161 -0.3350  0.3929 -0.3423
   38CHL1    H8 2753   2.010   5.611   7.165  2.0247 -0.8663  0.9152
   38CHL1   C14 2754   1.940   5.466   7.309 -0.1355 -0.4535  0.6372
   38CHL1   H14 2755   1.898   5.362   7.307 -2.1391  0.3129 -0.2181
   38CHL1   C15 2756   1.844   5.541   7.396 -0.0362  0.5609  0.2765
   38CHL1  H15A 2757   1.855   5.651   7.385 -2.4035  0.7141 -1.3896
   38CHL1  H15B 2758   1.740   5.509   7.374  0.0016 -2.7414  3.7958
   38CHL1   C16 2759   1.886   5.506   7.542  1.0767  0.4647  0.1058
   38CHL1  H16A 2760   1.903   5.598   7.602 -1.6195  0.8391  0.4074
   38CHL1  H16B 2761   1.802   5.441   7.574 -0.1200 -0.4705 -4.3044
   38CHL1   C17 2762   2.019   5.420   7.528 -0.2141  0.0832 -0.0159
   38CHL1   H17 2763   1.984   5.315   7.522  0.6712 -0.2385  0.3220
   38CHL1   C13 2764   2.076   5.452   7.386  0.1541  0.3803  0.1233
   38CHL1   C18 2765   2.156   5.588   7.393 -1.4808  0.1427 -0.4538
   38CHL1  H18A 2766   2.242   5.573   7.462 -0.5167  1.3358 -1.3485
   38CHL1  H18B 2767   2.189   5.633   7.297 -0.4868  0.8836  0.2092
   38CHL1  H18C 2768   2.102   5.668   7.447  1.6168  0.9128  1.8002
   38CHL1   C12 2769   2.150   5.340   7.312  0.1832  0.1646 -0.2512
   38CHL1  H12A 2770   2.246   5.319   7.365 -0.4423 -2.0086  0.1270
   38CHL1  H12B 2771   2.088   5.247   7.312  0.1474  0.1874 -0.0276
   38CHL1   C11 2772   2.177   5.378   7.168 -0.4030 -0.2264 -0.3607
   38CHL1  H11A 2773   2.250   5.461   7.175 -0.4854 -0.2381  0.8691
   38CHL1  H11B 2774   2.223   5.296   7.109 -0.8195  0.8629 -2.2712
   38CHL1    C9 2775   2.047   5.410   7.091 -0.0397  0.1867 -0.3551
   38CHL1    H9 2776   1.991   5.315   7.099  1.0136 -0.5481 -1.4010
   38CHL1   C10 2777   2.056   5.448   6.943  0.5743  0.3094  0.4025
   38CHL1   C19 2778   2.162   5.558   6.921 -0.1602 -0.1716 -0.0880
   38CHL1  H19A 2779   2.173   5.594   6.816  1.5272  2.0651  0.7878
   38CHL1  H19B 2780   2.140   5.650   6.978  0.1045 -0.1770  0.0216
   38CHL1  H19C 2781   2.257   5.509   6.952 -0.3630 -1.1648 -0.9427
   38CHL1    C1 2782   2.105   5.317   6.865  0.3329 -0.0627  0.0596
   38CHL1   H1A 2783   2.206   5.283   6.896  1.4938  1.7144 -1.5153
   38CHL1   H1B 2784   2.038   5.233   6.892  1.3322 -0.4986  1.2484
   38CHL1    C2 2785   2.105   5.314   6.702  0.0388 -0.7462  0.5027
   38CHL1   H2A 2786   2.130   5.214   6.662  2.1984 -0.9486  2.1773
   38CHL1   H2B 2787   2.172   5.394   6.664 -3.3043  1.6659 -0.8066
   38CHL1   C20 2788   2.108   5.428   7.653  0.4544  0.5169  0.0139
   38CHL1   H20 2789   2.156   5.527   7.662  1.5881 -0.1854  2.5202
   38CHL1   C21 2790   2.227   5.332   7.635 -0.2625  0.0814  0.2440
   38CHL1  H21A 2791   2.294   5.326   7.724 -1.2816  0.5148  1.0732
   38CHL1  H21B 2792   2.291   5.373   7.554  1.9883 -0.4173  1.6573
   38CHL1  H21C 2793   2.216   5.228   7.599  0.7238 -0.6912  2.0620
   38CHL1   C22 2794   2.037   5.397   7.791  0.5283  0.2056  0.4002
   38CHL1  H22A 2795   1.949   5.464   7.807  1.2320  0.7194  2.4504
   38CHL1  H22B 2796   2.007   5.290   7.793  2.1319 -0.2794 -0.0762
   38CHL1   C23 2797   2.126   5.421   7.912 -0.1646  0.2921 -0.7980
   38CHL1  H23A 2798   2.222   5.366   7.911 -0.4840 -0.3579  1.2093
   38CHL1  H23B 2799   2.154   5.529   7.914 -0.0238  0.2518  1.2313
   38CHL1   C24 2800   2.060   5.373   8.044  0.3390 -0.0558  0.1181
   38CHL1  H24A 2801   1.956   5.408   8.060  0.2015 -1.0326  1.5961
   38CHL1  H24B 2802   2.051   5.263   8.039  0.5023 -0.0587 -0.1166
   38CHL1   C25 2803   2.145   5.407   8.172 -0.4858  0.4680 -0.3024
   38CHL1   H25 2804   2.245   5.368   8.143 -2.3954 -2.2070 -4.2242
   38CHL1   C26 2805   2.160   5.556   8.190 -0.4181  0.4122  0.0667
   38CHL1  H26A 2806   2.064   5.609   8.206 -1.8476 -2.1284  0.3463
   38CHL1  H26B 2807   2.208   5.579   8.288 -2.1841  0.5598  0.9334
   38CHL1  H26C 2808   2.216   5.611   8.111 -0.4735  0.5768  0.1412
   38CHL1   C27 2809   2.085   5.344   8.304 -0.4944  0.6022 -0.0655
   38CHL1  H27A 2810   1.978   5.368   8.324 -0.1743  0.1696  2.5209
   38CHL1  H27B 2811   2.075   5.234   8.294 -1.4162  0.3780  2.5357
   38CHL1  H27C 2812   2.156   5.363   8.387 -1.8199 -1.7836  1.7342
   39CHL1    C3 2813   1.234   4.824   6.723 -0.0133 -0.8215 -0.7063
   39CHL1    H3 2814   1.341   4.848   6.707 -0.1249 -0.8063 -1.4795
   39CHL1    O3 2815   1.170   4.814   6.596 -0.0073 -0.0348 -0.1094
   39CHL1   H3' 2816   1.132   4.902   6.588 -1.4793 -0.4147  1.9441
   39CHL1    C4 2817   1.209   4.695   6.782 -1.4077  0.2086 -0.7307
   39CHL1   H4A 2818   1.101   4.668   6.778 -1.8300  1.8008 -1.0956
   39CHL1   H4B 2819   1.265   4.618   6.725 -0.5416 -1.4028  2.1369
   39CHL1    C5 2820   1.266   4.688   6.922 -0.2180  0.0159  1.1557
   39CHL1    C6 2821   1.351   4.595   6.963 -0.0410 -0.1534 -0.5300
   39CHL1    H6 2822   1.382   4.518   6.891 -0.4344  1.2218 -2.2467
   39CHL1    C7 2823   1.398   4.581   7.108 -0.3210 -0.5194 -0.1199
   39CHL1   H7A 2824   1.402   4.477   7.148  3.0842  0.2402  1.9800
   39CHL1   H7B 2825   1.502   4.616   7.126 -0.3167 -0.1191 -0.9103
   39CHL1    C8 2826   1.313   4.667   7.203  0.7140 -0.1147 -0.9378
   39CHL1    H8 2827   1.217   4.615   7.220  0.6643  0.3005  0.1389
   39CHL1   C14 2828   1.370   4.676   7.346  0.3135 -0.7726  0.2996
   39CHL1   H14 2829   1.463   4.736   7.337 -0.7490  1.0281  0.7832
   39CHL1   C15 2830   1.408   4.541   7.418  0.3179  0.1091  0.2560
   39CHL1  H15A 2831   1.317   4.479   7.403  0.1816 -0.0045  1.4280
   39CHL1  H15B 2832   1.493   4.492   7.366 -2.0572 -1.0384 -2.8821
   39CHL1   C16 2833   1.423   4.587   7.564 -0.6671 -0.6162 -0.0491
   39CHL1  H16A 2834   1.361   4.528   7.636 -0.8755 -2.4700 -1.6806
   39CHL1  H16B 2835   1.528   4.578   7.599 -0.7237 -1.3892 -0.0542
   39CHL1   C17 2836   1.380   4.749   7.573 -0.2790  1.0220  0.6773
   39CHL1   H17 2837   1.470   4.811   7.552  0.1715 -0.4076 -2.2482
   39CHL1   C13 2838   1.296   4.768   7.446 -0.0391  1.0438  0.6102
   39CHL1   C18 2839   1.153   4.712   7.480  0.0928 -0.5569 -0.1628
   39CHL1  H18A 2840   1.093   4.784   7.541  0.0622  0.8947 -1.8137
   39CHL1  H18B 2841   1.090   4.679   7.395  1.2361  1.6014 -1.9333
   39CHL1  H18C 2842   1.164   4.617   7.536  3.0292 -1.6344 -2.3163
   39CHL1   C12 2843   1.299   4.906   7.388  0.1359 -1.3774 -0.0991
   39CHL1  H12A 2844   1.258   4.981   7.460  2.9240  0.0027  0.1580
   39CHL1  H12B 2845   1.405   4.936   7.379 -0.2169  0.0304  0.0906
   39CHL1   C11 2846   1.234   4.911   7.250 -0.2550 -0.4731 -0.1114
   39CHL1  H11A 2847   1.124   4.910   7.266 -0.3107  2.0527  0.1519
   39CHL1  H11B 2848   1.249   5.013   7.210  1.5538 -0.5072  0.3707
   39CHL1    C9 2849   1.290   4.810   7.149 -0.8795  0.0059  0.6768
   39CHL1    H9 2850   1.393   4.849   7.131 -0.7982 -0.0739  0.9657
   39CHL1   C10 2851   1.214   4.804   7.017  0.1702  0.0132  0.1670
   39CHL1   C19 2852   1.067   4.763   7.052  0.3605 -0.5646  0.0198
   39CHL1  H19A 2853   1.011   4.845   7.102  0.6465 -0.6801  0.5337
   39CHL1  H19B 2854   1.008   4.735   6.962 -1.4814  1.9193  0.3434
   39CHL1  H19C 2855   1.062   4.671   7.114 -1.9723 -0.4140  0.1601
   39CHL1    C1 2856   1.228   4.936   6.939 -0.2834 -0.3719  0.3895
   39CHL1   H1A 2857   1.169   5.012   6.993 -0.6520  0.1528 -0.7253
   39CHL1   H1B 2858   1.333   4.971   6.932 -0.1328 -1.0704 -1.2988
   39CHL1    C2 2859   1.161   4.936   6.802  0.3074  0.2439  0.5742
   39CHL1   H2A 2860   1.191   5.034   6.758  2.4563 -0.0356  1.3042
   39CHL1   H2B 2861   1.050   4.933   6.808  0.3058  0.5418  0.7111
   39CHL1   C20 2862   1.326   4.777   7.716  0.4236  0.9580 -0.5099
   39CHL1   H20 2863   1.247   4.707   7.749  0.6742  0.6420 -0.5778
   39CHL1   C21 2864   1.251   4.914   7.720  0.1560 -0.2272 -0.4875
   39CHL1  H21A 2865   1.183   4.941   7.636  2.2932 -2.7334 -3.1962
   39CHL1  H21B 2866   1.321   4.999   7.709 -1.2790  1.0437 -0.2682
   39CHL1  H21C 2867   1.193   4.922   7.815 -2.1648  2.2914 -1.9756
   39CHL1   C22 2868   1.427   4.773   7.832  0.1269  0.0326  0.3435
   39CHL1  H22A 2869   1.503   4.692   7.829  2.5743  2.0107  3.1526
   39CHL1  H22B 2870   1.486   4.867   7.832  0.9971 -0.4811 -1.1873
   39CHL1   C23 2871   1.371   4.769   7.979  0.0289 -0.9721  0.1832
   39CHL1  H23A 2872   1.307   4.857   8.000  1.2920 -0.0384  0.2148
   39CHL1  H23B 2873   1.301   4.683   7.984 -0.1693 -0.8110  0.2351
   39CHL1   C24 2874   1.486   4.755   8.082 -0.0989 -0.0554  0.1049
   39CHL1  H24A 2875   1.551   4.678   8.034  0.0966  2.3728 -3.9950
   39CHL1  H24B 2876   1.546   4.848   8.071  0.5428 -0.2825  1.4236
   39CHL1   C25 2877   1.428   4.735   8.219  0.6634  0.4179 -0.1873
   39CHL1   H25 2878   1.375   4.826   8.257  0.1612  0.6138 -1.3079
   39CHL1   C26 2879   1.330   4.611   8.235  0.4555  0.1300 -0.0867
   39CHL1  H26A 2880   1.317   4.579   8.340  1.9829  2.4630  0.9020
   39CHL1  H26B 2881   1.236   4.647   8.188  1.2210  0.4432 -1.4519
   39CHL1  H26C 2882   1.382   4.538   8.170  1.5986  1.5193 -0.8105
   39CHL1   C27 2883   1.547   4.709   8.310  0.4099  0.2155 -0.3440
   39CHL1  H27A 2884   1.518   4.713   8.417 -0.6193  2.1243 -0.6525
   39CHL1  H27B 2885   1.570   4.601   8.301 -2.4940 -0.4589 -0.7135
   39CHL1  H27C 2886   1.641   4.768   8.300  1.6388 -1.4758  0.6664
   40CHL1    C3 2887   2.768   3.316   6.877 -0.0935 -0.3977  0.4723
   40CHL1    H3 2888   2.685   3.382   6.909  1.6159  1.4978  1.1758
   40CHL1    O3 2889   2.757   3.289   6.739  0.5635 -0.2024  0.5526
   40CHL1   H3' 2890   2.829   3.228   6.722  1.2485  0.4502  1.0580
   40CHL1    C4 2891   2.900   3.392   6.905  0.5299  0.6373  0.1434
   40CHL1   H4A 2892   2.981   3.320   6.880 -0.7898 -0.4004 -1.3703
   40CHL1   H4B 2893   2.911   3.480   6.838 -0.9844  0.9768  0.3172
   40CHL1    C5 2894   2.901   3.419   7.054 -0.0081 -0.8945 -0.4330
   40CHL1    C6 2895   2.921   3.542   7.098  0.9106 -0.1540  0.5644
   40CHL1    H6 2896   2.942   3.618   7.021  1.8978 -1.3823 -0.4185
   40CHL1    C7 2897   2.950   3.579   7.244 -0.0900 -0.1880 -1.0686
   40CHL1   H7A 2898   3.038   3.646   7.254 -0.5470  0.2507  0.4362
   40CHL1   H7B 2899   2.858   3.634   7.275 -0.6685 -1.0687 -1.2045
   40CHL1    C8 2900   2.971   3.460   7.335  0.1367 -0.1636 -0.7756
   40CHL1    H8 2901   3.075   3.428   7.313  1.8077  3.1684  1.3654
   40CHL1   C14 2902   2.964   3.491   7.487  1.2948 -0.0809 -0.1790
   40CHL1   H14 2903   2.857   3.516   7.506  1.1555 -1.1754  0.5689
   40CHL1   C15 2904   3.055   3.609   7.529 -0.5091  0.4906  0.5701
   40CHL1  H15A 2905   3.150   3.594   7.473 -0.8061  1.6854 -0.2833
   40CHL1  H15B 2906   3.004   3.703   7.500  0.3481  0.2813 -1.8503
   40CHL1   C16 2907   3.076   3.589   7.688  0.2908  0.0966 -0.0395
   40CHL1  H16A 2908   3.184   3.570   7.706  0.3503  1.2886  0.9941
   40CHL1  H16B 2909   3.026   3.666   7.750 -0.1735  0.0529 -0.3469
   40CHL1   C17 2910   2.999   3.452   7.718 -0.4528  0.2206  0.3110
   40CHL1   H17 2911   2.893   3.485   7.729 -0.1231  1.2808  0.3437
   40CHL1   C13 2912   3.006   3.380   7.581  0.0048  0.7159  0.6508
   40CHL1   C18 2913   3.144   3.334   7.543 -0.3723 -0.4276  0.3214
   40CHL1  H18A 2914   3.176   3.274   7.631  0.4855 -0.0861  0.2543
   40CHL1  H18B 2915   3.148   3.274   7.449  1.0576  0.7418 -0.4235
   40CHL1  H18C 2916   3.217   3.416   7.527 -0.1710 -1.0485 -2.5812
   40CHL1   C12 2917   2.905   3.267   7.557  0.6669  0.3775 -0.1158
   40CHL1  H12A 2918   2.942   3.181   7.616  2.1135  1.6230  0.8638
   40CHL1  H12B 2919   2.810   3.306   7.601  0.7485  2.3747 -1.5537
   40CHL1   C11 2920   2.881   3.228   7.409 -0.2542  0.6378 -0.1941
   40CHL1  H11A 2921   2.970   3.164   7.394  0.5855  1.2611  1.8231
   40CHL1  H11B 2922   2.793   3.160   7.409 -0.7076  1.1807  1.2222
   40CHL1    C9 2923   2.870   3.347   7.304 -0.2920  0.7046  1.1977
   40CHL1    H9 2924   2.766   3.383   7.322 -0.4025  1.3461 -0.4997
   40CHL1   C10 2925   2.888   3.298   7.155  0.2329  0.3206 -0.3775
   40CHL1   C19 2926   3.023   3.215   7.147 -0.3191  0.3171 -0.0245
   40CHL1  H19A 2927   3.113   3.269   7.185 -0.5798  1.7603 -1.3513
   40CHL1  H19B 2928   3.014   3.119   7.202 -2.2378  0.5747  0.1643
   40CHL1  H19C 2929   3.051   3.190   7.043  1.3375  1.8382 -0.0058
   40CHL1    C1 2930   2.766   3.207   7.107 -0.3224 -0.6382 -0.6298
   40CHL1   H1A 2931   2.760   3.110   7.160 -1.1941  0.2489  0.9794
   40CHL1   H1B 2932   2.671   3.256   7.138 -1.0235 -0.7434 -2.5135
   40CHL1    C2 2933   2.766   3.181   6.951  0.3588 -0.2470  0.2239
   40CHL1   H2A 2934   2.669   3.132   6.925 -0.3830  0.6621  1.2021
   40CHL1   H2B 2935   2.852   3.118   6.918  0.4005 -0.7940  1.3059
   40CHL1   C20 2936   3.038   3.390   7.855 -0.1079 -0.0627  0.0397
   40CHL1   H20 2937   3.114   3.314   7.830 -0.4670 -0.1547 -0.8078
   40CHL1   C21 2938   2.921   3.315   7.928 -0.1717  0.4575  0.2419
   40CHL1  H21A 2939   2.834   3.384   7.929 -1.6202 -1.2914 -0.2024
   40CHL1  H21B 2940   2.950   3.284   8.031 -1.2949 -0.5481  0.2779
   40CHL1  H21C 2941   2.885   3.230   7.865  0.5789  0.2868  0.0284
   40CHL1   C22 2942   3.103   3.496   7.950  0.0341 -0.3567  0.0396
   40CHL1  H22A 2943   3.200   3.523   7.903  1.4895 -2.0658  1.8922
   40CHL1  H22B 2944   3.038   3.583   7.973 -0.4130 -0.7791  0.3882
   40CHL1   C23 2945   3.147   3.428   8.086  0.4864 -0.0516  0.1744
   40CHL1  H23A 2946   3.061   3.404   8.152 -0.7284 -2.0307 -1.9644
   40CHL1  H23B 2947   3.192   3.331   8.055 -2.1273 -0.7779 -1.8065
   40CHL1   C24 2948   3.235   3.528   8.166 -0.1980  0.2530 -0.1631
   40CHL1  H24A 2949   3.321   3.556   8.103  0.1691 -0.8283 -0.1678
   40CHL1  H24B 2950   3.184   3.625   8.187  0.5260  0.2351  1.8947
   40CHL1   C25 2951   3.292   3.473   8.296 -0.0973 -0.0370 -0.0180
   40CHL1   H25 2952   3.364   3.393   8.267 -0.9100 -0.4811 -0.9050
   40CHL1   C26 2953   3.369   3.582   8.363 -0.3591  0.0181 -0.5100
   40CHL1  H26A 2954   3.411   3.541   8.458 -1.5139 -0.1334 -0.0466
   40CHL1  H26B 2955   3.457   3.606   8.300 -0.0302  0.6462  0.1648
   40CHL1  H26C 2956   3.309   3.675   8.375 -0.4027  0.9020 -5.3978
   40CHL1   C27 2957   3.185   3.422   8.389  0.0575  0.2763  0.0254
   40CHL1  H27A 2958   3.211   3.406   8.495 -0.6809  0.6423  0.2660
   40CHL1  H27B 2959   3.104   3.498   8.374  0.2534  0.0131 -3.1015
   40CHL1  H27C 2960   3.149   3.323   8.354 -2.0300  0.4068  1.6163
   41CHL1    C3 2961   3.457   3.381   6.949 -0.0730 -0.0172  0.0566
   41CHL1    H3 2962   3.404   3.478   6.941 -0.9951 -0.6137 -1.3447
   41CHL1    O3 2963   3.460   3.313   6.829  0.1417 -0.2672  0.2021
   41CHL1   H3' 2964   3.513   3.361   6.765 -0.3949 -2.6020 -2.1805
   41CHL1    C4 2965   3.602   3.385   7.004 -0.8785 -0.2226  0.0121
   41CHL1   H4A 2966   3.657   3.291   6.983  0.9971  0.7711  0.2591
   41CHL1   H4B 2967   3.666   3.453   6.944 -0.3881 -0.4594  0.2701
   41CHL1    C5 2968   3.614   3.429   7.149  1.2445 -0.3724  0.7203
   41CHL1    C6 2969   3.693   3.531   7.184  0.1630 -0.5274  0.5257
   41CHL1    H6 2970   3.763   3.571   7.109  2.8868  0.6354  3.4086
   41CHL1    C7 2971   3.715   3.561   7.328  0.1759  0.4806  0.1833
   41CHL1   H7A 2972   3.824   3.581   7.332 -0.2977  3.8559 -0.7243
   41CHL1   H7B 2973   3.661   3.656   7.351  2.2674  1.3196  2.0127
   41CHL1    C8 2974   3.681   3.441   7.423 -0.2445 -0.8104 -0.0489
   41CHL1    H8 2975   3.752   3.358   7.399 -0.0446 -0.1330 -2.0247
   41CHL1   C14 2976   3.691   3.488   7.568  0.5498 -0.5865  0.1132
   41CHL1   H14 2977   3.624   3.577   7.568 -1.6083 -2.0952  1.6136
   41CHL1   C15 2978   3.831   3.537   7.620  0.0656 -0.3221  0.2680
   41CHL1  H15A 2979   3.911   3.463   7.599  0.2614  0.1374 -0.6837
   41CHL1  H15B 2980   3.853   3.634   7.570  1.5013 -0.9713 -0.4363
   41CHL1   C16 2981   3.810   3.550   7.774  0.3304 -0.2980  0.5560
   41CHL1  H16A 2982   3.883   3.483   7.825 -1.0141 -0.2747  2.6303
   41CHL1  H16B 2983   3.810   3.656   7.806 -0.2108  0.3644 -1.4736
   41CHL1   C17 2984   3.669   3.486   7.799  0.0509  0.1056  0.3120
   41CHL1   H17 2985   3.600   3.573   7.788  3.2018  2.6311 -1.4998
   41CHL1   C13 2986   3.643   3.400   7.676  0.0587  0.0069 -0.7089
   41CHL1   C18 2987   3.732   3.269   7.690  0.0506 -0.8239  0.2796
   41CHL1  H18A 2988   3.829   3.289   7.740 -1.3222  0.9896  2.4018
   41CHL1  H18B 2989   3.675   3.190   7.742 -0.4836 -1.1802 -0.8213
   41CHL1  H18C 2990   3.755   3.216   7.594 -0.2871  1.3561 -1.0793
   41CHL1   C12 2991   3.490   3.365   7.639 -0.0751  0.2169 -0.4107
   41CHL1  H12A 2992   3.437   3.303   7.715  0.7244  2.1557  1.8670
   41CHL1  H12B 2993   3.436   3.461   7.628 -0.9196 -0.1942  0.0776
   41CHL1   C11 2994   3.490   3.300   7.506 -0.9322  0.0557  0.9517
   41CHL1  H11A 2995   3.570   3.224   7.494 -1.0899  0.1831 -1.1981
   41CHL1  H11B 2996   3.398   3.244   7.481 -0.3877 -0.0017 -1.0532
   41CHL1    C9 2997   3.537   3.395   7.394 -0.4350  0.7070  0.1336
   41CHL1    H9 2998   3.471   3.485   7.392 -0.6223  0.5685 -1.5236
   41CHL1   C10 2999   3.525   3.344   7.245 -0.0273 -0.3160 -0.4249
   41CHL1   C19 3000   3.577   3.204   7.247 -0.0414  0.2051 -0.0325
   41CHL1  H19A 3001   3.589   3.153   7.149  0.3167  0.3793 -0.0789
   41CHL1  H19B 3002   3.680   3.204   7.288 -0.2563  0.7250  0.5254
   41CHL1  H19C 3003   3.503   3.141   7.302  0.6959 -1.0450 -0.4343
   41CHL1    C1 3004   3.376   3.348   7.190  0.2106 -0.3517  0.2495
   41CHL1   H1A 3005   3.316   3.284   7.258  1.3226 -0.3601  1.2569
   41CHL1   H1B 3006   3.343   3.453   7.201 -0.7801 -0.7210  0.8977
   41CHL1    C2 3007   3.367   3.300   7.043  0.0217 -1.8441 -0.0351
   41CHL1   H2A 3008   3.263   3.314   7.006  0.3810 -0.0371 -0.4389
   41CHL1   H2B 3009   3.398   3.194   7.032  3.5920 -0.9157 -0.2334
   41CHL1   C20 3010   3.650   3.429   7.943  0.2166 -0.5357  0.1166
   41CHL1   H20 3011   3.730   3.354   7.959 -0.0896 -1.3555 -1.8350
   41CHL1   C21 3012   3.517   3.351   7.959  0.7912 -0.7344 -0.0857
   41CHL1  H21A 3013   3.513   3.261   7.894  2.0623 -1.0400  0.2355
   41CHL1  H21B 3014   3.443   3.429   7.933  1.4594  1.2862  3.3766
   41CHL1  H21C 3015   3.491   3.331   8.065 -3.9886  1.1065 -0.6428
   41CHL1   C22 3016   3.676   3.534   8.058 -0.3569  0.4716  0.0229
   41CHL1  H22A 3017   3.767   3.593   8.034  0.1902 -0.7575 -1.0672
   41CHL1  H22B 3018   3.589   3.600   8.076  0.2632  0.8113  1.9934
   41CHL1   C23 3019   3.696   3.463   8.197 -0.4863  0.1166  0.3314
   41CHL1  H23A 3020   3.599   3.433   8.242 -0.0752 -3.1600 -0.7069
   41CHL1  H23B 3021   3.760   3.374   8.180 -1.4011 -0.5896  0.5294
   41CHL1   C24 3022   3.760   3.560   8.298 -0.2008 -0.5588 -0.1056
   41CHL1  H24A 3023   3.858   3.605   8.270 -1.6993  2.4058 -0.9066
   41CHL1  H24B 3024   3.691   3.634   8.343  0.3100  0.1063 -0.4070
   41CHL1   C25 3025   3.800   3.481   8.427 -0.3494 -0.6475 -0.7096
   41CHL1   H25 3026   3.843   3.558   8.495  0.3280  0.4425 -2.3222
   41CHL1   C26 3027   3.686   3.405   8.500  0.3392  0.2949 -0.1022
   41CHL1  H26A 3028   3.641   3.327   8.434 -1.0200  0.4889  0.5733
   41CHL1  H26B 3029   3.730   3.345   8.583  2.8620  1.8863 -0.1800
   41CHL1  H26C 3030   3.619   3.477   8.551 -0.2662 -1.4376  1.7136
   41CHL1   C27 3031   3.923   3.390   8.403 -0.2873 -0.2828 -0.0982
   41CHL1  H27A 3032   3.899   3.307   8.333 -0.3401  1.9534 -2.9092
   41CHL1  H27B 3033   4.011   3.444   8.363  0.8362 -0.5093  1.9448
   41CHL1  H27C 3034   3.959   3.340   8.496 -0.0145 -1.4256 -0.8010
   42CHL1    C3 3035   6.559   6.323   6.826  0.3621 -0.5449 -0.9251
   42CHL1    H3 3036   6.651   6.265   6.853  1.2086  1.7232  1.5329
   42CHL1    O3 3037   6.568   6.355   6.693 -0.3860 -0.3390 -0.9545
   42CHL1   H3' 3038   6.475   6.366   6.672 -0.0584  2.2948 -1.3223
   42CHL1    C4 3039   6.442   6.225   6.846 -0.3390  0.4880 -0.2242
   42CHL1   H4A 3040   6.347   6.272   6.812  0.5394  2.2631 -0.3392
   42CHL1   H4B 3041   6.457   6.143   6.773  0.9535 -0.5842  1.1999
   42CHL1    C5 3042   6.439   6.190   6.993  0.3613 -0.1255  0.5420
   42CHL1    C6 3043   6.445   6.060   7.040 -0.0644 -0.3832  0.8815
   42CHL1    H6 3044   6.458   5.987   6.959 -1.4059 -1.1650  1.3419
   42CHL1    C7 3045   6.433   6.014   7.179 -0.3316  0.2293 -0.2138
   42CHL1   H7A 3046   6.378   5.918   7.188  2.1483 -1.1225  1.6514
   42CHL1   H7B 3047   6.538   5.993   7.207 -0.4348  1.7135  1.4494
   42CHL1    C8 3048   6.376   6.125   7.268  0.1034  0.1306 -0.0004
   42CHL1    H8 3049   6.266   6.128   7.252 -0.0599  2.2154  1.1140
   42CHL1   C14 3050   6.415   6.094   7.408 -0.1379  0.6507 -0.0617
   42CHL1   H14 3051   6.526   6.098   7.417 -0.3530  2.2590  3.2948
   42CHL1   C15 3052   6.372   5.948   7.460  1.3530 -0.0409 -0.0898
   42CHL1  H15A 3053   6.272   5.923   7.419  1.1586  1.5408 -0.6417
   42CHL1  H15B 3054   6.447   5.875   7.423 -0.3581 -0.6757 -2.5399
   42CHL1   C16 3055   6.385   5.966   7.607  0.8460  0.8204  0.0024
   42CHL1  H16A 3056   6.288   5.937   7.653  1.6941 -0.6404  0.9431
   42CHL1  H16B 3057   6.457   5.898   7.656 -0.8970 -1.4385 -0.3778
   42CHL1   C17 3058   6.413   6.113   7.638 -0.6026  0.2856  0.1643
   42CHL1   H17 3059   6.524   6.117   7.638 -0.3757 -3.0611 -1.0844
   42CHL1   C13 3060   6.362   6.190   7.513  0.8630  0.0821 -0.5364
   42CHL1   C18 3061   6.209   6.203   7.521  0.6792 -0.3495 -0.1640
   42CHL1  H18A 3062   6.157   6.105   7.529 -0.1501  0.0435 -0.5236
   42CHL1  H18B 3063   6.171   6.268   7.603  0.4521 -0.1451 -0.4282
   42CHL1  H18C 3064   6.165   6.248   7.429  0.5713 -0.0167  0.0499
   42CHL1   C12 3065   6.428   6.331   7.486  0.4939  0.0304  0.8471
   42CHL1  H12A 3066   6.378   6.407   7.549 -0.5094  0.4653 -0.4214
   42CHL1  H12B 3067   6.536   6.324   7.509  1.1607  0.4930 -1.7572
   42CHL1   C11 3068   6.410   6.368   7.335  0.3867  0.5066 -0.5556
   42CHL1  H11A 3069   6.303   6.401   7.333  0.0796 -0.3773  0.4483
   42CHL1  H11B 3070   6.475   6.457   7.319  0.7541  0.6965  1.6355
   42CHL1    C9 3071   6.438   6.261   7.230 -0.2121  0.2562  0.2381
   42CHL1    H9 3072   6.546   6.235   7.234 -0.2670 -1.0427 -3.0099
   42CHL1   C10 3073   6.418   6.309   7.087  0.8194  0.2971 -0.0850
   42CHL1   C19 3074   6.276   6.354   7.069  0.9095  0.3988  0.0920
   42CHL1  H19A 3075   6.260   6.445   7.131 -2.3322  0.5280 -0.7544
   42CHL1  H19B 3076   6.242   6.379   6.967  0.2860  1.7128  0.6007
   42CHL1  H19C 3077   6.208   6.272   7.100  0.8623  0.7792  1.0319
   42CHL1    C1 3078   6.523   6.422   7.060 -0.6381  0.0742  0.2996
   42CHL1   H1A 3079   6.493   6.516   7.110  0.4625  0.9588 -0.6524
   42CHL1   H1B 3080   6.619   6.388   7.104 -0.2127 -0.1542 -0.7735
   42CHL1    C2 3081   6.535   6.449   6.907 -0.1582 -0.2066 -0.3751
   42CHL1   H2A 3082   6.609   6.530   6.889 -0.3742 -0.1118 -0.8644
   42CHL1   H2B 3083   6.436   6.492   6.880 -0.0268  1.0833  1.0442
   42CHL1   C20 3084   6.382   6.168   7.775  0.1129 -0.2200  0.5245
   42CHL1   H20 3085   6.278   6.206   7.770 -0.2188 -1.2132 -2.0523
   42CHL1   C21 3086   6.471   6.290   7.805  0.4299  0.5070  0.5483
   42CHL1  H21A 3087   6.445   6.335   7.903 -0.2427 -2.4771  1.8330
   42CHL1  H21B 3088   6.460   6.371   7.729  0.2584  0.0807  0.1153
   42CHL1  H21C 3089   6.580   6.269   7.804  0.3890 -0.2532 -3.3564
   42CHL1   C22 3090   6.404   6.062   7.889  0.3600  0.9927 -0.6235
   42CHL1  H22A 3091   6.372   6.101   7.988  0.0164  0.9652 -0.7193
   42CHL1  H22B 3092   6.369   5.958   7.872  2.2714  0.3510 -0.8760
   42CHL1   C23 3093   6.552   6.031   7.912 -0.0349 -0.7436  0.1081
   42CHL1  H23A 3094   6.591   5.987   7.818  0.7714  2.7261 -1.3377
   42CHL1  H23B 3095   6.615   6.119   7.934 -0.7446  0.2267 -1.5642
   42CHL1   C24 3096   6.560   5.948   8.044 -0.0134 -0.1143 -0.0907
   42CHL1  H24A 3097   6.540   6.002   8.139 -1.1662  1.9238 -1.4253
   42CHL1  H24B 3098   6.484   5.867   8.034 -0.7741  0.4492  0.9464
   42CHL1   C25 3099   6.694   5.874   8.071  0.9231 -0.0894  0.4852
   42CHL1   H25 3100   6.726   5.829   7.974  0.9180 -1.6855  1.1919
   42CHL1   C26 3101   6.803   5.972   8.120 -0.0200 -0.3539 -0.0438
   42CHL1  H26A 3102   6.763   6.036   8.202 -0.5786 -2.9189  1.7968
   42CHL1  H26B 3103   6.886   5.917   8.168  2.1386  1.5146 -1.3767
   42CHL1  H26C 3104   6.830   6.032   8.030  0.3815 -0.0233  0.2921
   42CHL1   C27 3105   6.678   5.756   8.165  0.0338 -0.0428 -0.1941
   42CHL1  H27A 3106   6.642   5.798   8.261  0.8211 -1.1872  0.6331
   42CHL1  H27B 3107   6.771   5.710   8.204 -0.4572 -1.2758 -0.4002
   42CHL1  H27C 3108   6.612   5.679   8.118 -1.1672 -1.3289  3.2926
   43CHL1    C3 3109   6.120   0.053   6.905  0.6188 -0.0747  0.1125
   43CHL1    H3 3110   6.174   0.150   6.899 -1.9251  1.3702 -1.4239
   43CHL1    O3 3111   6.080   0.017   6.773  0.3785  0.0090 -0.1109
   43CHL1   H3' 3112   6.039  -0.069   6.778 -0.1058  0.1305 -1.6206
   43CHL1    C4 3113   6.213  -0.058   6.961 -0.2215 -0.5729 -0.2686
   43CHL1   H4A 3114   6.163  -0.155   6.939 -2.4686  0.4673 -0.0620
   43CHL1   H4B 3115   6.306  -0.053   6.900 -0.0088 -1.1269  0.0023
   43CHL1    C5 3116   6.239  -0.032   7.103 -0.3415 -0.1746  0.8644
   43CHL1    C6 3117   6.360  -0.027   7.153 -0.0907  0.6817 -0.0400
   43CHL1    H6 3118   6.441  -0.030   7.079 -0.5330  1.1194 -0.5558
   43CHL1    C7 3119   6.400  -0.023   7.304  0.6697 -0.3357  0.2244
   43CHL1   H7A 3120   6.499  -0.068   7.326  0.9627 -0.0048 -0.3747
   43CHL1   H7B 3121   6.425   0.078   7.342  0.0967 -0.5309  1.1475
   43CHL1    C8 3122   6.282  -0.065   7.397 -0.3504  0.4564  0.2524
   43CHL1    H8 3123   6.258  -0.174   7.394  1.1263  0.0736  1.1243
   43CHL1   C14 3124   6.310  -0.025   7.545  0.4118 -0.2451  0.4668
   43CHL1   H14 3125   6.325   0.085   7.552  0.3941 -0.2523  0.6147
   43CHL1   C15 3126   6.427  -0.093   7.620  0.5199  0.2085  0.1955
   43CHL1  H15A 3127   6.423  -0.202   7.597 -0.5770  0.2076  0.3406
   43CHL1  H15B 3128   6.521  -0.038   7.599 -0.1728  1.8080  1.1099
   43CHL1   C16 3129   6.400  -0.067   7.772  0.4937  0.3067 -0.3746
   43CHL1  H16A 3130   6.411  -0.166   7.822  1.1719  1.7333  2.5262
   43CHL1  H16B 3131   6.463   0.016   7.810  0.3125  0.3958 -0.2632
   43CHL1   C17 3132   6.249  -0.018   7.783  0.1707  0.1519  0.9533
   43CHL1   H17 3133   6.258   0.092   7.777 -1.2570  0.2280 -3.9660
   43CHL1   C13 3134   6.186  -0.053   7.641  0.6862  0.4382 -0.5062
   43CHL1   C18 3135   6.149  -0.205   7.642  0.3984  0.1400 -0.2982
   43CHL1  H18A 3136   6.235  -0.272   7.666  0.4259 -0.7582 -2.7005
   43CHL1  H18B 3137   6.058  -0.234   7.699  0.5616  1.5712  0.7639
   43CHL1  H18C 3138   6.131  -0.241   7.539  0.0703  0.9346 -0.5200
   43CHL1   C12 3139   6.069   0.036   7.593 -1.2195 -0.1813  0.3757
   43CHL1  H12A 3140   5.984   0.018   7.662 -1.1095 -0.3472  0.4658
   43CHL1  H12B 3141   6.095   0.144   7.600 -0.1887 -0.2011 -2.0029
   43CHL1   C11 3142   6.033   0.001   7.445  0.4808 -0.5385 -0.1249
   43CHL1  H11A 3143   5.998  -0.104   7.446  1.7936 -0.9878  0.5438
   43CHL1  H11B 3144   5.942   0.057   7.416  1.7583  0.2433 -2.8720
   43CHL1    C9 3145   6.157   0.019   7.350 -0.2524  0.0901  0.2341
   43CHL1    H9 3146   6.177   0.127   7.336  2.8946 -0.7950 -4.1230
   43CHL1   C10 3147   6.112  -0.015   7.200 -0.7442  0.1851  0.1545
   43CHL1   C19 3148   6.038  -0.149   7.204  0.9449  0.5687  0.8487
   43CHL1  H19A 3149   6.006  -0.183   7.103  1.0732 -0.8204  1.2650
   43CHL1  H19B 3150   6.099  -0.233   7.244 -1.1365 -0.6440  1.6417
   43CHL1  H19C 3151   5.944  -0.156   7.262 -0.3156  2.0450 -0.9033
   43CHL1    C1 3152   6.030   0.104   7.139 -0.5026 -0.6448 -0.0639
   43CHL1   H1A 3153   5.930   0.113   7.188 -1.1608 -1.6629 -1.1739
   43CHL1   H1B 3154   6.091   0.197   7.146 -1.1200 -0.2115 -0.3085
   43CHL1    C2 3155   5.997   0.075   6.996 -0.1520  0.2194  0.4147
   43CHL1   H2A 3156   5.944   0.166   6.959  0.2043  1.1159  2.0070
   43CHL1   H2B 3157   5.923  -0.006   6.977  1.2960 -0.7319 -1.4250
   43CHL1   C20 3158   6.185  -0.059   7.912 -0.0347  0.7389 -0.3599
   43CHL1   H20 3159   6.136  -0.159   7.909  2.2398 -0.4746  0.5600
   43CHL1   C21 3160   6.064   0.032   7.940 -0.2757 -0.8647  0.1303
   43CHL1  H21A 3161   5.969   0.016   7.886 -1.8295  1.5115  1.9412
   43CHL1  H21B 3162   6.092   0.138   7.922  1.4985 -1.2680  0.2911
   43CHL1  H21C 3163   6.030   0.042   8.045  1.0615  0.7733  0.4601
   43CHL1   C22 3164   6.280  -0.060   8.041  0.0681 -0.1495 -0.3788
   43CHL1  H22A 3165   6.209  -0.090   8.121 -0.7863 -0.0569 -1.0880
   43CHL1  H22B 3166   6.355  -0.141   8.030 -1.4967 -1.5410 -1.2497
   43CHL1   C23 3167   6.340   0.077   8.083  0.5076  0.2532 -0.3569
   43CHL1  H23A 3168   6.366   0.142   7.997  0.6069 -0.6626 -1.0408
   43CHL1  H23B 3169   6.263   0.135   8.138 -0.6817  2.4641 -4.0223
   43CHL1   C24 3170   6.462   0.058   8.167  0.4684 -0.5539  0.2385
   43CHL1  H24A 3171   6.447  -0.020   8.245  1.4521 -1.5533 -0.5333
   43CHL1  H24B 3172   6.545   0.013   8.108  0.8671 -0.9020  1.0498
   43CHL1   C25 3173   6.508   0.188   8.237  0.0893 -0.1911  0.3096
   43CHL1   H25 3174   6.522   0.265   8.158 -1.3897 -1.1638 -0.9529
   43CHL1   C26 3175   6.408   0.249   8.328 -0.2106  0.9550  0.1984
   43CHL1  H26A 3176   6.386   0.181   8.413  0.2387 -1.5836 -1.5845
   43CHL1  H26B 3177   6.448   0.340   8.377 -0.8717  0.6199  1.3847
   43CHL1  H26C 3178   6.311   0.272   8.279 -1.4018  1.6877  2.7694
   43CHL1   C27 3179   6.635   0.177   8.322 -0.0615  0.6197 -0.2162
   43CHL1  H27A 3180   6.716   0.121   8.270 -1.4346  0.2300 -2.0511
   43CHL1  H27B 3181   6.662   0.279   8.355 -3.8872  1.7438 -0.1196
   43CHL1  H27C 3182   6.604   0.121   8.413 -0.3848  1.0966 -0.0296
   44CHL1    C3 3183   4.984   3.185   6.871  0.2969 -0.1068  0.0393
   44CHL1    H3 3184   4.927   3.268   6.918  0.5820 -0.5771  1.2319
   44CHL1    O3 3185   4.961   3.191   6.731 -0.2911 -0.0544  0.0317
   44CHL1   H3' 3186   5.019   3.266   6.719  0.9573 -1.1113 -0.9832
   44CHL1    C4 3187   5.131   3.212   6.915  0.1166  0.4018  0.2071
   44CHL1   H4A 3188   5.202   3.131   6.888  1.3059  0.3526  3.0310
   44CHL1   H4B 3189   5.174   3.307   6.876  1.9546  0.1918  1.5692
   44CHL1    C5 3190   5.135   3.218   7.065  0.6492 -0.1249  0.1322
   44CHL1    C6 3191   5.195   3.320   7.127  0.2508 -0.0925  0.2642
   44CHL1    H6 3192   5.221   3.410   7.069 -2.6716  0.6093 -0.0959
   44CHL1    C7 3193   5.220   3.330   7.274 -0.0564 -0.2595 -0.3315
   44CHL1   H7A 3194   5.324   3.349   7.307 -0.9986  0.5880  2.3710
   44CHL1   H7B 3195   5.157   3.407   7.322 -1.3625 -2.6348  2.0253
   44CHL1    C8 3196   5.179   3.195   7.344 -0.2273  0.2764 -0.0796
   44CHL1    H8 3197   5.270   3.133   7.329  0.5196  1.3859 -0.2585
   44CHL1   C14 3198   5.161   3.212   7.499  0.1613 -0.5376  0.4973
   44CHL1   H14 3199   5.070   3.276   7.501  0.4125 -0.1087 -0.6426
   44CHL1   C15 3200   5.267   3.288   7.578  0.4825  0.2020 -0.8682
   44CHL1  H15A 3201   5.367   3.242   7.561  1.0468  1.3721 -0.8074
   44CHL1  H15B 3202   5.267   3.399   7.571  0.3232  0.5973  3.0960
   44CHL1   C16 3203   5.223   3.256   7.727 -0.1083  0.3510  0.2178
   44CHL1  H16A 3204   5.318   3.232   7.778  0.1503 -0.7991 -0.7531
   44CHL1  H16B 3205   5.187   3.342   7.787 -0.0590 -1.5558  3.1667
   44CHL1   C17 3206   5.122   3.136   7.722 -0.9678  0.8722 -0.4777
   44CHL1   H17 3207   5.021   3.177   7.745 -2.4154 -2.2753 -0.6775
   44CHL1   C13 3208   5.127   3.087   7.576  0.9372 -0.1354 -0.5975
   44CHL1   C18 3209   5.245   2.996   7.566 -0.0640  0.3149 -0.5373
   44CHL1  H18A 3210   5.331   3.030   7.626  1.4619 -2.6626 -0.8813
   44CHL1  H18B 3211   5.214   2.898   7.607 -1.7301  0.3118 -1.6990
   44CHL1  H18C 3212   5.284   2.980   7.463 -1.2712 -0.4812 -0.8907
   44CHL1   C12 3213   4.995   3.021   7.518 -0.0558 -0.0068  0.2596
   44CHL1  H12A 3214   4.957   2.934   7.577  0.6580 -0.8016 -0.4242
   44CHL1  H12B 3215   4.916   3.097   7.537 -0.1827 -0.4690  1.7186
   44CHL1   C11 3216   5.015   2.984   7.368  0.5365 -0.0042  0.9493
   44CHL1  H11A 3217   5.097   2.909   7.359  1.8896  1.4327  0.7835
   44CHL1  H11B 3218   4.915   2.949   7.335  0.2635  1.7659 -0.2745
   44CHL1    C9 3219   5.053   3.114   7.281 -0.5100 -0.5509 -0.2608
   44CHL1    H9 3220   4.967   3.184   7.290  2.6040  3.5143  0.8941
   44CHL1   C10 3221   5.076   3.092   7.136 -0.6096 -0.8226 -0.4472
   44CHL1   C19 3222   5.169   2.970   7.118 -0.4249  0.7942  0.0071
   44CHL1  H19A 3223   5.107   2.886   7.159  0.5234  0.2642  0.3899
   44CHL1  H19B 3224   5.198   2.958   7.012  1.4458 -1.2586  0.6844
   44CHL1  H19C 3225   5.261   2.977   7.179 -0.8660  1.6412  0.6019
   44CHL1    C1 3226   4.935   3.068   7.079 -0.1288  0.0699  0.0146
   44CHL1   H1A 3227   4.903   2.972   7.126  1.3859 -0.4047  0.1405
   44CHL1   H1B 3228   4.870   3.153   7.107 -0.3651 -0.4289  1.0292
   44CHL1    C2 3229   4.932   3.059   6.929 -0.3682 -0.5122  0.1376
   44CHL1   H2A 3230   4.823   3.054   6.907 -0.3196  0.6596 -0.4585
   44CHL1   H2B 3231   4.983   2.968   6.890 -1.0997 -0.1074 -1.8599
   44CHL1   C20 3232   5.149   3.035   7.843  0.4170  0.2192  0.2718
   44CHL1   H20 3233   5.250   2.989   7.837 -0.1148 -1.0845  0.8525
   44CHL1   C21 3234   5.046   2.925   7.823 -0.5284  0.1865  0.3010
   44CHL1  H21A 3235   4.938   2.951   7.824 -1.5338 -3.2833 -1.7539
   44CHL1  H21B 3236   5.052   2.850   7.905  0.3666 -2.3133 -1.9138
   44CHL1  H21C 3237   5.052   2.869   7.727 -1.2200  0.0968  0.3029
   44CHL1   C22 3238   5.144   3.113   7.975  1.0218 -0.4370 -0.4923
   44CHL1  H22A 3239   5.211   3.201   7.980 -0.3324  0.5746  1.2129
   44CHL1  H22B 3240   5.041   3.152   7.987  0.6698 -1.5488  0.2797
   44CHL1   C23 3241   5.163   3.024   8.110  0.1289 -0.7803  0.2239
   44CHL1  H23A 3242   5.081   2.951   8.126  0.4905 -1.2714 -0.1230
   44CHL1  H23B 3243   5.255   2.964   8.094  0.7682 -0.4062  2.1991
   44CHL1   C24 3244   5.197   3.112   8.228 -0.3922 -0.3795  0.1210
   44CHL1  H24A 3245   5.289   3.169   8.202 -0.3021 -1.7460 -3.1207
   44CHL1  H24B 3246   5.108   3.169   8.262 -0.6774  1.2177 -2.9033
   44CHL1   C25 3247   5.226   3.024   8.357  0.0696 -0.6220  0.7787
   44CHL1   H25 3248   5.324   2.975   8.338  0.8489  1.4975 -1.0793
   44CHL1   C26 3249   5.261   3.114   8.473  0.8444 -0.8047 -0.3735
   44CHL1  H26A 3250   5.285   3.044   8.556  1.3298 -1.0280 -0.6978
   44CHL1  H26B 3251   5.351   3.172   8.445  0.7182  0.4139  1.5971
   44CHL1  H26C 3252   5.175   3.178   8.500  0.2004 -2.2433  1.1627
   44CHL1   C27 3253   5.122   2.925   8.401 -0.5478 -1.4732  0.3243
   44CHL1  H27A 3254   5.165   2.858   8.479  1.5890  1.2210  1.6154
   44CHL1  H27B 3255   5.026   2.971   8.432  0.7011  1.9397 -0.5197
   44CHL1  H27C 3256   5.106   2.855   8.315  1.3541 -0.6689 -0.7561
   45CHL1    C3 3257   6.297   1.175   6.787 -0.8497 -0.1676  1.5729
   45CHL1    H3 3258   6.404   1.175   6.817 -1.2930  0.9700  3.3364
   45CHL1    O3 3259   6.303   1.194   6.647  0.4368  0.2709 -0.4299
   45CHL1   H3' 3260   6.213   1.220   6.624  1.1266  3.8397  0.1936
   45CHL1    C4 3261   6.245   1.035   6.822  0.3533  0.0931 -0.3545
   45CHL1   H4A 3262   6.135   1.034   6.807  0.0800 -2.6188  1.0610
   45CHL1   H4B 3263   6.296   0.954   6.765  1.5975  0.4381  0.2348
   45CHL1    C5 3264   6.264   1.017   6.968  0.2575  0.2729 -0.3877
   45CHL1    C6 3265   6.342   0.914   7.004 -0.1241 -0.3021 -0.2194
   45CHL1    H6 3266   6.376   0.841   6.929 -1.5503  1.0785 -2.3193
   45CHL1    C7 3267   6.361   0.883   7.154 -0.3674 -0.3107  0.2192
   45CHL1   H7A 3268   6.351   0.775   7.179 -1.8395  0.1736  1.9219
   45CHL1   H7B 3269   6.461   0.913   7.191 -1.8660  1.5444  3.1612
   45CHL1    C8 3270   6.265   0.955   7.254  0.2760  0.5504  0.2137
   45CHL1    H8 3271   6.167   0.903   7.251 -1.2074  3.1840 -0.5017
   45CHL1   C14 3272   6.316   0.949   7.396 -0.1118  0.1937  0.1734
   45CHL1   H14 3273   6.408   1.011   7.403 -1.0425  1.4619  2.1978
   45CHL1   C15 3274   6.358   0.813   7.449 -0.0621  0.3128 -1.0821
   45CHL1  H15A 3275   6.283   0.732   7.437 -0.3409  0.3208  0.4353
   45CHL1  H15B 3276   6.451   0.761   7.420 -0.0908 -1.2204  1.3417
   45CHL1   C16 3277   6.362   0.832   7.598 -0.3704 -0.6525 -0.3740
   45CHL1  H16A 3278   6.322   0.741   7.647  2.5149 -2.4146 -1.0463
   45CHL1  H16B 3279   6.467   0.834   7.634 -1.2293  1.9432  2.4306
   45CHL1   C17 3280   6.299   0.976   7.623 -0.2174  0.4174  0.1423
   45CHL1   H17 3281   6.390   1.039   7.633 -0.6413  0.7672  2.3787
   45CHL1   C13 3282   6.217   1.015   7.496 -0.5729 -0.2527 -0.1683
   45CHL1   C18 3283   6.082   0.937   7.496  0.2838  0.1390  0.1193
   45CHL1  H18A 3284   6.089   0.827   7.507 -2.5302 -0.0553  0.6814
   45CHL1  H18B 3285   6.015   0.965   7.580 -2.6888  2.7275 -2.8273
   45CHL1  H18C 3286   6.026   0.943   7.400  1.5529 -1.1618 -0.7522
   45CHL1   C12 3287   6.217   1.168   7.454 -0.4834 -0.6268 -0.1868
   45CHL1  H12A 3288   6.149   1.223   7.523 -0.5122 -0.2350 -0.5278
   45CHL1  H12B 3289   6.320   1.209   7.465  0.0430 -2.0900  0.6240
   45CHL1   C11 3290   6.184   1.186   7.312  0.6887 -0.4263  0.2367
   45CHL1  H11A 3291   6.076   1.166   7.299  1.2656 -1.7317 -4.2659
   45CHL1  H11B 3292   6.198   1.293   7.284  1.5429 -0.9625 -1.5171
   45CHL1    C9 3293   6.260   1.101   7.210 -0.5529  0.3551 -0.5420
   45CHL1    H9 3294   6.367   1.129   7.212 -0.4631 -0.0084  1.5144
   45CHL1   C10 3295   6.201   1.128   7.060 -0.0237 -0.8355 -0.6168
   45CHL1   C19 3296   6.046   1.108   7.063 -0.0966  0.3722  0.4281
   45CHL1  H19A 3297   6.014   1.122   6.957  3.7650  0.4385 -0.8638
   45CHL1  H19B 3298   6.015   1.014   7.113 -2.2990  2.6476  3.8016
   45CHL1  H19C 3299   6.005   1.196   7.117  0.5829  0.8759  0.1389
   45CHL1    C1 3300   6.245   1.271   7.014 -0.4353 -0.1859  0.4750
   45CHL1   H1A 3301   6.195   1.356   7.065 -0.3221  0.6472 -0.7787
   45CHL1   H1B 3302   6.353   1.280   7.040  0.1023 -0.3406 -1.5540
   45CHL1    C2 3303   6.224   1.286   6.859  0.0926 -0.2601  0.4856
   45CHL1   H2A 3304   6.263   1.386   6.834 -3.3988  1.0156 -0.4794
   45CHL1   H2B 3305   6.115   1.295   6.836  0.1589  2.4103  0.9290
   45CHL1   C20 3306   6.235   0.986   7.763  0.0401 -0.2610 -0.3204
   45CHL1   H20 3307   6.158   0.907   7.776  0.1162 -0.3143 -0.1943
   45CHL1   C21 3308   6.162   1.118   7.783 -0.3504 -0.2187  0.1299
   45CHL1  H21A 3309   6.111   1.127   7.881 -0.6888  1.0525 -0.1427
   45CHL1  H21B 3310   6.092   1.128   7.697 -0.4528  0.2004  0.2604
   45CHL1  H21C 3311   6.235   1.201   7.775 -0.2621 -0.3513 -0.5084
   45CHL1   C22 3312   6.340   0.976   7.880 -0.7722 -0.4152  0.6874
   45CHL1  H22A 3313   6.371   0.869   7.889  0.4903 -0.1884 -0.5806
   45CHL1  H22B 3314   6.426   1.039   7.848 -0.6418 -2.0444 -2.5473
   45CHL1   C23 3315   6.296   1.014   8.016 -0.5869  0.0907 -0.2335
   45CHL1  H23A 3316   6.303   1.124   8.028 -1.7214  0.1992 -0.4503
   45CHL1  H23B 3317   6.200   0.969   8.049  0.8105 -1.0185  2.6517
   45CHL1   C24 3318   6.389   0.961   8.126 -0.0289  0.4363 -0.0150
   45CHL1  H24A 3319   6.404   0.851   8.119 -1.0326  0.2695  0.1882
   45CHL1  H24B 3320   6.489   1.007   8.116 -0.1129  0.2929 -2.1040
   45CHL1   C25 3321   6.337   0.996   8.267 -1.0397  0.8133 -0.3020
   45CHL1   H25 3322   6.237   0.948   8.277 -0.1216 -1.5114 -1.4615
   45CHL1   C26 3323   6.435   0.935   8.371  0.2849 -0.4432 -0.7423
   45CHL1  H26A 3324   6.396   0.971   8.469  0.9613  1.5402 -1.1593
   45CHL1  H26B 3325   6.439   0.824   8.371 -0.8989 -0.5011 -0.6970
   45CHL1  H26C 3326   6.535   0.982   8.362 -0.3028  1.0508  0.1775
   45CHL1   C27 3327   6.323   1.141   8.304 -0.2391  0.0014  0.5376
   45CHL1  H27A 3328   6.262   1.151   8.397  0.0877  1.3488  0.6352
   45CHL1  H27B 3329   6.423   1.188   8.314 -0.1744 -0.2377  1.0309
   45CHL1  H27C 3330   6.277   1.200   8.223  0.9175  0.1780 -0.0149
   46CHL1    C3 3331   6.529   3.240   7.064 -0.3616  0.2055  0.1264
   46CHL1    H3 3332   6.488   3.143   7.100  0.3339 -0.2997 -0.4167
   46CHL1    O3 3333   6.479   3.279   6.939  0.0918  0.0271  0.2492
   46CHL1   H3' 3334   6.512   3.212   6.878  0.1983 -0.2547  0.6108
   46CHL1    C4 3335   6.493   3.353   7.167  0.0180 -0.1894  0.3360
   46CHL1   H4A 3336   6.536   3.452   7.139  3.2257 -1.2140  1.1342
   46CHL1   H4B 3337   6.383   3.358   7.172  0.0216 -0.2874  0.5142
   46CHL1    C5 3338   6.554   3.324   7.302 -0.5117 -0.0686  0.7058
   46CHL1    C6 3339   6.471   3.319   7.407  0.0322  0.4287 -0.4702
   46CHL1    H6 3340   6.363   3.337   7.403 -0.2751 -0.9312  0.8731
   46CHL1    C7 3341   6.525   3.314   7.547  0.1131 -0.5616 -0.1658
   46CHL1   H7A 3342   6.481   3.392   7.612 -3.6525 -0.0232 -2.9947
   46CHL1   H7B 3343   6.503   3.213   7.589  4.3471 -0.9044  1.7168
   46CHL1    C8 3344   6.680   3.318   7.559 -0.2628  1.4861 -0.0838
   46CHL1    H8 3345   6.706   3.426   7.554  0.9368  1.2094 -0.1729
   46CHL1   C14 3346   6.723   3.259   7.686  0.0980 -0.0923 -0.1567
   46CHL1   H14 3347   6.689   3.154   7.672  0.3945 -0.1955 -0.1130
   46CHL1   C15 3348   6.658   3.318   7.808  0.2390  0.2208  0.4557
   46CHL1  H15A 3349   6.648   3.428   7.797 -2.8918 -0.2285 -4.1971
   46CHL1  H15B 3350   6.558   3.274   7.831  0.8365 -0.8358  1.1368
   46CHL1   C16 3351   6.745   3.278   7.931 -0.2494  0.8420  0.0504
   46CHL1  H16A 3352   6.781   3.374   7.971 -0.1755  0.3316  1.2580
   46CHL1  H16B 3353   6.686   3.209   7.996  1.4888 -3.5625 -2.6032
   46CHL1   C17 3354   6.876   3.211   7.867  0.1742  0.5282  0.3359
   46CHL1   H17 3355   6.856   3.102   7.874 -3.5508  1.1198  0.9116
   46CHL1   C13 3356   6.873   3.255   7.716 -0.1359 -0.2806 -0.2330
   46CHL1   C18 3357   6.934   3.406   7.708 -0.4769  0.2976  0.4806
   46CHL1  H18A 3358   6.886   3.451   7.797  0.8513  1.9492  0.4232
   46CHL1  H18B 3359   7.044   3.411   7.726 -0.6562 -1.0731  2.1725
   46CHL1  H18C 3360   6.916   3.460   7.612 -3.9777  2.4648  2.1941
   46CHL1   C12 3361   6.926   3.166   7.602 -0.2670  0.0890  0.4653
   46CHL1  H12A 3362   7.037   3.169   7.609 -0.3727  2.7422  2.7692
   46CHL1  H12B 3363   6.893   3.061   7.615  0.4397 -0.0557  1.2018
   46CHL1   C11 3364   6.897   3.212   7.460  0.1924 -0.0217  0.3106
   46CHL1  H11A 3365   6.949   3.309   7.445  0.6670 -0.0568  1.6003
   46CHL1  H11B 3366   6.935   3.130   7.397  2.7905  1.2930  0.0603
   46CHL1    C9 3367   6.740   3.239   7.442 -0.2199  0.0224  0.1744
   46CHL1    H9 3368   6.695   3.138   7.450  1.2243 -0.7689 -1.2162
   46CHL1   C10 3369   6.706   3.299   7.306  0.7114 -0.3983  0.0954
   46CHL1   C19 3370   6.780   3.437   7.285  0.4382 -0.4255  0.0367
   46CHL1  H19A 3371   6.785   3.501   7.375 -1.0771 -1.6963  1.0620
   46CHL1  H19B 3372   6.886   3.412   7.263  1.0950  1.4023  0.9430
   46CHL1  H19C 3373   6.723   3.503   7.215 -0.4332  1.0540  2.0511
   46CHL1    C1 3374   6.747   3.193   7.198  0.8314 -0.3349  0.2123
   46CHL1   H1A 3375   6.857   3.190   7.184  1.0721 -1.0187  2.0040
   46CHL1   H1B 3376   6.718   3.096   7.244 -1.3259  0.0215 -0.2708
   46CHL1    C2 3377   6.682   3.221   7.059 -0.2120 -0.6234  0.4842
   46CHL1   H2A 3378   6.708   3.132   6.997 -0.4104 -0.6701  0.4656
   46CHL1   H2B 3379   6.722   3.315   7.016 -1.5359 -0.7965 -1.2527
   46CHL1   C20 3380   6.997   3.245   7.951 -0.0005 -0.1781 -0.3301
   46CHL1   H20 3381   7.007   3.355   7.945 -0.9122 -0.1504 -1.7134
   46CHL1   C21 3382   7.123   3.179   7.898  0.3098  0.4674  1.1830
   46CHL1  H21A 3383   7.108   3.070   7.882 -1.2649  0.9727 -1.4002
   46CHL1  H21B 3384   7.209   3.187   7.968  0.4208 -1.0673  1.2494
   46CHL1  H21C 3385   7.154   3.218   7.798 -3.5256 -3.5838 -2.0215
   46CHL1   C22 3386   6.981   3.225   8.106  0.3216  0.8368 -0.7373
   46CHL1  H22A 3387   7.076   3.264   8.148  1.4235 -0.8650 -1.5157
   46CHL1  H22B 3388   6.903   3.298   8.136  0.7854  0.8278  0.5246
   46CHL1   C23 3389   6.938   3.090   8.170 -0.0318 -0.0984  0.2894
   46CHL1  H23A 3390   6.841   3.055   8.129  1.7376  0.7190 -5.5298
   46CHL1  H23B 3391   7.004   3.007   8.136 -1.0144 -0.5306 -0.6218
   46CHL1   C24 3392   6.934   3.077   8.326 -0.6983 -0.2457 -0.2215
   46CHL1  H24A 3393   7.036   3.046   8.357 -1.3428  1.2002  3.9742
   46CHL1  H24B 3394   6.921   3.179   8.368 -0.3655 -0.8957  1.5558
   46CHL1   C25 3395   6.828   2.985   8.387 -0.6717 -0.5889  0.0078
   46CHL1   H25 3396   6.847   2.885   8.342  0.5630 -0.1358 -0.5179
   46CHL1   C26 3397   6.869   2.972   8.535  0.0600  0.3522 -0.4664
   46CHL1  H26A 3398   6.978   2.962   8.550  0.0385 -1.8978 -1.3879
   46CHL1  H26B 3399   6.830   3.059   8.593  0.2972 -1.1788  2.1423
   46CHL1  H26C 3400   6.815   2.891   8.589 -1.0219  2.1008  1.2171
   46CHL1   C27 3401   6.680   3.012   8.376 -0.3001  0.1956  0.6780
   46CHL1  H27A 3402   6.657   3.036   8.269  1.7234  0.9366  0.3649
   46CHL1  H27B 3403   6.622   2.924   8.411 -2.9108  1.6661  0.3127
   46CHL1  H27C 3404   6.660   3.110   8.425  1.7719 -0.0713  2.1819
   47CHL1    C3 3405   6.075   2.946   6.802  0.1605  0.0759  0.2729
   47CHL1    H3 3406   6.183   2.961   6.782 -0.4323  2.9327 -1.3710
   47CHL1    O3 3407   6.002   2.964   6.684  0.0388  0.1552  0.7319
   47CHL1   H3' 3408   5.927   2.904   6.683  1.2979 -1.5152 -0.3966
   47CHL1    C4 3409   6.052   2.804   6.860 -0.0596  0.0081  0.2001
   47CHL1   H4A 3410   5.942   2.790   6.875 -0.4981  2.0176 -0.8237
   47CHL1   H4B 3411   6.061   2.724   6.783 -3.5601  2.0549 -2.6736
   47CHL1    C5 3412   6.127   2.776   6.987 -0.3258  0.4629  0.0438
   47CHL1    C6 3413   6.201   2.664   7.007 -0.1223 -0.3905 -0.1832
   47CHL1    H6 3414   6.212   2.587   6.929  1.1264 -0.3146 -0.1066
   47CHL1    C7 3415   6.265   2.626   7.140  0.2752 -0.5434  0.0169
   47CHL1   H7A 3416   6.224   2.524   7.159 -0.3541 -0.2871  0.0571
   47CHL1   H7B 3417   6.375   2.625   7.129  0.4448 -0.7791  1.5215
   47CHL1    C8 3418   6.225   2.730   7.252  0.6016 -0.3674  0.4446
   47CHL1    H8 3419   6.133   2.688   7.299  0.7414 -1.3444 -0.1348
   47CHL1   C14 3420   6.327   2.720   7.364 -0.4942 -0.0838  0.9171
   47CHL1   H14 3421   6.417   2.759   7.313 -0.5888 -0.6914  0.2596
   47CHL1   C15 3422   6.375   2.577   7.410  0.5101  0.3098 -0.2463
   47CHL1  H15A 3423   6.291   2.511   7.437  0.5958 -0.9399 -2.7672
   47CHL1  H15B 3424   6.448   2.524   7.345  0.6815 -0.8639  0.8719
   47CHL1   C16 3425   6.456   2.619   7.536 -0.1065  0.3267  0.0782
   47CHL1  H16A 3426   6.444   2.537   7.610 -0.7194  0.2650 -0.0824
   47CHL1  H16B 3427   6.562   2.613   7.504 -0.1819 -0.7311 -0.0138
   47CHL1   C17 3428   6.414   2.759   7.577 -0.5082  0.3795 -0.4269
   47CHL1   H17 3429   6.497   2.827   7.550  1.1545 -1.3923  0.0441
   47CHL1   C13 3430   6.297   2.807   7.486  0.1458  0.2993  0.0667
   47CHL1   C18 3431   6.166   2.762   7.551 -0.5063 -0.9305  0.5930
   47CHL1  H18A 3432   6.171   2.668   7.610 -1.1133 -0.2606  1.7417
   47CHL1  H18B 3433   6.130   2.852   7.604 -0.3718  0.1090 -1.0237
   47CHL1  H18C 3434   6.085   2.736   7.480  0.4970 -1.1564 -0.4938
   47CHL1   C12 3435   6.284   2.948   7.442 -0.3395 -0.8625  0.1683
   47CHL1  H12A 3436   6.276   3.023   7.523 -0.9093 -0.8707  0.1269
   47CHL1  H12B 3437   6.384   2.971   7.401  0.0488  2.0594  2.5030
   47CHL1   C11 3438   6.182   2.974   7.329  0.9719  0.9839  0.1243
   47CHL1  H11A 3439   6.082   2.951   7.372  0.3372  0.1404 -1.6920
   47CHL1  H11B 3440   6.186   3.080   7.297 -1.8021  1.1554  0.0341
   47CHL1    C9 3441   6.203   2.875   7.207  0.7375 -0.4793  0.5250
   47CHL1    H9 3442   6.304   2.902   7.168  0.1105  0.4771 -0.4774
   47CHL1   C10 3443   6.104   2.890   7.089 -0.1135  0.6103  0.9537
   47CHL1   C19 3444   5.969   2.844   7.141  0.5828  0.5075  0.3032
   47CHL1  H19A 3445   5.887   2.842   7.067  1.1727  1.7155 -0.4298
   47CHL1  H19B 3446   5.986   2.742   7.182 -0.3393  0.1648 -0.1545
   47CHL1  H19C 3447   5.940   2.915   7.222  3.7020  0.8592  1.2430
   47CHL1    C1 3448   6.095   3.033   7.040  0.1611 -0.3666  0.1999
   47CHL1   H1A 3449   6.049   3.105   7.110  3.0142  3.1297 -1.2559
   47CHL1   H1B 3450   6.199   3.071   7.033  0.2214 -0.4915  0.4107
   47CHL1    C2 3451   6.029   3.050   6.905  0.2014  0.0330  0.9487
   47CHL1   H2A 3452   6.047   3.155   6.872  1.2947 -0.0129  1.3778
   47CHL1   H2B 3453   5.917   3.051   6.909  0.0613  0.0180 -1.5799
   47CHL1   C20 3454   6.395   2.789   7.727 -0.1494  0.0018 -0.0617
   47CHL1   H20 3455   6.304   2.739   7.766 -0.4984  1.7697  1.5506
   47CHL1   C21 3456   6.396   2.939   7.756 -0.4667 -0.4129 -0.3209
   47CHL1  H21A 3457   6.484   2.983   7.705  0.4949 -0.3626  1.3157
   47CHL1  H21B 3458   6.406   2.956   7.865  1.4486 -1.9869 -0.1865
   47CHL1  H21C 3459   6.300   2.990   7.733 -0.4541  0.4951  1.4439
   47CHL1   C22 3460   6.518   2.733   7.809 -0.2221  0.5994 -0.0806
   47CHL1  H22A 3461   6.541   2.631   7.772 -0.0778  0.8531 -0.7005
   47CHL1  H22B 3462   6.607   2.799   7.804  0.5025 -0.4607 -1.9534
   47CHL1   C23 3463   6.482   2.701   7.958  0.0441 -0.1340  0.7532
   47CHL1  H23A 3464   6.427   2.793   7.986  1.6742  1.4016 -0.8314
   47CHL1  H23B 3465   6.417   2.612   7.970  1.0540 -1.1677 -0.9841
   47CHL1   C24 3466   6.604   2.686   8.050  0.5557  0.0594 -0.4265
   47CHL1  H24A 3467   6.672   2.605   8.016 -2.4904 -1.4959 -3.3142
   47CHL1  H24B 3468   6.662   2.781   8.054  3.2791 -1.5367  2.0778
   47CHL1   C25 3469   6.567   2.642   8.196  0.3243 -0.0786 -0.0223
   47CHL1   H25 3470   6.518   2.545   8.176 -1.3393  0.3260  1.7629
   47CHL1   C26 3471   6.688   2.628   8.280  0.1408 -0.0135 -0.1821
   47CHL1  H26A 3472   6.738   2.722   8.313  1.5148  0.2188 -2.7014
   47CHL1  H26B 3473   6.668   2.584   8.380  0.7001  1.0631  0.4228
   47CHL1  H26C 3474   6.774   2.570   8.241  0.2449 -1.2356  1.7533
   47CHL1   C27 3475   6.458   2.726   8.279 -0.0753  0.8118 -0.4205
   47CHL1  H27A 3476   6.492   2.832   8.282 -0.7819  1.0298  0.0280
   47CHL1  H27B 3477   6.367   2.722   8.215  0.1901 -0.8867 -0.7383
   47CHL1  H27C 3478   6.435   2.680   8.377 -0.1865  0.5418 -0.5722
   48CHL1    C3 3479   3.422   4.840   6.427 -0.1484  0.1666  0.0938
   48CHL1    H3 3480   3.438   4.948   6.449  4.4724 -0.4250  0.6429
   48CHL1    O3 3481   3.372   4.840   6.296 -0.0239 -0.0817 -0.4692
   48CHL1   H3' 3482   3.341   4.753   6.272  0.8264 -0.3244 -0.7084
   48CHL1    C4 3483   3.559   4.766   6.430 -0.1956  0.0738  1.1942
   48CHL1   H4A 3484   3.539   4.666   6.387 -0.1895  0.4456  0.3087
   48CHL1   H4B 3485   3.627   4.821   6.361 -0.5657  0.4976  1.1671
   48CHL1    C5 3486   3.616   4.756   6.572  0.0633 -0.4073  0.9815
   48CHL1    C6 3487   3.742   4.791   6.599 -0.3225 -0.3738  0.1369
   48CHL1    H6 3488   3.811   4.814   6.516 -0.8131 -0.9334 -0.4373
   48CHL1    C7 3489   3.809   4.761   6.734 -0.4372  0.0236  0.5800
   48CHL1   H7A 3490   3.903   4.705   6.714 -1.1632 -0.7371 -0.8943
   48CHL1   H7B 3491   3.822   4.858   6.786 -2.7825  0.7684 -0.0999
   48CHL1    C8 3492   3.723   4.674   6.831 -0.0541 -0.3554  0.4219
   48CHL1    H8 3493   3.726   4.565   6.807 -2.6589 -0.3797 -0.1465
   48CHL1   C14 3494   3.768   4.678   6.975  0.2024  0.2264  0.0310
   48CHL1   H14 3495   3.767   4.782   7.015  1.4030  0.2292  0.1182
   48CHL1   C15 3496   3.910   4.625   7.002 -0.9574  0.5023  0.7320
   48CHL1  H15A 3497   3.936   4.529   6.954 -0.3800 -1.3598  4.4616
   48CHL1  H15B 3498   3.999   4.688   6.981  1.0388 -1.3134  3.2130
   48CHL1   C16 3499   3.917   4.612   7.155 -0.6973  0.7203  1.2354
   48CHL1  H16A 3500   3.970   4.519   7.184  0.7968  0.7972 -1.0212
   48CHL1  H16B 3501   3.960   4.701   7.206  1.2772  0.6700 -0.2726
   48CHL1   C17 3502   3.772   4.637   7.202  0.3294  0.4089 -0.4545
   48CHL1   H17 3503   3.762   4.745   7.227  1.4739  0.2448  0.8463
   48CHL1   C13 3504   3.690   4.600   7.082  1.0993 -0.1536 -0.9845
   48CHL1   C18 3505   3.686   4.449   7.070  0.0493 -0.0356  0.2647
   48CHL1  H18A 3506   3.785   4.415   7.108  0.2509  1.4556  1.2001
   48CHL1  H18B 3507   3.611   4.405   7.139 -0.4442  0.9896  0.4098
   48CHL1  H18C 3508   3.677   4.411   6.966 -0.4831  1.1881 -0.1509
   48CHL1   C12 3509   3.543   4.656   7.079 -0.0422 -0.0867 -0.3255
   48CHL1  H12A 3510   3.478   4.588   7.138  0.8902 -0.9823 -0.2904
   48CHL1  H12B 3511   3.531   4.761   7.111 -1.4253 -0.2171 -0.3682
   48CHL1   C11 3512   3.488   4.647   6.934  0.5073  0.2886 -0.3379
   48CHL1  H11A 3513   3.459   4.542   6.911 -1.8679  0.9137 -0.5172
   48CHL1  H11B 3514   3.393   4.704   6.930  1.0690  1.2846 -4.5435
   48CHL1    C9 3515   3.574   4.714   6.819 -0.4290 -0.1276  0.5227
   48CHL1    H9 3516   3.569   4.820   6.853  3.2766 -0.2448  1.9678
   48CHL1   C10 3517   3.518   4.701   6.674 -0.7098 -0.2671  0.8324
   48CHL1   C19 3518   3.495   4.552   6.644  0.5181 -0.0761  0.1219
   48CHL1  H19A 3519   3.453   4.525   6.545 -1.9300  0.1344  1.0536
   48CHL1  H19B 3520   3.596   4.507   6.659  0.5544  0.1133  0.4394
   48CHL1  H19C 3521   3.421   4.513   6.717  0.1255 -1.9966 -1.2170
   48CHL1    C1 3522   3.386   4.784   6.663 -0.3646 -0.5454 -0.0578
   48CHL1   H1A 3523   3.325   4.722   6.731  1.4615 -1.0835  1.1461
   48CHL1   H1B 3524   3.388   4.891   6.692 -1.2194  0.0490 -2.0173
   48CHL1    C2 3525   3.329   4.774   6.523  1.0144 -0.1520 -0.2911
   48CHL1   H2A 3526   3.242   4.843   6.520  0.6125 -0.6881 -0.8842
   48CHL1   H2B 3527   3.291   4.677   6.486 -2.2789  2.3037 -4.1592
   48CHL1   C20 3528   3.752   4.552   7.332 -0.0377 -0.1968  0.0015
   48CHL1   H20 3529   3.766   4.445   7.308  2.6879 -0.1360  1.0121
   48CHL1   C21 3530   3.609   4.580   7.383 -1.0989  0.7813 -0.5255
   48CHL1  H21A 3531   3.529   4.543   7.315  0.0383 -2.1992 -0.3766
   48CHL1  H21B 3532   3.601   4.689   7.404 -2.0923  0.5237  0.4812
   48CHL1  H21C 3533   3.589   4.533   7.481  1.3552  0.0319 -0.3276
   48CHL1   C22 3534   3.853   4.604   7.444  0.1771  0.2371  0.2841
   48CHL1  H22A 3535   3.957   4.572   7.420  0.0868  0.1340  0.0209
   48CHL1  H22B 3536   3.855   4.715   7.451  1.1334  0.2079  0.6999
   48CHL1   C23 3537   3.820   4.533   7.579  0.0124 -0.1685  0.2366
   48CHL1  H23A 3538   3.734   4.586   7.625  0.6610  1.6893 -0.5689
   48CHL1  H23B 3539   3.797   4.426   7.562 -1.6458 -0.0901  1.6939
   48CHL1   C24 3540   3.927   4.550   7.687 -0.6561 -0.2073  0.1528
   48CHL1  H24A 3541   4.022   4.524   7.635 -0.3531  2.1912 -0.5813
   48CHL1  H24B 3542   3.924   4.648   7.739 -0.9907 -0.2756  0.2607
   48CHL1   C25 3543   3.915   4.444   7.798  1.2228 -0.1389 -0.1032
   48CHL1   H25 3544   3.921   4.345   7.746  0.8749 -0.2415  0.0483
   48CHL1   C26 3545   4.022   4.453   7.904 -0.5825 -0.8370 -0.7766
   48CHL1  H26A 3546   4.020   4.359   7.964 -0.7930 -1.3767 -1.6113
   48CHL1  H26B 3547   4.126   4.463   7.867  1.0242 -0.0670  3.4065
   48CHL1  H26C 3548   4.004   4.538   7.974  0.3814  0.9063 -2.5621
   48CHL1   C27 3549   3.772   4.437   7.874  0.0405  0.1759 -0.3370
   48CHL1  H27A 3550   3.770   4.526   7.941  2.1573  0.7598 -0.9646
   48CHL1  H27B 3551   3.688   4.425   7.803  0.4972 -0.6327 -0.7482
   48CHL1  H27C 3552   3.782   4.356   7.949  0.7363  0.1830 -0.4188
   49CHL1    C3 3553   3.272   6.031   6.513  0.6811  0.3047  0.2169
   49CHL1    H3 3554   3.356   5.958   6.509 -1.3127 -2.2383  1.6772
   49CHL1    O3 3555   3.248   6.069   6.381  0.0719  0.6784  0.6420
   49CHL1   H3' 3556   3.197   6.001   6.337 -0.3106  0.9404  0.6771
   49CHL1    C4 3557   3.145   5.952   6.566 -0.1183 -0.4194 -0.2910
   49CHL1   H4A 3558   3.055   6.011   6.536 -0.2246  0.1657  1.1247
   49CHL1   H4B 3559   3.137   5.865   6.498 -0.7427 -0.2158 -0.4889
   49CHL1    C5 3560   3.154   5.927   6.715  0.2869 -0.4819 -0.6739
   49CHL1    C6 3561   3.155   5.806   6.757  0.0295  0.1168 -0.3141
   49CHL1    H6 3562   3.135   5.724   6.687 -1.3272 -1.9023  2.2909
   49CHL1    C7 3563   3.143   5.772   6.902  0.3730 -0.7366  0.4672
   49CHL1   H7A 3564   3.071   5.691   6.926 -0.3700 -0.4152 -0.5926
   49CHL1   H7B 3565   3.244   5.746   6.941  0.2532  0.8043  1.9654
   49CHL1    C8 3566   3.102   5.895   6.989  0.0199  0.2025 -0.0705
   49CHL1    H8 3567   2.995   5.910   6.962 -0.0986 -1.1179 -0.4294
   49CHL1   C14 3568   3.118   5.856   7.140 -0.0987 -0.0645  0.4743
   49CHL1   H14 3569   3.228   5.838   7.148 -0.2479 -1.4576 -0.2562
   49CHL1   C15 3570   3.062   5.725   7.195  0.7387 -0.4788 -0.2917
   49CHL1  H15A 3571   2.955   5.710   7.168  0.3280 -0.8626  1.4240
   49CHL1  H15B 3572   3.114   5.640   7.144  0.6690  0.2010 -1.5296
   49CHL1   C16 3573   3.071   5.741   7.352 -0.4653  0.2969 -0.5780
   49CHL1  H16A 3574   2.972   5.744   7.402  0.6565  1.9202  1.7212
   49CHL1  H16B 3575   3.131   5.659   7.398  0.9550  2.0942  0.9361
   49CHL1   C17 3576   3.129   5.883   7.374  0.2214  0.2140  0.3707
   49CHL1   H17 3577   3.238   5.864   7.384 -0.3265 -3.7646  0.4784
   49CHL1   C13 3578   3.108   5.964   7.244  0.1619 -0.6734 -0.5203
   49CHL1   C18 3579   2.961   6.010   7.243 -0.7385 -0.4874 -0.1321
   49CHL1  H18A 3580   2.934   6.060   7.148  1.4005 -1.6263 -1.4011
   49CHL1  H18B 3581   2.886   5.929   7.256 -0.8086 -0.5197 -0.7057
   49CHL1  H18C 3582   2.960   6.088   7.322  1.2546  0.8102 -1.2913
   49CHL1   C12 3583   3.206   6.077   7.200  0.2139 -0.1816  0.3928
   49CHL1  H12A 3584   3.212   6.152   7.282 -0.4002  0.5483 -0.2148
   49CHL1  H12B 3585   3.301   6.020   7.196  0.3847  0.1369 -0.1275
   49CHL1   C11 3586   3.181   6.135   7.060 -0.3974 -0.4069  0.5644
   49CHL1  H11A 3587   3.089   6.195   7.049 -0.2018 -0.3462 -0.9729
   49CHL1  H11B 3588   3.262   6.204   7.026  0.4915 -1.5919  0.1956
   49CHL1    C9 3589   3.180   6.013   6.950 -0.5659  0.2564 -0.6421
   49CHL1    H9 3590   3.286   5.983   6.962 -0.4003  0.3681 -1.7343
   49CHL1   C10 3591   3.168   6.051   6.799 -0.6934  0.6173  0.1621
   49CHL1   C19 3592   3.050   6.149   6.781  0.1593  0.0202  0.6530
   49CHL1  H19A 3593   3.021   6.161   6.675 -1.0379 -1.0676  0.8372
   49CHL1  H19B 3594   2.962   6.121   6.843 -0.3948  0.4252  0.0516
   49CHL1  H19C 3595   3.093   6.244   6.821 -0.7803  0.7359  0.0128
   49CHL1    C1 3596   3.301   6.106   6.752  0.4134  0.2036 -0.0140
   49CHL1   H1A 3597   3.318   6.196   6.815 -1.6534 -0.0166  0.9557
   49CHL1   H1B 3598   3.381   6.030   6.762  1.0965  0.5550 -2.2113
   49CHL1    C2 3599   3.313   6.146   6.601  0.7720  0.1858 -0.6718
   49CHL1   H2A 3600   3.411   6.192   6.577  2.0582 -2.1469 -0.2244
   49CHL1   H2B 3601   3.233   6.222   6.592 -1.5646 -1.6611  2.4509
   49CHL1   C20 3602   3.070   5.938   7.510 -0.5606 -0.2734 -0.3771
   49CHL1   H20 3603   2.968   5.978   7.495 -0.2024  0.9354  0.3184
   49CHL1   C21 3604   3.164   6.055   7.556  0.9315 -0.1632  0.0116
   49CHL1  H21A 3605   3.175   6.136   7.480  2.5291  0.5126  0.9197
   49CHL1  H21B 3606   3.270   6.027   7.576  0.1366 -1.5244  2.7858
   49CHL1  H21C 3607   3.118   6.100   7.646 -3.3985 -0.7080 -1.6604
   49CHL1   C22 3608   3.070   5.831   7.625 -0.6142  0.0628  0.7671
   49CHL1  H22A 3609   2.997   5.750   7.603 -2.1613  1.7657 -0.7358
   49CHL1  H22B 3610   3.175   5.794   7.626 -0.0186  1.5383 -0.9097
   49CHL1   C23 3611   3.031   5.882   7.761 -0.0346 -0.1726 -0.2538
   49CHL1  H23A 3612   3.106   5.957   7.792 -0.0509 -0.4982  0.6008
   49CHL1  H23B 3613   2.929   5.925   7.765 -0.1196 -0.4053  2.4469
   49CHL1   C24 3614   3.030   5.768   7.871  0.2412  0.4018  0.7398
   49CHL1  H24A 3615   2.972   5.686   7.823  0.3135  0.9320 -0.2738
   49CHL1  H24B 3616   3.136   5.734   7.872  0.1456  0.0676  0.1958
   49CHL1   C25 3617   2.997   5.817   8.011 -0.4063 -1.3665  0.2301
   49CHL1   H25 3618   2.892   5.853   8.010  0.6158  1.8953  0.8013
   49CHL1   C26 3619   3.016   5.708   8.123  0.1541  0.2687  0.5287
   49CHL1  H26A 3620   2.962   5.749   8.211  0.3927  1.1300  0.2812
   49CHL1  H26B 3621   2.965   5.614   8.093  0.3612 -0.0130  1.0547
   49CHL1  H26C 3622   3.120   5.679   8.148  0.7998  0.6042 -1.5628
   49CHL1   C27 3623   3.091   5.939   8.047  0.2719 -0.5545  0.1649
   49CHL1  H27A 3624   3.080   6.023   7.975  1.6398 -0.1055  0.4534
   49CHL1  H27B 3625   3.066   5.976   8.149  1.4051  1.2104 -0.1554
   49CHL1  H27C 3626   3.196   5.903   8.056 -0.6345 -3.1626  1.4041
   50CHL1    C3 3627   2.357   0.584   6.727  0.5245 -0.0818 -0.3168
   50CHL1    H3 3628   2.421   0.495   6.710 -0.5925 -1.2506  1.3372
   50CHL1    O3 3629   2.280   0.608   6.615  0.5235 -0.9124 -0.3548
   50CHL1   H3' 3630   2.231   0.686   6.643  2.4874  0.3418 -0.1486
   50CHL1    C4 3631   2.267   0.547   6.848  0.1268  0.3928  0.7625
   50CHL1   H4A 3632   2.200   0.635   6.863  0.9303  1.7714 -2.6379
   50CHL1   H4B 3633   2.206   0.460   6.816  2.1847 -1.0843  0.6537
   50CHL1    C5 3634   2.358   0.518   6.966  0.0688  0.7307  0.2816
   50CHL1    C6 3635   2.344   0.406   7.035  0.0881  0.2205  0.1489
   50CHL1    H6 3636   2.268   0.338   6.994  0.3051  1.0096 -1.6450
   50CHL1    C7 3637   2.415   0.370   7.165 -0.0154 -0.9442 -0.3909
   50CHL1   H7A 3638   2.346   0.346   7.248  0.1831 -0.7087 -0.1559
   50CHL1   H7B 3639   2.482   0.284   7.141  0.6620 -0.4641 -0.2755
   50CHL1    C8 3640   2.500   0.495   7.221 -0.1244 -0.4278  0.0137
   50CHL1    H8 3641   2.423   0.560   7.267 -0.1272  0.3521 -1.0447
   50CHL1   C14 3642   2.597   0.441   7.321  0.5098  0.3408  0.2560
   50CHL1   H14 3643   2.660   0.372   7.261  0.1501  0.9126 -0.7973
   50CHL1   C15 3644   2.541   0.351   7.431 -0.0245 -0.3947  0.1304
   50CHL1  H15A 3645   2.470   0.396   7.503  1.4596  0.9200  0.8182
   50CHL1  H15B 3646   2.499   0.256   7.389 -0.5027  0.7032 -2.0063
   50CHL1   C16 3647   2.658   0.343   7.527 -0.0599  0.2083 -0.2410
   50CHL1  H16A 3648   2.625   0.364   7.631  1.9919 -1.1594  0.7684
   50CHL1  H16B 3649   2.709   0.245   7.543  1.5275  0.9056 -0.8589
   50CHL1   C17 3650   2.771   0.439   7.478 -0.1961  0.2816  0.3829
   50CHL1   H17 3651   2.841   0.373   7.423 -1.6520 -0.6808 -0.3750
   50CHL1   C13 3652   2.690   0.539   7.387 -0.0798 -0.1728 -0.2931
   50CHL1   C18 3653   2.614   0.638   7.474 -0.2463  0.2064  0.1604
   50CHL1  H18A 3654   2.669   0.723   7.520  0.1892 -1.2995  2.5708
   50CHL1  H18B 3655   2.530   0.687   7.420  0.4083  0.9331 -0.2122
   50CHL1  H18C 3656   2.564   0.584   7.558  0.4328  0.7279  0.9048
   50CHL1   C12 3657   2.763   0.616   7.271 -0.5695  0.0632 -0.2540
   50CHL1  H12A 3658   2.821   0.700   7.315 -0.4425 -0.6133  0.8916
   50CHL1  H12B 3659   2.838   0.549   7.224  0.6451  0.2860  1.3072
   50CHL1   C11 3660   2.672   0.675   7.158  0.3007  0.8293  0.1798
   50CHL1  H11A 3661   2.617   0.758   7.206 -0.8223  0.7861 -0.9618
   50CHL1  H11B 3662   2.722   0.715   7.067 -1.1680 -0.6395 -1.3496
   50CHL1    C9 3663   2.570   0.569   7.105 -0.2457 -0.5633  0.8261
   50CHL1    H9 3664   2.632   0.492   7.054  1.4373  1.7986 -0.9250
   50CHL1   C10 3665   2.465   0.627   7.001  0.5019  0.5602  0.5139
   50CHL1   C19 3666   2.382   0.740   7.069 -0.2614 -0.2035 -0.5045
   50CHL1  H19A 3667   2.333   0.708   7.164  1.9751  2.6023  1.7932
   50CHL1  H19B 3668   2.457   0.816   7.101  0.5614 -1.4928  0.7460
   50CHL1  H19C 3669   2.314   0.793   6.998  0.4549  0.8515 -0.4369
   50CHL1    C1 3670   2.541   0.687   6.873 -0.6102  0.0888 -0.7227
   50CHL1   H1A 3671   2.596   0.781   6.896  2.0273 -1.5505  0.0984
   50CHL1   H1B 3672   2.619   0.612   6.846  1.0769  1.4180  0.2797
   50CHL1    C2 3673   2.446   0.711   6.749  0.6243 -0.4590 -0.1996
   50CHL1   H2A 3674   2.512   0.729   6.661  0.6178 -1.8764 -0.5181
   50CHL1   H2B 3675   2.382   0.799   6.772  0.4919 -0.7218  0.4672
   50CHL1   C20 3676   2.849   0.505   7.594  0.6486 -0.4050  0.4933
   50CHL1   H20 3677   2.786   0.578   7.650 -0.5212 -1.6925  0.9059
   50CHL1   C21 3678   2.979   0.565   7.530  0.5328  0.2131  0.1618
   50CHL1  H21A 3679   2.953   0.601   7.428 -0.7484 -0.9570  0.0465
   50CHL1  H21B 3680   3.049   0.482   7.511  0.7391  0.2908  0.5629
   50CHL1  H21C 3681   3.016   0.655   7.584  2.0477  1.2572 -2.4615
   50CHL1   C22 3682   2.889   0.398   7.706 -0.5816 -0.1073 -0.0114
   50CHL1  H22A 3683   2.793   0.353   7.739  0.0191 -1.3761  0.0909
   50CHL1  H22B 3684   2.951   0.311   7.674 -0.3292  0.4116 -0.9648
   50CHL1   C23 3685   2.964   0.460   7.824  0.4492  0.1211  0.4113
   50CHL1  H23A 3686   3.068   0.481   7.794  0.3161  2.0084  1.1453
   50CHL1  H23B 3687   2.910   0.554   7.850 -1.2923 -1.0725  1.3907
   50CHL1   C24 3688   2.968   0.365   7.950  0.6460 -0.0924 -0.5951
   50CHL1  H24A 3689   2.867   0.362   7.997 -0.4435 -0.2474 -2.8062
   50CHL1  H24B 3690   3.001   0.264   7.920 -1.0706 -0.9480  0.2164
   50CHL1   C25 3691   3.051   0.425   8.063  0.0496 -0.6260  0.0892
   50CHL1   H25 3692   3.153   0.450   8.027  0.5173 -1.9676  0.4006
   50CHL1   C26 3693   2.993   0.559   8.121 -0.5081 -0.1555  0.3022
   50CHL1  H26A 3694   3.002   0.641   8.046  1.3905  0.2677  0.9385
   50CHL1  H26B 3695   2.887   0.547   8.153 -1.1514  0.9872 -1.2475
   50CHL1  H26C 3696   3.036   0.588   8.219  1.9820 -0.9576 -0.4897
   50CHL1   C27 3697   3.085   0.320   8.163  0.4341 -0.4907 -0.1053
   50CHL1  H27A 3698   2.991   0.265   8.181  0.5910 -1.0232 -0.8695
   50CHL1  H27B 3699   3.153   0.241   8.126 -0.3132 -0.8503 -0.7111
   50CHL1  H27C 3700   3.115   0.361   8.262 -1.6758 -0.6617  0.6579
   51CHL1    C3 3701   2.395   6.414   6.892  0.1562 -0.1849 -0.6947
   51CHL1    H3 3702   2.423   6.518   6.918  2.6432 -0.0347 -3.3738
   51CHL1    O3 3703   2.335   6.412   6.762 -0.1815  0.5418  0.0595
   51CHL1   H3' 3704   2.317   6.319   6.752  1.8309 -0.1107  1.7560
   51CHL1    C4 3705   2.515   6.325   6.892 -0.5880  0.3406  0.0940
   51CHL1   H4A 3706   2.480   6.225   6.859  1.4594 -0.3220 -0.2093
   51CHL1   H4B 3707   2.584   6.360   6.813 -0.2752  1.7943  0.9753
   51CHL1    C5 3708   2.575   6.315   7.031  0.0932  0.8946 -0.0145
   51CHL1    C6 3709   2.702   6.341   7.062 -0.0846  0.1670 -0.4070
   51CHL1    H6 3710   2.771   6.354   6.977 -1.2504  2.4017 -1.1137
   51CHL1    C7 3711   2.756   6.352   7.203 -0.0953  0.0288  0.1329
   51CHL1   H7A 3712   2.860   6.313   7.211  0.1395  0.9830  3.6666
   51CHL1   H7B 3713   2.761   6.457   7.239 -2.0595  0.4226 -0.6338
   51CHL1    C8 3714   2.677   6.279   7.316  0.5528  0.2467  0.6344
   51CHL1    H8 3715   2.697   6.171   7.301  0.7345 -0.0464  2.7551
   51CHL1   C14 3716   2.723   6.324   7.452  0.1992  0.8857  0.1628
   51CHL1   H14 3717   2.705   6.433   7.446  0.9500  0.9391 -1.5740
   51CHL1   C15 3718   2.870   6.309   7.501 -0.9237 -0.1453 -0.5002
   51CHL1  H15A 3719   2.920   6.212   7.478 -0.7803 -0.6889  1.9191
   51CHL1  H15B 3720   2.912   6.405   7.464 -3.7406  1.3597  0.0094
   51CHL1   C16 3721   2.863   6.317   7.654 -0.6323  0.2496 -0.4346
   51CHL1  H16A 3722   2.904   6.220   7.689 -0.0311  1.2458  1.7308
   51CHL1  H16B 3723   2.913   6.404   7.701 -0.2762  0.2228 -0.7574
   51CHL1   C17 3724   2.715   6.323   7.694  0.3051  1.0384 -0.7987
   51CHL1   H17 3725   2.689   6.430   7.710 -2.1915  0.2928  0.8218
   51CHL1   C13 3726   2.643   6.264   7.571  0.4004 -1.1460  0.4645
   51CHL1   C18 3727   2.674   6.114   7.566  0.0670  0.2767 -0.2937
   51CHL1  H18A 3728   2.629   6.064   7.477 -1.2880  0.5851  0.2010
   51CHL1  H18B 3729   2.781   6.083   7.574 -0.7901 -2.6183  0.9359
   51CHL1  H18C 3730   2.632   6.059   7.652 -0.4425 -1.5528 -1.6427
   51CHL1   C12 3731   2.492   6.289   7.553 -0.2969  0.2309 -0.0663
   51CHL1  H12A 3732   2.428   6.241   7.630 -0.2596 -1.1314 -0.8453
   51CHL1  H12B 3733   2.465   6.397   7.555 -1.1455  0.1622 -2.8197
   51CHL1   C11 3734   2.438   6.253   7.412  0.3125 -0.6062 -0.2516
   51CHL1  H11A 3735   2.427   6.143   7.404 -3.6049 -0.2590 -1.8935
   51CHL1  H11B 3736   2.335   6.291   7.397  0.2560 -0.5194  0.3488
   51CHL1    C9 3737   2.529   6.307   7.294 -0.8124 -0.4788  0.4488
   51CHL1    H9 3738   2.534   6.418   7.300 -0.2781 -0.5257  0.9061
   51CHL1   C10 3739   2.477   6.277   7.151 -0.4603  0.5525  0.8469
   51CHL1   C19 3740   2.453   6.123   7.138  0.0155  0.7638  0.3215
   51CHL1  H19A 3741   2.545   6.061   7.144 -0.0973  0.3876 -1.3519
   51CHL1  H19B 3742   2.380   6.092   7.216  1.7492  0.7864  2.0123
   51CHL1  H19C 3743   2.400   6.091   7.046 -2.3840  0.3665  1.7653
   51CHL1    C1 3744   2.336   6.345   7.126  0.2466 -0.4038  0.0047
   51CHL1   H1A 3745   2.260   6.301   7.194  2.2447 -0.2363  2.4915
   51CHL1   H1B 3746   2.345   6.452   7.154  0.8325 -0.4514  0.0176
   51CHL1    C2 3747   2.287   6.352   6.986  0.4627  0.2035  0.1453
   51CHL1   H2A 3748   2.205   6.426   6.985  0.1224 -0.1680 -0.8863
   51CHL1   H2B 3749   2.251   6.253   6.949 -0.2319  0.2224  0.7390
   51CHL1   C20 3750   2.688   6.264   7.838 -0.2038 -0.0041  0.6125
   51CHL1   H20 3751   2.738   6.164   7.836 -0.4848 -0.1445  0.3953
   51CHL1   C21 3752   2.537   6.244   7.859 -0.3662  0.2093  0.1340
   51CHL1  H21A 3753   2.505   6.165   7.788  0.2320  0.8431 -0.8769
   51CHL1  H21B 3754   2.492   6.344   7.839 -0.4015 -0.0814 -1.3473
   51CHL1  H21C 3755   2.517   6.210   7.963  2.7988 -0.4887  0.6101
   51CHL1   C22 3756   2.750   6.361   7.939  0.2493  0.6139  0.5023
   51CHL1  H22A 3757   2.859   6.371   7.922 -0.0533 -0.2564 -2.5124
   51CHL1  H22B 3758   2.721   6.466   7.918 -1.3183 -0.2331 -2.0297
   51CHL1   C23 3759   2.731   6.329   8.092 -0.3245 -0.1384  0.3553
   51CHL1  H23A 3760   2.775   6.409   8.157  2.4589 -0.6379 -0.7493
   51CHL1  H23B 3761   2.624   6.321   8.118 -0.0949 -1.1930  1.0469
   51CHL1   C24 3762   2.798   6.196   8.127 -1.0125  0.2546 -0.1197
   51CHL1  H24A 3763   2.760   6.121   8.053  2.5344 -0.6490 -1.2240
   51CHL1  H24B 3764   2.908   6.203   8.119 -0.9663 -1.0649 -1.0797
   51CHL1   C25 3765   2.763   6.158   8.271  0.0262 -0.1585 -0.3732
   51CHL1   H25 3766   2.654   6.173   8.285  0.3321  0.8602  1.2019
   51CHL1   C26 3767   2.792   6.007   8.312  0.7783 -0.9623 -0.6135
   51CHL1  H26A 3768   2.758   5.999   8.417 -3.0119 -0.8453 -1.6721
   51CHL1  H26B 3769   2.736   5.935   8.248  1.7190 -1.5381 -0.7968
   51CHL1  H26C 3770   2.896   5.970   8.311  0.7333 -1.1192  0.1186
   51CHL1   C27 3771   2.830   6.256   8.370  0.3161 -0.1893 -0.3136
   51CHL1  H27A 3772   2.805   6.243   8.478  2.8716  2.9539  0.8406
   51CHL1  H27B 3773   2.941   6.254   8.361  0.3693  1.0627 -0.1891
   51CHL1  H27C 3774   2.796   6.361   8.359  2.7649  0.9049  1.4017
   52CHL1    C3 3775   3.972   1.053   6.711  0.4313 -0.3203 -0.3189
   52CHL1    H3 3776   3.960   1.147   6.769 -0.0770 -1.3750  1.3738
   52CHL1    O3 3777   3.952   1.074   6.576 -0.4826 -0.2900 -0.4218
   52CHL1   H3' 3778   3.973   0.989   6.536  0.8007  0.4682 -1.4510
   52CHL1    C4 3779   4.106   0.990   6.739 -0.1448 -0.6869  0.3057
   52CHL1   H4A 3780   4.101   0.892   6.687 -1.3955  0.1542 -1.2728
   52CHL1   H4B 3781   4.185   1.052   6.691  0.4473 -2.5644 -1.2965
   52CHL1    C5 3782   4.133   0.980   6.888 -0.0930  0.2074  0.1606
   52CHL1    C6 3783   4.230   1.048   6.943 -0.2836 -0.7959 -0.6981
   52CHL1    H6 3784   4.284   1.127   6.889  0.6513  0.1626  1.5264
   52CHL1    C7 3785   4.270   1.036   7.090 -0.3329 -0.5779  0.1068
   52CHL1   H7A 3786   4.379   1.031   7.110 -0.1968 -0.3487 -0.5487
   52CHL1   H7B 3787   4.235   1.133   7.133 -3.0226 -2.1539  1.7822
   52CHL1    C8 3788   4.195   0.924   7.163  0.4894  0.1806  0.1546
   52CHL1    H8 3789   4.248   0.827   7.148 -2.2313 -1.1932 -1.1762
   52CHL1   C14 3790   4.186   0.955   7.309  0.1073 -0.0834 -0.8115
   52CHL1   H14 3791   4.124   1.047   7.320  1.9951  1.1439 -0.0156
   52CHL1   C15 3792   4.319   0.993   7.376 -0.8585  0.1661 -0.7770
   52CHL1  H15A 3793   4.397   0.916   7.359 -0.9547  0.0161 -0.5376
   52CHL1  H15B 3794   4.351   1.097   7.353 -1.0121  0.7250  1.3461
   52CHL1   C16 3795   4.281   0.986   7.523 -0.2140 -0.4516 -0.4933
   52CHL1  H16A 3796   4.364   0.931   7.573 -0.4620  0.3769  0.9002
   52CHL1  H16B 3797   4.295   1.085   7.572  1.0402 -0.7663 -0.1658
   52CHL1   C17 3798   4.140   0.920   7.535 -0.8013  0.0171  0.0755
   52CHL1   H17 3799   4.081   1.014   7.540 -0.8215  0.1298 -1.5797
   52CHL1   C13 3800   4.123   0.850   7.399  0.1040 -0.7383 -0.4505
   52CHL1   C18 3801   4.205   0.721   7.410 -0.2855 -0.2257 -0.0236
   52CHL1  H18A 3802   4.165   0.646   7.481 -0.4853  1.4759  1.7444
   52CHL1  H18B 3803   4.205   0.674   7.309 -1.1079 -1.0889  0.3574
   52CHL1  H18C 3804   4.309   0.740   7.444  0.1880 -0.8607 -1.0385
   52CHL1   C12 3805   3.982   0.822   7.352  0.0579  0.1283 -0.4120
   52CHL1  H12A 3806   3.941   0.734   7.405  0.6597  1.0663  1.7397
   52CHL1  H12B 3807   3.913   0.904   7.380 -1.8740 -1.5866  0.0577
   52CHL1   C11 3808   3.974   0.800   7.196  0.1163  0.4758 -0.9297
   52CHL1  H11A 3809   4.024   0.706   7.163  0.5727  0.5943 -0.5821
   52CHL1  H11B 3810   3.869   0.807   7.160  0.5611  2.8413 -1.9053
   52CHL1    C9 3811   4.049   0.911   7.113 -0.0030  0.5380 -0.4098
   52CHL1    H9 3812   4.001   1.008   7.135  0.9659  1.1952 -1.0563
   52CHL1   C10 3813   4.033   0.894   6.955  0.9904 -0.0903 -0.1634
   52CHL1   C19 3814   4.069   0.747   6.909  0.7377 -0.4828  0.1448
   52CHL1  H19A 3815   4.058   0.733   6.799  0.6521  1.3741 -0.1202
   52CHL1  H19B 3816   4.169   0.722   6.950  0.2915 -1.1651  0.8313
   52CHL1  H19C 3817   3.992   0.682   6.955 -0.0002 -0.0676 -0.4644
   52CHL1    C1 3818   3.887   0.942   6.908  0.9732 -0.0953  0.2277
   52CHL1   H1A 3819   3.825   0.860   6.950 -0.1233 -0.6340 -2.2460
   52CHL1   H1B 3820   3.857   1.036   6.960 -1.0318  0.2480 -1.4240
   52CHL1    C2 3821   3.862   0.962   6.766  0.4395 -0.3738 -0.5341
   52CHL1   H2A 3822   3.763   1.004   6.738  0.3388  0.2985  0.7847
   52CHL1   H2B 3823   3.855   0.858   6.727 -0.3681 -0.4471 -0.2083
   52CHL1   C20 3824   4.122   0.837   7.666 -0.6736  0.0182  0.0094
   52CHL1   H20 3825   4.203   0.760   7.670  0.3709  1.1006  0.0635
   52CHL1   C21 3826   3.986   0.770   7.685 -0.3948  0.0768 -0.3789
   52CHL1  H21A 3827   3.969   0.681   7.620 -2.4627 -0.0964  0.3228
   52CHL1  H21B 3828   3.908   0.839   7.645  2.7002  4.3337  0.2620
   52CHL1  H21C 3829   3.971   0.730   7.787  0.2791 -0.8289 -0.6308
   52CHL1   C22 3830   4.154   0.940   7.789  0.0356 -0.2739  0.0724
   52CHL1  H22A 3831   4.262   0.961   7.776 -0.4765  2.0447 -0.8599
   52CHL1  H22B 3832   4.098   1.035   7.774 -1.2031 -1.2036 -1.4399
   52CHL1   C23 3833   4.135   0.886   7.925 -0.1656 -0.3612 -0.2841
   52CHL1  H23A 3834   4.026   0.900   7.941  0.2757 -0.3244  3.5194
   52CHL1  H23B 3835   4.161   0.778   7.932  1.7906 -0.0361 -1.6035
   52CHL1   C24 3836   4.206   0.950   8.040  0.5827 -0.3273 -0.0685
   52CHL1  H24A 3837   4.298   0.992   7.993  0.9835 -1.8431 -0.6959
   52CHL1  H24B 3838   4.143   1.037   8.068  1.4453  0.3727 -0.2597
   52CHL1   C25 3839   4.246   0.865   8.160 -0.5314  0.3264  0.1027
   52CHL1   H25 3840   4.165   0.800   8.197  1.3684 -2.1518  0.1791
   52CHL1   C26 3841   4.362   0.773   8.112  0.5269 -0.5284 -0.4076
   52CHL1  H26A 3842   4.400   0.707   8.193 -0.7442 -1.6667 -0.7069
   52CHL1  H26B 3843   4.322   0.697   8.041 -1.8472 -1.0231  1.3561
   52CHL1  H26C 3844   4.449   0.830   8.072  2.2360 -0.0514  3.5687
   52CHL1   C27 3845   4.296   0.963   8.277  0.2693 -0.6227 -0.1152
   52CHL1  H27A 3846   4.364   0.905   8.342  0.8208 -0.3296 -0.4246
   52CHL1  H27B 3847   4.351   1.050   8.236 -1.3900  0.7300  0.3986
   52CHL1  H27C 3848   4.213   1.006   8.337  0.3893  1.9798 -1.6656
   53CHL1    C3 3849   5.732   3.965   7.014  0.0930  0.0047  0.1463
   53CHL1    H3 3850   5.648   3.892   7.009 -1.5579  1.8226 -0.1856
   53CHL1    O3 3851   5.740   4.027   6.886 -0.5909  0.1526 -0.4583
   53CHL1   H3' 3852   5.723   4.121   6.901  3.6720  1.0744  0.0015
   53CHL1    C4 3853   5.691   4.080   7.110  0.5290 -0.3363  0.4266
   53CHL1   H4A 3854   5.739   4.178   7.091 -0.2387 -0.1737 -0.7869
   53CHL1   H4B 3855   5.583   4.107   7.110 -0.1401 -2.6110  2.5323
   53CHL1    C5 3856   5.723   4.052   7.251  0.3404 -0.1046 -0.3138
   53CHL1    C6 3857   5.620   4.051   7.338  0.2229  0.4290 -0.5436
   53CHL1    H6 3858   5.519   4.081   7.305  1.2687  1.9357 -2.6340
   53CHL1    C7 3859   5.631   4.023   7.482 -0.1238  0.9751 -0.8358
   53CHL1   H7A 3860   5.579   4.102   7.540  1.2897  1.9322 -0.8215
   53CHL1   H7B 3861   5.593   3.925   7.518 -1.2888  1.8392  0.3791
   53CHL1    C8 3862   5.773   4.015   7.538  0.0053 -0.3651 -1.2744
   53CHL1    H8 3863   5.816   4.117   7.554  1.3978 -1.3929  2.8539
   53CHL1   C14 3864   5.777   3.945   7.675  0.3763  0.1340  0.7449
   53CHL1   H14 3865   5.740   3.843   7.653 -0.5944  0.2250  1.8492
   53CHL1   C15 3866   5.676   3.998   7.776 -0.2161  0.8149 -0.9758
   53CHL1  H15A 3867   5.688   4.108   7.783  0.8045  0.6606 -0.0168
   53CHL1  H15B 3868   5.575   3.964   7.746 -0.9216 -0.4225  2.3102
   53CHL1   C16 3869   5.736   3.933   7.897 -0.0647  0.8199 -0.2608
   53CHL1  H16A 3870   5.738   4.006   7.980 -0.0229  0.8533 -0.2908
   53CHL1  H16B 3871   5.668   3.851   7.928  0.2436  0.2956 -0.9415
   53CHL1   C17 3872   5.878   3.869   7.865 -0.0306  0.2200  0.9979
   53CHL1   H17 3873   5.861   3.762   7.840  1.7329  0.5583 -2.2424
   53CHL1   C13 3874   5.924   3.936   7.732  0.0617 -0.3771 -0.3634
   53CHL1   C18 3875   5.991   4.074   7.753 -0.0934 -0.4033 -0.5318
   53CHL1  H18A 3876   5.924   4.142   7.810  0.8598  3.5853 -3.7414
   53CHL1  H18B 3877   6.080   4.066   7.818 -1.6228 -1.3371  1.5483
   53CHL1  H18C 3878   6.012   4.133   7.661  0.5402 -1.6534 -1.2254
   53CHL1   C12 3879   6.009   3.847   7.634  0.2191 -0.4886 -0.1061
   53CHL1  H12A 3880   6.113   3.841   7.671 -0.2433  0.3633  1.4395
   53CHL1  H12B 3881   5.972   3.742   7.635 -1.4294  0.0563  0.6006
   53CHL1   C11 3882   6.003   3.911   7.497  0.2324  0.4998 -0.3426
   53CHL1  H11A 3883   6.051   4.011   7.506  0.9187  0.2484 -1.0520
   53CHL1  H11B 3884   6.064   3.862   7.418  3.7833  3.9413 -0.0686
   53CHL1    C9 3885   5.864   3.940   7.442  0.5074  0.1809 -0.0425
   53CHL1    H9 3886   5.815   3.840   7.442 -0.9486  0.8378  1.4075
   53CHL1   C10 3887   5.860   4.001   7.291 -0.2161  0.7883 -0.8831
   53CHL1   C19 3888   5.962   4.115   7.277 -0.0461  0.4392 -0.3327
   53CHL1  H19A 3889   5.947   4.189   7.358  1.9888  0.8774 -0.2984
   53CHL1  H19B 3890   6.062   4.068   7.288 -0.7120 -0.9670 -0.0416
   53CHL1  H19C 3891   5.956   4.158   7.174  0.6960 -5.1041 -3.0863
   53CHL1    C1 3892   5.889   3.886   7.194  0.4677 -0.3116 -0.0379
   53CHL1   H1A 3893   5.984   3.832   7.216 -1.0480 -3.8887 -1.5228
   53CHL1   H1B 3894   5.806   3.814   7.204  1.0010 -1.0536 -0.8233
   53CHL1    C2 3895   5.877   3.913   7.047 -0.5234  0.3684  0.3881
   53CHL1   H2A 3896   5.894   3.828   6.977  0.0643  1.4946 -0.8932
   53CHL1   H2B 3897   5.948   3.997   7.028  1.2990 -0.7404  1.9966
   53CHL1   C20 3898   5.982   3.884   7.982  0.6987 -0.1795 -0.5647
   53CHL1   H20 3899   6.010   3.991   7.987 -3.5844  1.1914 -1.1961
   53CHL1   C21 3900   6.100   3.788   7.960 -0.0847 -0.5515 -0.2247
   53CHL1  H21A 3901   6.168   3.791   8.048 -0.5842 -0.2370  0.1594
   53CHL1  H21B 3902   6.148   3.816   7.864 -1.5841  1.0869 -0.5664
   53CHL1  H21C 3903   6.075   3.682   7.938 -1.1864 -0.0574 -1.4875
   53CHL1   C22 3904   5.932   3.847   8.124  0.3846  0.3984 -0.5239
   53CHL1  H22A 3905   5.822   3.863   8.123  0.3827  0.3810 -0.7464
   53CHL1  H22B 3906   5.927   3.737   8.131 -0.7255  0.3696 -1.4463
   53CHL1   C23 3907   6.009   3.914   8.242  0.3500 -0.3089 -0.1771
   53CHL1  H23A 3908   6.113   3.874   8.237  0.2328 -0.7217  0.5486
   53CHL1  H23B 3909   6.005   4.021   8.215 -1.3318 -0.7408 -1.8412
   53CHL1   C24 3910   5.948   3.874   8.384 -0.6926  0.7999  0.1618
   53CHL1  H24A 3911   5.950   3.763   8.393  1.5155  0.8125  0.3458
   53CHL1  H24B 3912   6.008   3.916   8.467 -1.1450  0.1066  0.8507
   53CHL1   C25 3913   5.818   3.930   8.422  0.2731  0.0444  0.0639
   53CHL1   H25 3914   5.748   3.912   8.337 -0.5758 -1.9375  1.1055
   53CHL1   C26 3915   5.765   3.860   8.546  0.0884 -0.0743 -0.6230
   53CHL1  H26A 3916   5.667   3.894   8.584 -0.9059 -2.2943 -1.0603
   53CHL1  H26B 3917   5.766   3.751   8.523 -1.4300  0.1410 -1.8663
   53CHL1  H26C 3918   5.839   3.876   8.627 -0.4497  0.0650 -0.1531
   53CHL1   C27 3919   5.822   4.080   8.439  0.3717 -0.2025 -0.3636
   53CHL1  H27A 3920   5.896   4.108   8.517  1.0466 -0.9584 -0.7258
   53CHL1  H27B 3921   5.853   4.112   8.337 -1.4153 -2.2724 -1.6454
   53CHL1  H27C 3922   5.720   4.114   8.470  0.5882 -0.3777  0.5788
   54CHL1    C3 3923   1.235   5.416   6.709  0.0192 -0.4618  0.0912
   54CHL1    H3 3924   1.191   5.314   6.711  0.4117 -0.6287  0.4654
   54CHL1    O3 3925   1.241   5.482   6.585 -0.0001 -0.2773  0.1436
   54CHL1   H3' 3926   1.320   5.535   6.589 -0.9480  1.5142 -2.2802
   54CHL1    C4 3927   1.151   5.502   6.802 -0.0164  0.6820 -0.2033
   54CHL1   H4A 3928   1.200   5.602   6.806  2.1899 -0.3590  0.3916
   54CHL1   H4B 3929   1.048   5.504   6.760  0.1867  2.0784 -0.6768
   54CHL1    C5 3930   1.156   5.449   6.941  0.3835 -1.0408  0.2272
   54CHL1    C6 3931   1.043   5.408   7.012 -0.1911  0.2559  0.5915
   54CHL1    H6 3932   0.952   5.395   6.952  0.9028  0.1769 -1.1531
   54CHL1    C7 3933   1.050   5.361   7.156 -0.7566 -0.6703  0.6825
   54CHL1   H7A 3934   0.960   5.387   7.215 -0.8346 -2.5396  1.4605
   54CHL1   H7B 3935   1.052   5.250   7.158  0.7496 -0.7400 -1.2003
   54CHL1    C8 3936   1.176   5.405   7.235 -0.1613  0.2524  0.0154
   54CHL1    H8 3937   1.171   5.515   7.246  2.3729  0.3875  0.2941
   54CHL1   C14 3938   1.185   5.334   7.368  0.0876 -0.0850  0.5545
   54CHL1   H14 3939   1.205   5.226   7.349  2.9341  0.3715  0.4768
   54CHL1   C15 3940   1.070   5.349   7.470  0.0343 -0.0817 -0.5919
   54CHL1  H15A 3941   1.014   5.446   7.471 -0.8148 -0.5619 -0.3504
   54CHL1  H15B 3942   0.992   5.281   7.431 -0.2477 -1.1391  1.6562
   54CHL1   C16 3943   1.132   5.310   7.600  0.1520 -0.0057  0.2744
   54CHL1  H16A 3944   1.104   5.386   7.675 -1.1101  0.5565 -0.7147
   54CHL1  H16B 3945   1.088   5.215   7.638 -0.3449  0.0811 -0.0662
   54CHL1   C17 3946   1.286   5.300   7.585  0.0276  0.2807 -0.1863
   54CHL1   H17 3947   1.302   5.190   7.583  0.7662  0.3051  1.7852
   54CHL1   C13 3948   1.316   5.362   7.447 -0.4696 -0.3842  1.1712
   54CHL1   C18 3949   1.327   5.509   7.468 -0.0537  0.7343 -0.5528
   54CHL1  H18A 3950   1.245   5.550   7.530  0.0281 -1.2670  0.9765
   54CHL1  H18B 3951   1.426   5.534   7.512  0.1511  1.8189 -1.5601
   54CHL1  H18C 3952   1.315   5.567   7.373  0.9397  0.0565 -1.1145
   54CHL1   C12 3953   1.426   5.299   7.365 -0.1132  0.5353  0.0070
   54CHL1  H12A 3954   1.528   5.292   7.410  0.0901 -1.0172 -0.6100
   54CHL1  H12B 3955   1.403   5.192   7.342  0.6340 -0.0536  1.8045
   54CHL1   C11 3956   1.435   5.360   7.223  0.1202  0.2617 -0.0193
   54CHL1  H11A 3957   1.465   5.464   7.250 -2.6332  0.9363  0.7369
   54CHL1  H11B 3958   1.521   5.313   7.171  1.4881  0.0521  2.2659
   54CHL1    C9 3959   1.300   5.370   7.146  0.7938 -0.1934  0.4000
   54CHL1    H9 3960   1.284   5.266   7.110  4.2232 -0.2727 -1.3027
   54CHL1   C10 3961   1.297   5.441   7.011 -0.1971 -0.2436 -0.1452
   54CHL1   C19 3962   1.359   5.581   7.022  1.1261  0.4188  0.2154
   54CHL1  H19A 3963   1.344   5.645   6.932 -0.0098  0.3689  0.3582
   54CHL1  H19B 3964   1.313   5.630   7.111 -1.7892 -1.6045 -0.0222
   54CHL1  H19C 3965   1.469   5.579   7.037  1.2064  1.0965 -0.2322
   54CHL1    C1 3966   1.382   5.367   6.914 -0.1476 -0.0574  0.6288
   54CHL1   H1A 3967   1.489   5.375   6.942  0.1734  0.9628 -0.7994
   54CHL1   H1B 3968   1.353   5.260   6.926  1.4243 -0.2793  3.0410
   54CHL1    C2 3969   1.381   5.406   6.767  0.1219 -0.3255  0.2208
   54CHL1   H2A 3970   1.437   5.336   6.703 -2.0793 -2.5888  0.6307
   54CHL1   H2B 3971   1.421   5.510   6.765 -1.5859  0.3858 -2.5076
   54CHL1   C20 3972   1.367   5.348   7.715 -0.4047  0.5293 -0.3305
   54CHL1   H20 3973   1.347   5.457   7.728 -1.4267  0.3154 -0.0599
   54CHL1   C21 3974   1.522   5.328   7.689  0.0672  0.2649  0.1507
   54CHL1  H21A 3975   1.559   5.384   7.601 -0.5120  0.8055  0.2460
   54CHL1  H21B 3976   1.542   5.223   7.656 -1.3473 -0.1740  0.6129
   54CHL1  H21C 3977   1.580   5.364   7.777 -1.0725  0.3628  0.8775
   54CHL1   C22 3978   1.328   5.274   7.843 -0.2167  0.4685  0.0457
   54CHL1  H22A 3979   1.222   5.307   7.849 -0.7091 -0.7095 -1.5674
   54CHL1  H22B 3980   1.342   5.165   7.826  0.4716  0.4507  0.6584
   54CHL1   C23 3981   1.411   5.308   7.965 -0.1861 -0.0138 -0.8540
   54CHL1  H23A 3982   1.517   5.280   7.945 -0.1066  0.3264 -0.9250
   54CHL1  H23B 3983   1.397   5.418   7.973  0.1116 -0.0188 -0.1514
   54CHL1   C24 3984   1.371   5.235   8.096 -0.2917 -0.7887 -0.2514
   54CHL1  H24A 3985   1.310   5.149   8.061 -2.4967 -1.6821  4.8644
   54CHL1  H24B 3986   1.466   5.187   8.128 -1.0733 -2.2702 -0.0775
   54CHL1   C25 3987   1.295   5.314   8.203  0.6148  0.3935 -0.4859
   54CHL1   H25 3988   1.258   5.240   8.277 -2.1010  3.5862  1.6385
   54CHL1   C26 3989   1.381   5.412   8.286 -0.2907 -0.1580  0.3493
   54CHL1  H26A 3990   1.478   5.362   8.309 -0.4746 -0.9760 -0.5559
   54CHL1  H26B 3991   1.412   5.490   8.213 -1.5545 -0.8076 -0.9253
   54CHL1  H26C 3992   1.338   5.471   8.369 -2.1519  0.0881 -0.7470
   54CHL1   C27 3993   1.176   5.387   8.133  0.1952  0.3116 -0.0601
   54CHL1  H27A 3994   1.113   5.442   8.206 -2.7117 -0.6829 -1.6704
   54CHL1  H27B 3995   1.213   5.459   8.058 -0.3452  0.7295  0.0732
   54CHL1  H27C 3996   1.115   5.302   8.095  3.5719 -2.7489  0.6985
   55CHL1    C3 3997   1.242   1.437   6.974  0.9376  0.2573 -0.2146
   55CHL1    H3 3998   1.329   1.506   6.969  0.1824  1.2242 -0.1058
   55CHL1    O3 3999   1.163   1.448   6.861  0.2564 -0.0848  0.0227
   55CHL1   H3' 4000   1.092   1.384   6.869  0.2376 -0.1194 -0.3803
   55CHL1    C4 4001   1.284   1.285   6.991 -0.2610  0.0727 -0.3041
   55CHL1   H4A 4002   1.192   1.224   6.978 -0.1191  0.5363 -5.6005
   55CHL1   H4B 4003   1.345   1.264   6.901 -3.1996 -1.5184 -2.0830
   55CHL1    C5 4004   1.360   1.261   7.122 -0.1328  0.1913 -0.0228
   55CHL1    C6 4005   1.488   1.212   7.122 -0.2847 -0.9039  0.6455
   55CHL1    H6 4006   1.548   1.189   7.033  0.0056  2.5461 -0.1779
   55CHL1    C7 4007   1.566   1.184   7.250 -0.3952 -0.1355  0.4602
   55CHL1   H7A 4008   1.597   1.077   7.250 -3.8033 -1.2669  2.2396
   55CHL1   H7B 4009   1.648   1.260   7.246 -2.2390  1.9221 -2.9435
   55CHL1    C8 4010   1.490   1.188   7.377 -0.0308 -0.2404  0.5317
   55CHL1    H8 4011   1.421   1.101   7.373 -0.7939  0.3504  0.6169
   55CHL1   C14 4012   1.569   1.195   7.501 -0.3439 -0.0308 -0.7865
   55CHL1   H14 4013   1.619   1.293   7.510  1.1854 -0.8482  0.1197
   55CHL1   C15 4014   1.683   1.085   7.517  0.3055  0.0025 -0.5984
   55CHL1  H15A 4015   1.648   0.982   7.494 -1.9960  0.6430 -0.2259
   55CHL1  H15B 4016   1.777   1.113   7.465 -0.7252  2.0996 -1.4763
   55CHL1   C16 4017   1.716   1.099   7.664 -0.1854  0.1586 -0.1568
   55CHL1  H16A 4018   1.716   0.996   7.707  0.0544 -0.9079 -2.5494
   55CHL1  H16B 4019   1.817   1.141   7.683  0.1702 -1.5398  2.2796
   55CHL1   C17 4020   1.611   1.187   7.736 -0.0779 -0.1753  0.0314
   55CHL1   H17 4021   1.660   1.286   7.746  1.6478 -1.0391  0.5429
   55CHL1   C13 4022   1.490   1.194   7.637 -0.4352  0.0390 -0.3813
   55CHL1   C18 4023   1.410   1.064   7.653  0.0820 -0.2455 -0.2405
   55CHL1  H18A 4024   1.346   1.049   7.563  2.6482 -0.0006 -2.2427
   55CHL1  H18B 4025   1.481   0.981   7.674  0.8470  0.5030  0.2130
   55CHL1  H18C 4026   1.343   1.073   7.740 -0.1908  0.1136 -0.4851
   55CHL1   C12 4027   1.396   1.316   7.648  0.2985 -1.2549  0.3391
   55CHL1  H12A 4028   1.324   1.314   7.733 -0.3957  0.8146 -0.1482
   55CHL1  H12B 4029   1.449   1.412   7.665 -1.2107 -0.3912  0.4063
   55CHL1   C11 4030   1.309   1.325   7.514  0.2910 -0.2015  0.7131
   55CHL1  H11A 4031   1.226   1.252   7.522 -0.5404  0.5299 -0.7132
   55CHL1  H11B 4032   1.263   1.426   7.508  2.2172  0.6631 -0.4658
   55CHL1    C9 4033   1.388   1.309   7.376  0.2996  0.1856  0.0965
   55CHL1    H9 4034   1.454   1.397   7.365  0.6992  0.0169  1.0522
   55CHL1   C10 4035   1.289   1.311   7.250 -0.1023  0.7393  0.2038
   55CHL1   C19 4036   1.167   1.224   7.280  0.2957  0.4108 -0.3449
   55CHL1  H19A 4037   1.106   1.234   7.187  0.6565  0.4585 -0.5804
   55CHL1  H19B 4038   1.200   1.120   7.298  0.7952  0.7041  0.4577
   55CHL1  H19C 4039   1.104   1.259   7.365  2.1306 -1.5149  1.9356
   55CHL1    C1 4040   1.246   1.457   7.223  0.0185  0.2476 -0.1610
   55CHL1   H1A 4041   1.173   1.491   7.299  0.1962 -3.0050  1.6215
   55CHL1   H1B 4042   1.334   1.525   7.225  1.2554 -1.2725 -0.3328
   55CHL1    C2 4043   1.159   1.473   7.095 -0.1928 -0.9706 -0.3598
   55CHL1   H2A 4044   1.124   1.578   7.086 -0.0862 -0.9615 -0.6766
   55CHL1   H2B 4045   1.068   1.412   7.112 -0.7929 -0.4391 -1.6014
   55CHL1   C20 4046   1.576   1.149   7.889  0.3705 -0.4610 -0.5656
   55CHL1   H20 4047   1.517   1.057   7.908 -0.9138  0.0515 -1.8525
   55CHL1   C21 4048   1.490   1.260   7.952  0.9191 -0.1070 -0.3661
   55CHL1  H21A 4049   1.380   1.254   7.937  0.9814  0.2922 -0.9967
   55CHL1  H21B 4050   1.520   1.358   7.909  2.4472 -0.6360 -0.5518
   55CHL1  H21C 4051   1.506   1.256   8.062 -0.0119 -0.6256 -0.2430
   55CHL1   C22 4052   1.706   1.134   7.971 -0.0944  0.8720  0.3168
   55CHL1  H22A 4053   1.678   1.097   8.072 -0.9378  0.1728 -0.1593
   55CHL1  H22B 4054   1.778   1.057   7.936  2.1170  1.4006  3.2708
   55CHL1   C23 4055   1.793   1.253   7.986 -0.5650  0.0562 -0.0078
   55CHL1  H23A 4056   1.843   1.270   7.888  0.4390 -2.5691 -0.0182
   55CHL1  H23B 4057   1.739   1.349   8.000 -1.1127  0.0565 -1.8741
   55CHL1   C24 4058   1.894   1.243   8.101  0.0893  0.5526 -0.0030
   55CHL1  H24A 4059   1.960   1.156   8.082  0.0497  0.3569  0.7457
   55CHL1  H24B 4060   1.963   1.331   8.103 -0.0038  0.6052  1.3298
   55CHL1   C25 4061   1.825   1.252   8.238  0.3107  1.1738 -0.0915
   55CHL1   H25 4062   1.748   1.173   8.249  2.0021 -0.4207  0.7362
   55CHL1   C26 4063   1.928   1.235   8.355 -0.0453 -0.2359  0.2031
   55CHL1  H26A 4064   1.871   1.240   8.450  0.1201  1.4277  0.2388
   55CHL1  H26B 4065   1.984   1.139   8.353  0.3753 -0.0059  0.8057
   55CHL1  H26C 4066   2.013   1.306   8.345  0.3817 -0.9723 -2.1080
   55CHL1   C27 4067   1.750   1.386   8.255  0.0806 -0.2379 -0.2334
   55CHL1  H27A 4068   1.811   1.465   8.207 -0.6574 -0.4139 -1.5097
   55CHL1  H27B 4069   1.654   1.362   8.203 -0.9544 -0.3902  1.6291
   55CHL1  H27C 4070   1.719   1.424   8.355 -1.0595 -0.5716 -0.4445
   56CHL1    C3 4071   6.626   5.621   7.016  0.3236  0.3663  0.5796
   56CHL1    H3 4072   6.532   5.638   7.072 -0.0309  1.0602 -0.1963
   56CHL1    O3 4073   6.590   5.641   6.873  0.2158 -0.0926  0.0871
   56CHL1   H3' 4074   6.634   5.573   6.822 -1.6833  0.2715 -2.2148
   56CHL1    C4 4075   6.734   5.711   7.073 -0.9077 -0.5365  0.2116
   56CHL1   H4A 4076   6.833   5.701   7.022 -0.8439  0.1430  0.1922
   56CHL1   H4B 4077   6.700   5.814   7.051 -0.8699 -0.5483  0.0971
   56CHL1    C5 4078   6.756   5.685   7.215 -0.1740  0.1719 -0.7836
   56CHL1    C6 4079   6.732   5.781   7.307 -0.6838 -0.3348 -0.5512
   56CHL1    H6 4080   6.698   5.883   7.281  4.6106  1.5764 -1.1651
   56CHL1    C7 4081   6.749   5.755   7.449 -0.1339 -0.0230  0.1914
   56CHL1   H7A 4082   6.784   5.848   7.498 -0.3557  0.6451 -0.8916
   56CHL1   H7B 4083   6.652   5.740   7.500  1.0743 -4.3802  1.6810
   56CHL1    C8 4084   6.828   5.629   7.485 -0.3781  0.1457 -0.3651
   56CHL1    H8 4085   6.931   5.649   7.450 -0.2649 -1.3590 -0.9517
   56CHL1   C14 4086   6.820   5.594   7.634  0.2679  0.1423  0.2059
   56CHL1   H14 4087   6.713   5.569   7.649  0.3191  1.0454  2.6055
   56CHL1   C15 4088   6.860   5.696   7.744  0.1731  0.3287  0.6269
   56CHL1  H15A 4089   6.951   5.755   7.719  0.0661 -0.8706 -3.2030
   56CHL1  H15B 4090   6.775   5.763   7.770  1.0710  1.6658  0.1837
   56CHL1   C16 4091   6.876   5.615   7.874  0.1737  0.1674 -0.6039
   56CHL1  H16A 4092   6.971   5.645   7.921  2.1173 -1.9183 -2.9207
   56CHL1  H16B 4093   6.785   5.637   7.934 -0.4534 -0.2490 -1.3762
   56CHL1   C17 4094   6.871   5.463   7.837 -0.0387 -0.4177 -0.4677
   56CHL1   H17 4095   6.772   5.416   7.854 -0.0357  0.0112  0.8774
   56CHL1   C13 4096   6.894   5.468   7.677  0.0275  0.0283 -0.7731
   56CHL1   C18 4097   7.043   5.485   7.650 -0.0140  0.2561  0.2832
   56CHL1  H18A 4098   7.050   5.520   7.545 -3.4200  0.0651 -0.1054
   56CHL1  H18B 4099   7.094   5.548   7.725  2.4137 -1.8062  0.4913
   56CHL1  H18C 4100   7.081   5.380   7.654 -2.1945 -0.5555  1.3292
   56CHL1   C12 4101   6.838   5.348   7.612  0.5864  0.1426  1.2807
   56CHL1  H12A 4102   6.871   5.246   7.640  0.6859 -0.3298 -0.4402
   56CHL1  H12B 4103   6.728   5.338   7.627  0.5156 -1.9011 -0.2234
   56CHL1   C11 4104   6.847   5.372   7.462 -0.1958  0.5537  0.4245
   56CHL1  H11A 4105   6.953   5.373   7.426  0.2566  3.5523  1.5336
   56CHL1  H11B 4106   6.805   5.298   7.391 -0.7389  1.2558 -0.0026
   56CHL1    C9 4107   6.789   5.511   7.409  0.3815  0.0163 -0.4041
   56CHL1    H9 4108   6.683   5.502   7.441  1.1490 -2.4947  1.7724
   56CHL1   C10 4109   6.798   5.539   7.255 -1.1416 -0.3189 -0.0991
   56CHL1   C19 4110   6.941   5.510   7.201 -0.3566 -0.6594 -0.1267
   56CHL1  H19A 4111   6.956   5.538   7.095  1.5582 -0.9996  0.0229
   56CHL1  H19B 4112   6.999   5.576   7.268 -2.8197  0.2082  1.2916
   56CHL1  H19C 4113   6.967   5.402   7.208 -1.8915 -0.9987  0.7096
   56CHL1    C1 4114   6.705   5.437   7.169 -0.1168  0.3720  0.5539
   56CHL1   H1A 4115   6.755   5.338   7.170  1.9400  1.3581  0.2333
   56CHL1   H1B 4116   6.601   5.430   7.207 -0.6687  1.2141 -0.7425
   56CHL1    C2 4117   6.681   5.477   7.023  0.8489  0.0066 -0.3483
   56CHL1   H2A 4118   6.603   5.413   6.978 -0.3806  0.8978  0.4479
   56CHL1   H2B 4119   6.770   5.471   6.957  0.3998 -0.4575 -0.9191
   56CHL1   C20 4120   6.972   5.383   7.929  0.7097  1.0847  0.4815
   56CHL1   H20 4121   7.068   5.436   7.910  1.5031 -0.1380  0.9156
   56CHL1   C21 4122   6.970   5.241   7.882  0.2090  0.6156 -0.5017
   56CHL1  H21A 4123   6.869   5.193   7.887  0.4152  0.2544  2.7708
   56CHL1  H21B 4124   7.023   5.175   7.954  0.6517  0.2534 -1.1478
   56CHL1  H21C 4125   7.016   5.229   7.782  0.3464 -0.2369 -0.3473
   56CHL1   C22 4126   6.918   5.405   8.072 -1.0029 -0.2811 -0.6929
   56CHL1  H22A 4127   6.937   5.511   8.100 -1.7410 -0.1387 -0.7070
   56CHL1  H22B 4128   6.808   5.396   8.079 -0.8874 -0.3286  2.8170
   56CHL1   C23 4129   6.982   5.317   8.174  0.4454 -0.0013 -0.4849
   56CHL1  H23A 4130   6.943   5.213   8.165  1.0586 -0.1083 -2.2042
   56CHL1  H23B 4131   7.090   5.333   8.158  0.5170  2.2255  1.6306
   56CHL1   C24 4132   6.953   5.348   8.329  0.5312  0.3538 -0.0252
   56CHL1  H24A 4133   6.850   5.310   8.345  0.2250  1.0797 -0.2222
   56CHL1  H24B 4134   7.023   5.277   8.378  1.1588  0.2298 -1.0514
   56CHL1   C25 4135   6.964   5.492   8.370 -0.1072  0.2406 -0.5429
   56CHL1   H25 4136   6.911   5.544   8.287  1.0399 -1.4592 -2.4309
   56CHL1   C26 4137   6.905   5.523   8.504 -0.3186  0.2150  0.0416
   56CHL1  H26A 4138   6.809   5.467   8.513  0.4080 -1.0591  0.1323
   56CHL1  H26B 4139   6.894   5.632   8.524  0.9140  0.3523  0.0095
   56CHL1  H26C 4140   6.967   5.493   8.591 -1.9487 -0.3463  1.0610
   56CHL1   C27 4141   7.111   5.546   8.357  0.7770  0.7463  0.3012
   56CHL1  H27A 4142   7.134   5.529   8.250  1.6337 -0.1879  0.6199
   56CHL1  H27B 4143   7.127   5.649   8.397  1.6402  0.1120  1.6764
   56CHL1  H27C 4144   7.165   5.473   8.422 -0.3218 -1.1789 -0.8610
   57SAPC     N 4145   6.580   2.908  10.739  0.3163 -0.3708  0.1970
   57SAPC   C12 4146   6.495   2.790  10.717 -0.8668 -0.1951  0.3885
   57SAPC  H12A 4147   6.495   2.752  10.616  0.0967 -1.2380  0.7572
   57SAPC  H12B 4148   6.397   2.824  10.747 -0.7071 -0.8688  1.7498
   57SAPC   C13 4149   6.551   2.954  10.875 -0.6177  0.0937 -0.6354
   57SAPC  H13A 4150   6.450   2.989  10.891 -0.0974  2.9643 -2.7090
   57SAPC  H13B 4151   6.570   2.877  10.948  0.3206  0.5044 -0.4422
   57SAPC  H13C 4152   6.615   3.036  10.901 -1.4085  0.9110 -1.1880
   57SAPC   C14 4153   6.725   2.888  10.727 -0.1176  0.2268 -0.1980
   57SAPC  H14A 4154   6.769   2.985  10.744 -1.2250  1.0278 -1.6584
   57SAPC  H14B 4155   6.747   2.811  10.800 -2.7099  0.4974  0.9666
   57SAPC  H14C 4156   6.761   2.855  10.631 -0.7718  0.1921 -0.4376
   57SAPC   C15 4157   6.536   3.015  10.647  0.0370  0.3425  0.3684
   57SAPC  H15A 4158   6.431   3.035  10.659 -0.0784 -0.0611  0.0663
   57SAPC  H15B 4159   6.584   3.111  10.660  2.2580 -0.4968 -1.0981
   57SAPC  H15C 4160   6.554   2.981  10.546 -2.0575  1.1107 -0.3225
   57SAPC   C11 4161   6.521   2.667  10.802  0.3937 -0.5851 -0.0714
   57SAPC  H11A 4162   6.439   2.593  10.802  1.2603 -1.6166 -1.7473
   57SAPC  H11B 4163   6.530   2.701  10.907 -1.1566 -3.2238  1.0213
   57SAPC     P 4164   6.708   2.502  10.848 -0.2473  0.3412 -0.3006
   57SAPC   O13 4165   6.757   2.574  10.968 -0.7062 -0.3010  0.1231
   57SAPC   O14 4166   6.619   2.389  10.867  0.0402 -0.2435 -0.1393
   57SAPC   O12 4167   6.645   2.608  10.752 -0.0097  0.3318  0.0918
   57SAPC   O11 4168   6.834   2.441  10.768 -0.1759 -0.4013 -0.5922
   57SAPC    C1 4169   6.880   2.493  10.650  0.4281 -0.5085 -0.2876
   57SAPC    HA 4170   6.846   2.595  10.623  1.9258  0.2004  0.3860
   57SAPC    HB 4171   6.990   2.502  10.664  0.4033 -1.9373  1.2255
   57SAPC    C2 4172   6.854   2.400  10.534 -0.1219  0.0236  0.6023
   57SAPC    HS 4173   6.910   2.446  10.449 -1.2969  1.7061  0.6998
   57SAPC   O21 4174   6.717   2.374  10.507 -0.1226  0.4430 -0.0893
   57SAPC   C21 4175   6.640   2.479  10.480 -0.6051 -0.0682  0.1131
   57SAPC   O22 4176   6.682   2.588  10.438  0.5002 -0.1337  0.4274
   57SAPC   C22 4177   6.493   2.434  10.498 -0.7222 -0.0733  0.3300
   57SAPC   H2R 4178   6.494   2.333  10.452  1.5884 -0.4180  1.0062
   57SAPC   H2S 4179   6.475   2.421  10.607 -0.5620 -0.6794  0.2850
   57SAPC    C3 4180   6.923   2.264  10.554 -0.1399  0.1441  0.1765
   57SAPC    HX 4181   6.882   2.209  10.642 -0.3813 -1.1115 -0.6970
   57SAPC    HY 4182   7.030   2.288  10.568  0.1816 -2.1516  2.3169
   57SAPC   O31 4183   6.904   2.182  10.433 -0.2094 -0.1625 -0.0106
   57SAPC   C31 4184   6.976   2.072  10.436 -0.4070  0.2822  0.2301
   57SAPC   O32 4185   7.054   2.043  10.523 -0.2169 -0.6543 -0.8028
   57SAPC   C32 4186   6.940   1.982  10.310  0.1636  0.3268  0.2050
   57SAPC   H2X 4187   7.005   1.892  10.315 -0.2458 -0.0756 -1.3677
   57SAPC   H2Y 4188   6.952   2.035  10.213  1.1479 -1.3128 -0.6310
   57SAPC   C23 4189   6.398   2.536  10.434 -0.2132  0.0477 -0.5923
   57SAPC   H3R 4190   6.414   2.638  10.476 -2.3476 -0.1825  0.9565
   57SAPC   H3S 4191   6.292   2.508  10.453  0.4400 -0.9043  2.0915
   57SAPC   C24 4192   6.409   2.563  10.280  0.4075 -0.6458  0.2566
   57SAPC   H4R 4193   6.512   2.602  10.262 -0.4403  1.1910 -0.7750
   57SAPC   H4S 4194   6.342   2.645  10.250  0.7079 -0.7953 -0.8874
   57SAPC   C25 4195   6.380   2.440  10.203 -0.2003  0.2610  0.6238
   57SAPC   H5R 4196   6.272   2.419  10.203 -0.1875  0.1711  0.1143
   57SAPC   C26 4197   6.473   2.356  10.134  0.5147 -0.4769 -0.2580
   57SAPC   H6R 4198   6.442   2.258  10.094  0.9749  0.0367 -1.9610
   57SAPC   C27 4199   6.620   2.376  10.127 -0.2041  0.8788  0.1132
   57SAPC   H7R 4200   6.672   2.296  10.071 -1.0056 -0.0766  0.6933
   57SAPC   H7S 4201   6.659   2.346  10.227 -0.3529 -1.3420 -0.4429
   57SAPC   C28 4202   6.661   2.510  10.071  0.1843  0.0234 -0.1318
   57SAPC   H8R 4203   6.699   2.585  10.143  0.8106 -0.0568 -0.3714
   57SAPC   C29 4204   6.665   2.548   9.939 -0.2659 -0.4879 -0.2201
   57SAPC   H9R 4205   6.694   2.652   9.917  1.9599 -1.3630 -1.7850
   57SAPC  C210 4206   6.622   2.460   9.825  0.3037 -0.1094  0.1775
   57SAPC  H10R 4207   6.581   2.528   9.747  1.6769  0.4356 -0.0924
   57SAPC  H10S 4208   6.533   2.401   9.856 -2.1344  3.2098  0.1441
   57SAPC  C211 4209   6.726   2.369   9.767  0.8636 -0.8935  1.0739
   57SAPC  H11R 4210   6.797   2.342   9.847  0.0519 -2.4890  1.2945
   57SAPC  C212 4211   6.750   2.323   9.647  0.3695 -0.1628  0.4614
   57SAPC  H12R 4212   6.830   2.248   9.639 -0.2291 -0.6782 -1.2259
   57SAPC  C213 4213   6.664   2.353   9.523 -0.5685  0.0537 -0.9500
   57SAPC  H13R 4214   6.700   2.446   9.475  1.2216 -0.1838 -0.1557
   57SAPC  H13S 4215   6.565   2.389   9.559  0.1340  0.2658  0.8793
   57SAPC  C214 4216   6.633   2.250   9.423  0.5262  0.5446  0.6532
   57SAPC  H14R 4217   6.595   2.155   9.461  0.0146  0.0219 -1.0495
   57SAPC  C215 4218   6.659   2.246   9.287 -0.8032 -0.2395 -0.2639
   57SAPC  H15R 4219   6.633   2.160   9.224 -0.0329 -2.2098  1.9392
   57SAPC  C216 4220   6.705   2.371   9.223 -0.5672  0.1613  0.1196
   57SAPC  H16R 4221   6.782   2.361   9.143 -0.1680  4.3907 -0.2610
   57SAPC  H16S 4222   6.774   2.428   9.289  0.5835 -2.6295  1.5151
   57SAPC  C217 4223   6.589   2.469   9.179 -0.0645  0.0730  0.2495
   57SAPC  H17R 4224   6.630   2.547   9.111 -2.7500  0.3007 -1.2285
   57SAPC  H17S 4225   6.558   2.523   9.271  1.4447  0.6925  0.4160
   57SAPC  C218 4226   6.470   2.408   9.113 -0.4569  0.9114 -0.0029
   57SAPC  H18R 4227   6.397   2.373   9.189 -0.2976  1.6233  0.4898
   57SAPC  H18S 4228   6.509   2.321   9.055 -2.4612  2.0864 -3.4094
   57SAPC  C219 4229   6.387   2.507   9.025 -0.5198  0.4783  0.6868
   57SAPC  H19R 4230   6.310   2.439   8.984  0.6657  0.9725 -2.6042
   57SAPC  H19S 4231   6.454   2.540   8.943 -0.3561  0.4604  0.8144
   57SAPC  C220 4232   6.329   2.628   9.095 -0.1307  0.3055 -0.0171
   57SAPC  H20R 4233   6.308   2.583   9.194 -1.2365 -3.2035 -1.7005
   57SAPC  H20S 4234   6.227   2.653   9.058 -0.0975 -0.2421 -0.4813
   57SAPC  H20T 4235   6.398   2.715   9.103  0.6786 -0.3954  0.9265
   57SAPC   C33 4236   6.788   1.939  10.324 -0.7477 -0.3634  0.2736
   57SAPC   H3X 4237   6.730   2.033  10.336 -0.2146  0.1025 -0.6693
   57SAPC   H3Y 4238   6.770   1.869  10.408 -0.2173 -1.9937 -0.9246
   57SAPC   C34 4239   6.723   1.861  10.194  0.5458 -0.2540  0.0412
   57SAPC   H4X 4240   6.616   1.869  10.220  0.5680  0.5779 -0.0875
   57SAPC   H4Y 4241   6.772   1.762  10.195 -1.3365 -1.2745  2.9978
   57SAPC   C35 4242   6.751   1.931  10.055  0.3842  0.2438 -0.0996
   57SAPC   H5X 4243   6.860   1.928  10.036  0.7693  2.3214  1.4195
   57SAPC   H5Y 4244   6.724   2.039  10.053 -0.2686  0.1010  0.7484
   57SAPC   C36 4245   6.681   1.854   9.931 -0.1585 -0.2962 -0.3786
   57SAPC   H6X 4246   6.571   1.836   9.939  0.2310 -3.4495 -1.0114
   57SAPC   H6Y 4247   6.734   1.757   9.936 -0.9356 -0.7583 -0.8444
   57SAPC   C37 4248   6.708   1.920   9.798  0.7130  0.3617  0.5388
   57SAPC   H7X 4249   6.694   2.030   9.804  1.0579  0.6595 -2.5508
   57SAPC   H7Y 4250   6.631   1.885   9.727  0.9419 -0.6659  0.7824
   57SAPC   C38 4251   6.843   1.884   9.736 -0.4361 -0.3075  0.7282
   57SAPC   H8X 4252   6.841   1.779   9.700 -0.3589  0.6241 -2.3153
   57SAPC   H8Y 4253   6.915   1.883   9.820 -1.6648  0.3901  1.8224
   57SAPC   C39 4254   6.883   1.954   9.604 -0.7279 -0.6015 -0.3416
   57SAPC   H9X 4255   6.975   1.914   9.555  0.0774 -1.3797  1.7193
   57SAPC   H9Y 4256   6.892   2.065   9.617 -0.6348 -0.8036  1.6721
   57SAPC  C310 4257   6.792   1.937   9.483 -0.5292 -0.2173 -0.0205
   57SAPC  H10X 4258   6.783   2.037   9.435 -1.6389  0.7662  2.1241
   57SAPC  H10Y 4259   6.687   1.930   9.519 -1.0252 -1.3380 -1.5449
   57SAPC  C311 4260   6.846   1.833   9.386  0.2597  0.3564  0.2051
   57SAPC  H11X 4261   6.823   1.735   9.433 -1.6388  0.2825 -0.7579
   57SAPC  H11Y 4262   6.953   1.840   9.358 -0.1904  0.5913 -1.5711
   57SAPC  C312 4263   6.780   1.848   9.243  0.3966 -0.1731  0.1443
   57SAPC  H12X 4264   6.672   1.869   9.260  0.7579  2.7967 -0.7291
   57SAPC  H12Y 4265   6.768   1.752   9.188 -2.0663 -0.8830  1.7300
   57SAPC  C313 4266   6.847   1.956   9.150 -0.6041  0.3734  0.0493
   57SAPC  H13X 4267   6.952   1.926   9.130  0.5726  2.1582  2.8716
   57SAPC  H13Y 4268   6.865   2.041   9.219 -1.1124 -0.2763  1.0026
   57SAPC  C314 4269   6.765   2.005   9.029  0.0780 -0.4677  0.2608
   57SAPC  H14X 4270   6.817   2.079   8.963  0.3440 -1.1450 -0.3054
   57SAPC  H14Y 4271   6.673   2.053   9.068  1.1874  0.6044  1.6862
   57SAPC  C315 4272   6.722   1.899   8.929 -0.1414 -0.3662  0.9191
   57SAPC  H15X 4273   6.648   1.836   8.984 -0.1467 -1.8356 -0.7002
   57SAPC  H15Y 4274   6.813   1.840   8.906 -0.5959 -1.0590  0.8757
   57SAPC  C316 4275   6.654   1.961   8.801 -0.1075  0.7149 -0.9122
   57SAPC  H16X 4276   6.721   2.020   8.736  0.7968  2.1729  1.2383
   57SAPC  H16Y 4277   6.578   2.031   8.843 -0.6394 -1.1030  1.3560
   57SAPC  C317 4278   6.578   1.851   8.727 -0.9347  0.2296 -0.2159
   57SAPC  H17X 4279   6.497   1.822   8.797 -1.1644  0.6736 -0.2927
   57SAPC  H17Y 4280   6.653   1.773   8.705 -0.8965  0.3234 -0.4258
   57SAPC  C318 4281   6.518   1.899   8.598  0.5631  0.1684  0.4595
   57SAPC  H18X 4282   6.594   1.966   8.553  2.0233 -1.3914  0.5265
   57SAPC  H18Y 4283   6.428   1.963   8.610  2.2046  2.7924 -0.4361
   57SAPC  H18Z 4284   6.503   1.813   8.530  2.1810 -0.8511  1.3229
   58SAPC     N 4285   2.722   6.235  11.065  0.0019 -0.0753  0.0242
   58SAPC   C12 4286   2.816   6.273  10.954 -0.3778 -0.0972 -0.4152
   58SAPC  H12A 4287   2.916   6.249  10.986 -1.0570  0.0963  2.0900
   58SAPC  H12B 4288   2.829   6.379  10.934  0.3326 -0.3942 -1.5537
   58SAPC   C13 4289   2.754   6.311  11.191  0.3331  0.9351  0.3151
   58SAPC  H13A 4290   2.729   6.414  11.167 -0.2293  0.5936 -0.6024
   58SAPC  H13B 4291   2.691   6.275  11.270  0.8608  1.4953  1.0069
   58SAPC  H13C 4292   2.855   6.286  11.220  0.5470  0.7843 -0.5471
   58SAPC   C14 4293   2.579   6.266  11.023 -0.0893 -0.6653 -0.4786
   58SAPC  H14A 4294   2.505   6.266  11.102 -1.7668  2.7386 -1.8507
   58SAPC  H14B 4295   2.571   6.360  10.971 -1.3122 -1.2372 -1.3565
   58SAPC  H14C 4296   2.549   6.181  10.964 -1.0091 -2.4101  2.3032
   58SAPC   C15 4297   2.736   6.096  11.096  0.6698 -0.5032  0.2222
   58SAPC  H15A 4298   2.673   6.056  11.174  0.4101 -1.3516 -0.4145
   58SAPC  H15B 4299   2.729   6.030  11.011  1.3327 -1.4830  0.9052
   58SAPC  H15C 4300   2.838   6.076  11.124 -0.0024 -1.2472  2.3794
   58SAPC   C11 4301   2.799   6.207  10.809  0.5650 -0.4225  0.6967
   58SAPC  H11A 4302   2.784   6.098  10.818 -1.1828 -0.0574  3.2942
   58SAPC  H11B 4303   2.897   6.227  10.760  1.1289  0.7764  2.2192
   58SAPC     P 4304   2.707   6.419  10.689  0.1623 -0.1468  0.2613
   58SAPC   O13 4305   2.571   6.476  10.677  0.1470 -0.0650  0.6735
   58SAPC   O14 4306   2.795   6.496  10.776 -0.2520  0.3098  0.2479
   58SAPC   O12 4307   2.689   6.270  10.743 -0.5647  0.3913  0.3137
   58SAPC   O11 4308   2.769   6.405  10.543  0.2567  0.1060  0.0548
   58SAPC    C1 4309   2.799   6.277  10.480 -0.9608 -0.2432  0.6965
   58SAPC    HA 4310   2.874   6.222  10.540 -0.1767  1.6115  1.4850
   58SAPC    HB 4311   2.703   6.223  10.467 -1.5086  1.0852 -1.1677
   58SAPC    C2 4312   2.865   6.289  10.335  0.0321  0.4637  0.3716
   58SAPC    HS 4313   2.970   6.320  10.353 -0.6484  3.1834  0.1743
   58SAPC   O21 4314   2.805   6.390  10.258  0.5953 -0.6383  0.0189
   58SAPC   C21 4315   2.868   6.422  10.153  0.4680 -0.0321  0.3024
   58SAPC   O22 4316   2.982   6.389  10.123 -0.2723 -0.3239  0.3859
   58SAPC   C22 4317   2.787   6.526  10.075  0.9320 -0.2159 -0.3690
   58SAPC   H2R 4318   2.726   6.472   9.999 -1.0762  2.3717 -0.7382
   58SAPC   H2S 4319   2.718   6.582  10.141  0.7014 -1.0692  0.1270
   58SAPC    C3 4320   2.858   6.160  10.253 -0.5824  0.0569 -0.4962
   58SAPC    HX 4321   2.909   6.081  10.312 -1.6301 -0.0371  0.2956
   58SAPC    HY 4322   2.918   6.170  10.160 -1.6143 -1.1573 -1.3329
   58SAPC   O31 4323   2.724   6.129  10.215 -0.5556 -0.1742  0.3410
   58SAPC   C31 4324   2.682   6.011  10.234  0.5160  0.5178  0.3634
   58SAPC   O32 4325   2.727   5.919  10.302 -0.6067  0.2574 -0.1027
   58SAPC   C32 4326   2.560   5.992  10.147  0.1251  0.5587  0.6019
   58SAPC   H2X 4327   2.498   6.084  10.156 -0.9210 -0.1995  1.5217
   58SAPC   H2Y 4328   2.492   5.912  10.183 -1.3322  0.7319 -1.5577
   58SAPC   C23 4329   2.862   6.647  10.006 -0.5103 -0.1039 -0.2856
   58SAPC   H3R 4330   2.884   6.616   9.902  4.0612 -2.6430  1.1111
   58SAPC   H3S 4331   2.960   6.659  10.058 -0.9106 -3.4281  1.5400
   58SAPC   C24 4332   2.786   6.778  10.002 -0.0303 -0.2871  0.4624
   58SAPC   H4R 4333   2.753   6.813  10.102 -0.9636  0.6028 -0.1376
   58SAPC   H4S 4334   2.693   6.765   9.942  1.3264  1.8606 -2.3395
   58SAPC   C25 4335   2.868   6.882   9.938 -0.4464 -0.3625 -0.3992
   58SAPC   H5R 4336   2.970   6.893   9.976 -0.8695 -1.4233  1.1119
   58SAPC   C26 4337   2.833   6.959   9.829  0.0908  0.9230  0.6326
   58SAPC   H6R 4338   2.887   7.048   9.795  1.4301 -0.4062 -0.8970
   58SAPC   C27 4339   2.707   6.956   9.743  0.3419  0.4212 -0.9431
   58SAPC   H7R 4340   2.629   6.904   9.802  1.0199  0.7481  0.2823
   58SAPC   H7S 4341   2.716   6.893   9.653 -1.6176 -0.5407 -0.5216
   58SAPC   C28 4342   2.657   7.091   9.700 -0.8427  0.1358 -0.3389
   58SAPC   H8R 4343   2.682   7.175   9.767 -1.1181 -1.3439  1.7107
   58SAPC   C29 4344   2.593   7.113   9.587  0.1666  0.0641 -0.0043
   58SAPC   H9R 4345   2.583   7.219   9.561 -0.5226  0.7632  2.7184
   58SAPC  C210 4346   2.557   7.013   9.477  0.2905 -0.0829 -0.6521
   58SAPC  H10R 4347   2.467   7.049   9.423  0.3782  0.7366 -0.2639
   58SAPC  H10S 4348   2.536   6.914   9.524 -1.2732  0.7168  0.4437
   58SAPC  C211 4349   2.675   6.996   9.382 -0.0356 -0.6798 -0.2114
   58SAPC  H11R 4350   2.769   6.964   9.428  0.1667  0.9158  0.5202
   58SAPC  C212 4351   2.690   7.028   9.254 -0.3416  0.2245 -0.0114
   58SAPC  H12R 4352   2.785   7.011   9.201 -0.9190 -2.5339 -0.3162
   58SAPC  C213 4353   2.586   7.094   9.168  0.1070 -0.2016  0.5104
   58SAPC  H13R 4354   2.484   7.085   9.209 -0.1715 -0.1921 -0.1670
   58SAPC  H13S 4355   2.576   7.023   9.083  0.4151 -1.4359  1.4784
   58SAPC  C214 4356   2.622   7.232   9.121 -0.0387 -0.5018 -0.1189
   58SAPC  H14R 4357   2.689   7.288   9.187  0.2860  1.7908 -2.2384
   58SAPC  C215 4358   2.566   7.307   9.022 -0.5856  0.1222  0.3411
   58SAPC  H15R 4359   2.609   7.407   9.004  0.1033 -0.4045 -1.1194
   58SAPC  C216 4360   2.463   7.257   8.921  0.0037  0.5235 -0.5300
   58SAPC  H16R 4361   2.359   7.294   8.934  0.0827 -0.0566  2.4183
   58SAPC  H16S 4362   2.440   7.148   8.930 -2.3564  0.9817 -0.4705
   58SAPC  C217 4363   2.491   7.280   8.770 -0.3035 -0.5025  1.4103
   58SAPC  H17R 4364   2.482   7.387   8.742 -1.0319 -0.5863  1.3038
   58SAPC  H17S 4365   2.411   7.228   8.714 -2.4549  1.5387  2.4261
   58SAPC  C218 4366   2.630   7.220   8.718 -0.0268 -0.4624  0.0568
   58SAPC  H18R 4367   2.628   7.110   8.734  1.9618 -1.0971 -3.0909
   58SAPC  H18S 4368   2.722   7.268   8.755  0.4626 -1.2757 -0.0741
   58SAPC  C219 4369   2.642   7.210   8.567  0.6360 -0.3647  0.6376
   58SAPC  H19R 4370   2.552   7.155   8.531 -0.2434  1.6708 -0.4262
   58SAPC  H19S 4371   2.737   7.158   8.541  0.9064 -0.0594  1.0047
   58SAPC  C220 4372   2.659   7.349   8.501  0.5697  0.2749  0.5609
   58SAPC  H20R 4373   2.738   7.407   8.555  0.3606  2.5214 -1.3980
   58SAPC  H20S 4374   2.564   7.405   8.509 -0.1978 -0.9328  0.1422
   58SAPC  H20T 4375   2.684   7.336   8.394 -0.4130 -0.3838  0.4024
   58SAPC   C33 4376   2.605   5.948  10.002  0.2907 -0.0737 -0.2377
   58SAPC   H3X 4377   2.652   5.848  10.016 -0.0407 -0.2458 -0.3579
   58SAPC   H3Y 4378   2.683   6.017   9.964  0.6028 -0.4242 -0.2424
   58SAPC   C34 4379   2.477   5.917   9.923  0.7330 -0.2057  0.5732
   58SAPC   H4X 4380   2.399   5.995   9.936  0.7493  0.0235 -0.5646
   58SAPC   H4Y 4381   2.431   5.827   9.968  0.6728  0.7610  2.5606
   58SAPC   C35 4382   2.507   5.874   9.785  1.1073  0.1083  0.5570
   58SAPC   H5X 4383   2.411   5.878   9.729  0.7397  2.8048  1.2463
   58SAPC   H5Y 4384   2.540   5.768   9.783  0.9558  0.0593 -0.9796
   58SAPC   C36 4385   2.613   5.951   9.705  0.8989 -0.0052 -0.1810
   58SAPC   H6X 4386   2.713   5.962   9.754  0.1438 -1.4012  1.7985
   58SAPC   H6Y 4387   2.577   6.054   9.682 -1.2491 -0.9385 -1.2749
   58SAPC   C37 4388   2.634   5.874   9.570  0.0613 -0.4401  0.0842
   58SAPC   H7X 4389   2.539   5.829   9.536  0.7719 -0.0664 -2.6160
   58SAPC   H7Y 4390   2.710   5.796   9.588  1.4716  1.0555  0.9325
   58SAPC   C38 4391   2.682   5.977   9.461 -0.8884 -0.3732 -0.2990
   58SAPC   H8X 4392   2.746   5.932   9.382  0.2357  1.5170 -0.5256
   58SAPC   H8Y 4393   2.741   6.059   9.507 -1.5130 -0.6991  1.1268
   58SAPC   C39 4394   2.575   6.051   9.375  0.6799 -0.2645 -0.1704
   58SAPC   H9X 4395   2.631   6.126   9.314  0.5808 -1.2511 -1.5285
   58SAPC   H9Y 4396   2.512   6.098   9.454 -0.7052  0.6400 -1.7387
   58SAPC  C310 4397   2.482   5.964   9.285 -0.2788  0.6190  0.2448
   58SAPC  H10X 4398   2.432   6.035   9.216  3.0350  2.3111 -0.6284
   58SAPC  H10Y 4399   2.404   5.912   9.344 -1.3429 -2.3035 -3.3856
   58SAPC  C311 4400   2.543   5.857   9.190 -0.2669  0.2978 -0.2103
   58SAPC  H11X 4401   2.468   5.819   9.118  0.1338 -2.5225  0.7385
   58SAPC  H11Y 4402   2.573   5.769   9.251  0.1126  1.4509  1.3549
   58SAPC  C312 4403   2.648   5.927   9.102 -0.3571  0.1625 -0.0602
   58SAPC  H12X 4404   2.728   5.976   9.161  2.1011 -2.3429 -1.1061
   58SAPC  H12Y 4405   2.601   6.007   9.040 -0.6088  0.5667  0.6290
   58SAPC  C313 4406   2.705   5.833   8.998 -0.7869 -1.0382 -0.4753
   58SAPC  H13X 4407   2.731   5.737   9.047  0.7955 -0.2756  0.2422
   58SAPC  H13Y 4408   2.794   5.885   8.956 -0.6974 -2.8904 -2.7673
   58SAPC  C314 4409   2.608   5.807   8.887 -0.1397 -0.0047 -0.2666
   58SAPC  H14X 4410   2.566   5.902   8.847  0.2598  1.1284  1.8579
   58SAPC  H14Y 4411   2.525   5.739   8.916 -0.6390 -0.9994 -3.6152
   58SAPC  C315 4412   2.672   5.735   8.768  0.8454  1.1110  0.4314
   58SAPC  H15X 4413   2.717   5.642   8.808 -1.2270  0.3508  1.1664
   58SAPC  H15Y 4414   2.747   5.796   8.714  0.6188 -0.2986 -1.5731
   58SAPC  C316 4415   2.559   5.697   8.658 -0.4115  0.2218 -0.2039
   58SAPC  H16X 4416   2.522   5.790   8.609 -0.2469 -1.6994 -4.4523
   58SAPC  H16Y 4417   2.471   5.652   8.708 -0.6445  2.2472  1.3665
   58SAPC  C317 4418   2.615   5.614   8.541 -0.6017  0.3796  0.3542
   58SAPC  H17X 4419   2.639   5.509   8.569 -0.5383  0.3087  0.0387
   58SAPC  H17Y 4420   2.706   5.659   8.498  1.1938 -2.6967  0.6402
   58SAPC  C318 4421   2.512   5.608   8.439  0.1217  0.5703  0.4362
   58SAPC  H18X 4422   2.424   5.549   8.472  0.6532 -0.6019 -0.1706
   58SAPC  H18Y 4423   2.563   5.568   8.348 -2.8270 -2.3642 -0.1290
   58SAPC  H18Z 4424   2.474   5.705   8.399  0.5309  0.7895  0.5790
   59SAPC     N 4425   4.759   2.968  10.732  0.2532 -0.7399  0.2231
   59SAPC   C12 4426   4.808   3.039  10.849 -0.1248  0.1154  0.8800
   59SAPC  H12A 4427   4.718   3.073  10.898 -2.7257 -0.2013 -3.1463
   59SAPC  H12B 4428   4.862   3.128  10.820 -0.9754  0.1412 -0.7622
   59SAPC   C13 4429   4.878   2.920  10.649 -0.2492  0.4872 -0.3654
   59SAPC  H13A 4430   4.841   2.852  10.573 -1.2204  1.3556 -0.6837
   59SAPC  H13B 4431   4.924   3.004  10.599  0.8821 -0.2654 -0.6293
   59SAPC  H13C 4432   4.948   2.866  10.711 -1.4711  1.0062  1.5536
   59SAPC   C14 4433   4.658   2.860  10.762  0.2862 -0.3203  0.8378
   59SAPC  H14A 4434   4.691   2.784  10.831  0.0556  0.5649  1.9757
   59SAPC  H14B 4435   4.561   2.894  10.796 -0.9847 -3.8279  1.0632
   59SAPC  H14C 4436   4.631   2.816  10.667  1.2516  1.0499 -0.1127
   59SAPC   C15 4437   4.695   3.065  10.645  0.3742  0.0881  0.6505
   59SAPC  H15A 4438   4.623   3.120  10.704 -0.2903 -0.4868  0.3881
   59SAPC  H15B 4439   4.767   3.136  10.607  0.2427 -0.7945 -1.3843
   59SAPC  H15C 4440   4.648   3.026  10.557  0.1949 -2.0855  1.6407
   59SAPC   C11 4441   4.894   2.962  10.951  0.3588 -0.4832  0.3721
   59SAPC  H11A 4442   4.932   3.030  11.029  0.0406  0.2992 -0.1371
   59SAPC  H11B 4443   4.983   2.936  10.889  0.2611 -1.9808  0.8281
   59SAPC     P 4444   4.901   2.753  11.105 -0.1867 -0.0108  0.2843
   59SAPC   O13 4445   4.927   2.806  11.241  0.6071 -0.3297 -0.2620
   59SAPC   O14 4446   4.823   2.628  11.114  0.5964  0.5564  0.6729
   59SAPC   O12 4447   4.827   2.852  11.007  0.0770 -0.4730  0.1632
   59SAPC   O11 4448   5.036   2.727  11.035  0.3719 -0.0765  0.1199
   59SAPC    C1 4449   5.043   2.669  10.907 -0.6450  0.5167  0.8772
   59SAPC    HA 4450   5.022   2.561  10.914  1.5015 -0.0469 -0.4971
   59SAPC    HB 4451   4.971   2.718  10.838 -1.1399  1.7682  2.2267
   59SAPC    C2 4452   5.181   2.674  10.839 -0.3069  0.5569  0.7770
   59SAPC    HS 4453   5.250   2.641  10.920 -2.0782  0.1670  2.1963
   59SAPC   O21 4454   5.215   2.809  10.802 -0.1341 -0.0706  0.5441
   59SAPC   C21 4455   5.338   2.835  10.780 -0.5088 -0.3246 -0.4841
   59SAPC   O22 4456   5.438   2.770  10.809  0.2962 -0.0015  0.0062
   59SAPC   C22 4457   5.348   2.978  10.711 -0.0777  0.1571 -0.2973
   59SAPC   H2R 4458   5.327   3.067  10.773 -2.4676  1.7396 -3.1142
   59SAPC   H2S 4459   5.456   2.980  10.683  0.3978  0.4740  1.4744
   59SAPC    C3 4460   5.182   2.583  10.711 -0.2479  0.3875 -0.5183
   59SAPC    HX 4461   5.162   2.482  10.752  2.0262  0.0065 -0.2047
   59SAPC    HY 4462   5.283   2.595  10.666  0.1245  0.9495  0.4401
   59SAPC   O31 4463   5.080   2.611  10.619  0.1762 -0.3575  0.3309
   59SAPC   C31 4464   5.098   2.559  10.488  0.3571  0.3045 -1.1830
   59SAPC   O32 4465   5.190   2.481  10.462  0.2399  0.5108  0.2249
   59SAPC   C32 4466   4.989   2.600  10.389 -0.0627 -0.1512  0.1911
   59SAPC   H2X 4467   4.933   2.677  10.447  1.5790  0.3552  1.1706
   59SAPC   H2Y 4468   4.921   2.514  10.376 -0.9900  0.7220 -0.9266
   59SAPC   C23 4469   5.256   2.987  10.587  0.4633 -0.1376  0.2340
   59SAPC   H3R 4470   5.250   3.096  10.563 -3.0768 -0.2766  0.0579
   59SAPC   H3S 4471   5.153   2.959  10.615 -0.2845  1.3330 -0.9265
   59SAPC   C24 4472   5.284   2.888  10.468  0.3629 -1.2809  0.1273
   59SAPC   H4R 4473   5.210   2.883  10.385  0.4225  0.4925 -0.0763
   59SAPC   H4S 4474   5.280   2.788  10.516  1.5995 -0.0707  2.9704
   59SAPC   C25 4475   5.422   2.929  10.418 -0.6617  0.6348  0.3883
   59SAPC   H5R 4476   5.508   2.901  10.479 -0.5616  0.8566  0.3531
   59SAPC   C26 4477   5.447   2.993  10.297 -0.4857  0.3167 -0.0798
   59SAPC   H6R 4478   5.546   3.041  10.294 -0.8394  1.0700 -0.0176
   59SAPC   C27 4479   5.353   3.036  10.185  0.7826  0.4708  0.6780
   59SAPC   H7R 4480   5.252   3.028  10.231  1.5681 -1.0393  2.2129
   59SAPC   H7S 4481   5.358   2.960  10.104 -1.5467 -0.8731  1.6824
   59SAPC   C28 4482   5.375   3.179  10.138 -0.6666  0.3170 -0.0314
   59SAPC   H8R 4483   5.416   3.248  10.214 -2.5658 -0.1409  1.4906
   59SAPC   C29 4484   5.343   3.224  10.017  0.4731 -0.9274  0.7397
   59SAPC   H9R 4485   5.367   3.325   9.983 -2.7211 -0.5106 -0.6640
   59SAPC  C210 4486   5.277   3.155   9.899  0.0034 -0.3549  1.2911
   59SAPC  H10R 4487   5.251   3.051   9.927 -0.1590 -0.2608  1.4975
   59SAPC  H10S 4488   5.340   3.148   9.808  0.0376 -0.9546  1.3561
   59SAPC  C211 4489   5.142   3.228   9.872  0.2973 -0.0108 -0.2194
   59SAPC  H11R 4490   5.084   3.261   9.959  0.4718  1.0925 -0.5018
   59SAPC  C212 4491   5.078   3.254   9.754  0.2870  0.3539 -0.4894
   59SAPC  H12R 4492   4.984   3.310   9.751 -0.8489 -1.2552  1.8451
   59SAPC  C213 4493   5.128   3.219   9.616  0.9794  0.5086 -0.2135
   59SAPC  H13R 4494   5.049   3.246   9.543  0.3883  2.3730  1.0589
   59SAPC  H13S 4495   5.136   3.108   9.613 -1.6478  0.1776  1.6832
   59SAPC  C214 4496   5.246   3.285   9.563 -0.4607 -0.2664 -0.6791
   59SAPC  H14R 4497   5.307   3.332   9.642  0.9484 -0.0662 -1.8444
   59SAPC  C215 4498   5.300   3.264   9.443  0.4306  0.0861 -0.7367
   59SAPC  H15R 4499   5.402   3.303   9.425  0.6755 -1.4030 -2.9196
   59SAPC  C216 4500   5.252   3.180   9.325  0.6642 -0.6042 -0.1706
   59SAPC  H16R 4501   5.159   3.127   9.355  0.4288 -0.7788 -1.1806
   59SAPC  H16S 4502   5.331   3.114   9.283 -0.1614 -2.5468  1.1797
   59SAPC  C217 4503   5.210   3.268   9.213 -0.4152 -0.0827 -0.0942
   59SAPC  H17R 4504   5.283   3.351   9.198 -0.6838 -0.1420 -1.9273
   59SAPC  H17S 4505   5.108   3.304   9.238 -0.0602  1.0979 -0.2396
   59SAPC  C218 4506   5.200   3.189   9.079  0.5074  0.2827  0.1796
   59SAPC  H18R 4507   5.150   3.094   9.106 -1.4488  0.2068 -3.1593
   59SAPC  H18S 4508   5.305   3.172   9.045  0.7348  1.4822  0.2304
   59SAPC  C219 4509   5.115   3.262   8.976  0.3050  0.0625 -0.2260
   59SAPC  H19R 4510   5.034   3.316   9.029  1.0766  0.1624  0.8791
   59SAPC  H19S 4511   5.078   3.192   8.899  1.3943 -1.8862  0.9504
   59SAPC  C220 4512   5.199   3.355   8.890  0.3169 -0.4187 -0.3539
   59SAPC  H20R 4513   5.235   3.429   8.965  1.6089 -1.6564  0.2986
   59SAPC  H20S 4514   5.138   3.408   8.814 -1.6101 -1.0048  0.7049
   59SAPC  H20T 4515   5.285   3.307   8.839  2.1218  1.7467  0.4848
   59SAPC   C33 4516   5.048   2.637  10.254  0.4639 -0.3319  1.0435
   59SAPC   H3X 4517   5.110   2.553  10.217 -0.6700 -1.4512  1.6177
   59SAPC   H3Y 4518   5.113   2.725  10.273  1.1283 -0.9422  1.6777
   59SAPC   C34 4519   4.938   2.673  10.155 -0.6472 -0.1345  0.9816
   59SAPC   H4X 4520   4.875   2.759  10.186 -1.9976 -1.0622  0.8914
   59SAPC   H4Y 4521   4.876   2.586  10.124  2.1429 -1.3045 -1.8705
   59SAPC   C35 4522   4.999   2.694  10.008  0.0520 -0.0898 -0.3524
   59SAPC   H5X 4523   5.054   2.600   9.987  0.7985 -0.5244  2.9492
   59SAPC   H5Y 4524   5.072   2.778  10.009  0.3875 -0.3700 -0.8692
   59SAPC   C36 4525   4.878   2.722   9.912  0.3050  0.7414  0.6772
   59SAPC   H6X 4526   4.814   2.802   9.954 -1.1125 -0.7801  1.5512
   59SAPC   H6Y 4527   4.799   2.644   9.923  0.0709  1.1409  1.9313
   59SAPC   C37 4528   4.911   2.766   9.773 -0.4172 -0.3835  0.5188
   59SAPC   H7X 4529   4.976   2.688   9.728  1.5215  1.4572 -0.0135
   59SAPC   H7Y 4530   4.960   2.865   9.765  1.4431 -1.3359 -0.7905
   59SAPC   C38 4531   4.798   2.763   9.667  0.2057  0.2198  0.0305
   59SAPC   H8X 4532   4.711   2.822   9.703 -0.3807 -1.9941  2.5106
   59SAPC   H8Y 4533   4.758   2.660   9.663 -0.7253  0.5478 -3.9811
   59SAPC   C39 4534   4.838   2.813   9.524 -0.1917  0.4089 -0.2546
   59SAPC   H9X 4535   4.931   2.759   9.494  1.5305  2.4232  1.1918
   59SAPC   H9Y 4536   4.884   2.912   9.541 -1.9473  0.7819  3.1353
   59SAPC  C310 4537   4.727   2.816   9.423 -0.1595 -0.3472  0.8504
   59SAPC  H10X 4538   4.655   2.894   9.456  1.1581  2.0375 -1.4745
   59SAPC  H10Y 4539   4.667   2.723   9.433 -1.2200 -0.0706 -1.8971
   59SAPC  C311 4540   4.772   2.827   9.277  0.0608  0.3901  0.4499
   59SAPC  H11X 4541   4.823   2.730   9.260 -1.0564  0.0556 -1.1938
   59SAPC  H11Y 4542   4.845   2.908   9.258  1.0231 -0.7078 -0.7003
   59SAPC  C312 4543   4.651   2.840   9.180  0.2305  0.6583  0.1753
   59SAPC  H12X 4544   4.589   2.922   9.220  0.3324  0.1455  1.4473
   59SAPC  H12Y 4545   4.591   2.749   9.202  2.8972 -1.4152 -0.4725
   59SAPC  C313 4546   4.667   2.855   9.028 -0.2439 -0.3209 -0.2485
   59SAPC  H13X 4547   4.722   2.945   8.994  1.8767 -1.7354 -0.7943
   59SAPC  H13Y 4548   4.575   2.865   8.967 -1.9977  2.2916  2.5281
   59SAPC  C314 4549   4.735   2.723   8.977  0.0564 -0.4129 -0.4774
   59SAPC  H14X 4550   4.687   2.637   9.029  1.4262 -0.5175  0.6689
   59SAPC  H14Y 4551   4.843   2.725   9.002 -0.1976  3.2371  0.8939
   59SAPC  C315 4552   4.727   2.705   8.823 -0.8982  0.0353  0.2070
   59SAPC  H15X 4553   4.623   2.690   8.785 -1.0266  1.0401  0.1448
   59SAPC  H15Y 4554   4.783   2.612   8.800 -0.4455  0.8423 -2.3080
   59SAPC  C316 4555   4.778   2.828   8.744 -1.0809  0.0195 -0.8568
   59SAPC  H16X 4556   4.889   2.830   8.757 -1.0261  0.3824 -1.3425
   59SAPC  H16Y 4557   4.743   2.922   8.791  0.3873  1.2536 -2.1314
   59SAPC  C317 4558   4.732   2.816   8.599 -0.6334  0.2696 -0.0362
   59SAPC  H17X 4559   4.766   2.902   8.537 -1.7124 -0.0470 -1.1026
   59SAPC  H17Y 4560   4.621   2.823   8.597 -0.5695  1.5888 -2.1724
   59SAPC  C318 4561   4.781   2.684   8.534 -0.0879  0.4576 -0.4465
   59SAPC  H18X 4562   4.765   2.695   8.425 -1.0542 -1.0423 -0.4864
   59SAPC  H18Y 4563   4.731   2.593   8.574 -0.6768  2.1005  2.9459
   59SAPC  H18Z 4564   4.887   2.672   8.567 -1.0993  0.5027  3.2719
   60SAPC     N 4565   5.132   6.252  10.841 -0.3675  0.9203 -0.0807
   60SAPC   C12 4566   5.020   6.282  10.742  0.7055  0.0829  0.3371
   60SAPC  H12A 4567   5.055   6.369  10.690  1.0199 -0.7211 -0.8391
   60SAPC  H12B 4568   4.924   6.297  10.788 -0.0702 -2.5882 -0.2069
   60SAPC   C13 4569   5.149   6.361  10.942 -0.2723 -0.5191  0.5088
   60SAPC  H13A 4570   5.069   6.350  11.015 -1.1141 -0.9586 -0.4467
   60SAPC  H13B 4571   5.238   6.349  11.002  0.8956 -1.9978 -1.4219
   60SAPC  H13C 4572   5.148   6.453  10.886  1.0341 -1.9094 -1.9979
   60SAPC   C14 4573   5.105   6.120  10.905  0.0274 -0.1696 -0.2139
   60SAPC  H14A 4574   5.015   6.108  10.963 -0.3404 -0.0096 -0.7475
   60SAPC  H14B 4575   5.084   6.045  10.830  0.6226 -1.1918  0.6203
   60SAPC  H14C 4576   5.189   6.081  10.960  0.2119 -0.3972 -0.6497
   60SAPC   C15 4577   5.261   6.245  10.768  0.2408  0.6708 -0.4919
   60SAPC  H15A 4578   5.254   6.187  10.677 -0.8422  0.8397 -0.5322
   60SAPC  H15B 4579   5.277   6.342  10.721  1.2348  0.9371  0.3583
   60SAPC  H15C 4580   5.350   6.228  10.826 -0.2606 -0.3067  0.0003
   60SAPC   C11 4581   4.980   6.169  10.640 -0.5498 -0.8668  0.3115
   60SAPC  H11A 4582   4.900   6.202  10.571  1.3171 -0.7277 -1.9108
   60SAPC  H11B 4583   4.936   6.081  10.691  0.0799 -0.6905  1.1809
   60SAPC     P 4584   5.157   6.002  10.549 -0.1049 -0.2147  0.0145
   60SAPC   O13 4585   5.304   6.023  10.525 -0.3570 -0.2377 -0.5642
   60SAPC   O14 4586   5.114   5.924  10.667 -0.5088  0.3217 -0.4070
   60SAPC   O12 4587   5.092   6.140  10.551  0.0561 -0.4600  0.3278
   60SAPC   O11 4588   5.104   5.927  10.427  0.0957 -0.1361  0.6546
   60SAPC    C1 4589   4.965   5.947  10.389 -0.3158 -0.4812 -0.0136
   60SAPC    HA 4590   4.920   5.846  10.378 -0.1748 -0.4556 -0.8862
   60SAPC    HB 4591   4.902   5.994  10.468 -1.1714 -0.7684 -0.5115
   60SAPC    C2 4592   4.954   6.016  10.255 -0.5398 -0.5930 -0.2097
   60SAPC    HS 4593   4.845   6.015  10.231 -0.4103 -1.5192 -0.7866
   60SAPC   O21 4594   5.034   5.952  10.151  0.1618  0.0485 -0.2768
   60SAPC   C21 4595   4.974   5.839  10.110 -0.5694  0.5451  0.9693
   60SAPC   O22 4596   4.861   5.805  10.145 -0.4268  0.4631  0.3999
   60SAPC   C22 4597   5.072   5.751  10.024  0.4248  0.4018 -0.7552
   60SAPC   H2R 4598   5.175   5.770  10.060  0.0968  1.4162 -0.3234
   60SAPC   H2S 4599   5.053   5.643  10.041  1.7025  0.2807  0.0627
   60SAPC    C3 4600   5.003   6.158  10.267 -0.2870 -0.3822  1.1005
   60SAPC    HX 4601   5.113   6.162  10.281 -0.2888 -0.1935  1.0622
   60SAPC    HY 4602   4.961   6.215  10.352 -1.4066 -0.5938  0.6967
   60SAPC   O31 4603   4.961   6.223  10.142  0.0818  0.5032  0.7112
   60SAPC   C31 4604   5.054   6.290  10.074 -0.6126  0.0414 -0.1713
   60SAPC   O32 4605   5.171   6.305  10.111  0.3589  0.3403 -0.0137
   60SAPC   C32 4606   4.990   6.370   9.951 -0.5830 -0.1465 -0.3009
   60SAPC   H2X 4607   5.041   6.468   9.939 -1.8373  0.3657 -1.9601
   60SAPC   H2Y 4608   4.886   6.404   9.971 -0.9735 -0.6038 -1.4566
   60SAPC   C23 4609   5.067   5.792   9.873  0.6363 -0.3111 -0.0357
   60SAPC   H3R 4610   4.961   5.773   9.845  0.0801 -0.1275  1.8275
   60SAPC   H3S 4611   5.124   5.719   9.812  0.3336  1.3491 -2.4755
   60SAPC   C24 4612   5.112   5.936   9.847  0.4484  0.5287  0.2921
   60SAPC   H4R 4613   5.052   6.011   9.904 -1.9142 -1.8098  1.1006
   60SAPC   H4S 4614   5.101   5.944   9.737 -1.5710 -2.5754  0.1379
   60SAPC   C25 4615   5.253   5.942   9.894 -0.4535  0.4145 -0.0518
   60SAPC   H5R 4616   5.280   5.918   9.998 -0.4968 -1.0373 -0.3472
   60SAPC   C26 4617   5.360   5.980   9.817  0.7956  0.5165 -0.1346
   60SAPC   H6R 4618   5.459   5.998   9.862  0.4336 -0.5337  1.1546
   60SAPC   C27 4619   5.353   6.020   9.670  0.1203  0.3414  0.0827
   60SAPC   H7R 4620   5.262   5.985   9.616 -0.7296  1.0282  1.0324
   60SAPC   H7S 4621   5.434   5.964   9.618  1.2638  0.5841  1.5627
   60SAPC   C28 4622   5.360   6.164   9.658  0.3179  0.3759 -0.1562
   60SAPC   H8R 4623   5.369   6.220   9.753  1.1609 -1.3621  0.8359
   60SAPC   C29 4624   5.381   6.220   9.543  0.3726 -1.0077 -0.0206
   60SAPC   H9R 4625   5.396   6.328   9.552  0.9946 -1.0868 -0.0316
   60SAPC  C210 4626   5.396   6.151   9.411 -0.2527  0.0753  0.8161
   60SAPC  H10R 4627   5.379   6.041   9.413 -1.3356  0.2481  1.5203
   60SAPC  H10S 4628   5.495   6.169   9.363 -1.2627 -2.8870 -2.9282
   60SAPC  C211 4629   5.288   6.209   9.319  0.1799 -0.2867 -0.1506
   60SAPC  H11R 4630   5.192   6.230   9.370  0.3621  0.7988 -0.2396
   60SAPC  C212 4631   5.300   6.236   9.183 -0.0645  0.2073 -0.7597
   60SAPC  H12R 4632   5.215   6.259   9.118  0.5493  1.6470 -1.0916
   60SAPC  C213 4633   5.429   6.218   9.102 -0.2777  0.4930  0.5996
   60SAPC  H13R 4634   5.425   6.137   9.026 -0.2950  1.1322 -0.1013
   60SAPC  H13S 4635   5.511   6.189   9.172  0.7056  1.8122  0.0420
   60SAPC  C214 4636   5.475   6.348   9.035 -0.1860 -0.4077  0.4749
   60SAPC  H14R 4637   5.479   6.439   9.098 -0.6649  1.0996 -1.5528
   60SAPC  C215 4638   5.507   6.372   8.906 -0.6624  0.5220 -0.5115
   60SAPC  H15R 4639   5.534   6.476   8.880 -3.7306  1.5498  0.0264
   60SAPC  C216 4640   5.516   6.283   8.785 -0.1171 -0.7598 -0.3814
   60SAPC  H16R 4641   5.541   6.179   8.817 -1.9950 -1.2611 -0.3882
   60SAPC  H16S 4642   5.600   6.317   8.722 -1.4228 -0.1145 -1.8459
   60SAPC  C217 4643   5.398   6.265   8.692 -0.2069  0.4560  1.0839
   60SAPC  H17R 4644   5.358   6.365   8.668  1.6122  0.6246 -1.6125
   60SAPC  H17S 4645   5.317   6.202   8.736 -1.1785 -1.8930 -3.4010
   60SAPC  C218 4646   5.434   6.192   8.559 -0.0645 -0.1219 -0.5379
   60SAPC  H18R 4647   5.498   6.112   8.601  0.2017  0.7818  0.8398
   60SAPC  H18S 4648   5.497   6.262   8.501 -0.3739 -0.5334 -1.3745
   60SAPC  C219 4649   5.317   6.130   8.485 -0.1552 -0.3117  0.4679
   60SAPC  H19R 4650   5.247   6.212   8.458  0.3895  0.0012 -0.0338
   60SAPC  H19S 4651   5.271   6.059   8.557 -1.4804  1.7045  1.7294
   60SAPC  C220 4652   5.373   6.056   8.360  0.5447 -0.2794 -0.5579
   60SAPC  H20R 4653   5.423   6.125   8.290  0.4894 -0.9686 -1.3005
   60SAPC  H20S 4654   5.299   5.990   8.310 -0.5995 -1.1251  2.0534
   60SAPC  H20T 4655   5.442   5.978   8.400 -1.9275 -2.5182 -0.3745
   60SAPC   C33 4656   4.999   6.292   9.823 -0.8029  0.1667  0.5480
   60SAPC   H3X 4657   4.940   6.197   9.826 -3.4110  1.7150  1.8152
   60SAPC   H3Y 4658   5.108   6.274   9.809 -0.9711  0.5277 -1.6840
   60SAPC   C34 4659   4.944   6.389   9.717 -0.7496  0.8065  0.1655
   60SAPC   H4X 4660   5.007   6.480   9.710  1.7283 -0.8641 -0.5282
   60SAPC   H4Y 4661   4.841   6.427   9.738 -1.4089 -1.2574  0.9455
   60SAPC   C35 4662   4.943   6.324   9.575  0.1140 -0.1696  0.2101
   60SAPC   H5X 4663   4.886   6.229   9.563 -0.1717 -0.0535  0.6047
   60SAPC   H5Y 4664   5.048   6.295   9.551  1.0172  1.3669  2.0379
   60SAPC   C36 4665   4.873   6.414   9.477  0.0604 -0.8412  0.8035
   60SAPC   H6X 4666   4.764   6.416   9.497 -0.2440 -2.5532 -0.4504
   60SAPC   H6Y 4667   4.890   6.379   9.373 -1.0411  1.1872 -0.1224
   60SAPC   C37 4668   4.910   6.565   9.469  0.0936  0.2955 -0.5640
   60SAPC   H7X 4669   4.930   6.599   9.573  0.2842 -2.6719  0.4879
   60SAPC   H7Y 4670   4.822   6.618   9.428 -0.3432  0.6082  0.7131
   60SAPC   C38 4671   5.039   6.590   9.383  0.2984 -0.2635  0.2269
   60SAPC   H8X 4672   5.125   6.533   9.424  1.4716  0.6172 -0.9202
   60SAPC   H8Y 4673   5.060   6.697   9.403  2.4548 -0.5648 -0.1468
   60SAPC   C39 4674   5.015   6.559   9.238 -0.2103  0.0023  0.3889
   60SAPC   H9X 4675   4.907   6.568   9.212 -0.1687 -1.0923 -0.2146
   60SAPC   H9Y 4676   5.047   6.454   9.220  1.6079  0.2828  1.7029
   60SAPC  C310 4677   5.087   6.653   9.145 -0.0188  0.7152  1.3565
   60SAPC  H10X 4678   5.189   6.662   9.187  1.0722 -0.6261 -0.8072
   60SAPC  H10Y 4679   5.031   6.749   9.147 -0.4884  0.4348  2.5707
   60SAPC  C311 4680   5.113   6.598   9.007  0.2933  0.2460  0.3465
   60SAPC  H11X 4681   5.027   6.552   8.954 -0.2100  0.2729  1.1429
   60SAPC  H11Y 4682   5.192   6.521   9.018  0.5405  0.3663 -0.4736
   60SAPC  C312 4683   5.167   6.717   8.917  0.2896  0.1982  0.8142
   60SAPC  H12X 4684   5.251   6.760   8.976 -1.4801  2.7677  1.6071
   60SAPC  H12Y 4685   5.082   6.787   8.908 -1.1924 -1.2450  2.7844
   60SAPC  C313 4686   5.206   6.673   8.773  0.0573  0.5961  0.0590
   60SAPC  H13X 4687   5.123   6.661   8.701  0.4600  1.2626 -0.5173
   60SAPC  H13Y 4688   5.252   6.572   8.763 -0.1336  0.6600 -1.6929
   60SAPC  C314 4689   5.295   6.773   8.702  0.2616 -0.9236 -0.2605
   60SAPC  H14X 4690   5.400   6.757   8.736  0.7914  2.7454  0.2637
   60SAPC  H14Y 4691   5.269   6.877   8.730  0.0588 -1.2614  0.8851
   60SAPC  C315 4692   5.296   6.752   8.551  0.1846 -0.3982  0.5365
   60SAPC  H15X 4693   5.203   6.786   8.501  1.6217  0.6474 -1.5627
   60SAPC  H15Y 4694   5.292   6.643   8.531 -0.3714 -0.2363 -0.2424
   60SAPC  C316 4695   5.421   6.810   8.478  0.3790 -1.0473 -0.4554
   60SAPC  H16X 4696   5.428   6.758   8.379 -1.8785  0.6006 -1.5777
   60SAPC  H16Y 4697   5.514   6.784   8.532 -0.4707 -0.8223  1.1595
   60SAPC  C317 4698   5.408   6.958   8.448  0.6260  0.0069  0.6944
   60SAPC  H17X 4699   5.378   7.017   8.537 -1.1469  2.2444 -1.2608
   60SAPC  H17Y 4700   5.318   6.971   8.383 -1.4053 -0.3283  3.2832
   60SAPC  C318 4701   5.539   7.022   8.394  0.3838 -0.3296 -0.2093
   60SAPC  H18X 4702   5.571   6.964   8.305 -1.1937 -3.2319  0.9764
   60SAPC  H18Y 4703   5.619   7.009   8.470  0.1850 -1.8610 -0.2388
   60SAPC  H18Z 4704   5.515   7.129   8.377 -0.1940 -0.3433  0.4745
   61SAPC     N 4705   0.323   4.586  10.987 -0.4281 -0.3305  0.1369
   61SAPC   C12 4706   0.315   4.703  10.895  0.3083 -0.2826 -0.7844
   61SAPC  H12A 4707   0.326   4.793  10.953 -1.4225 -1.4528  1.5130
   61SAPC  H12B 4708   0.215   4.722  10.860  0.0205  3.6327  1.5236
   61SAPC   C13 4709   0.221   4.587  11.094 -0.0607 -0.0510  0.1165
   61SAPC  H13A 4710   0.121   4.571  11.057  0.6101 -0.6183 -1.5701
   61SAPC  H13B 4711   0.225   4.503  11.161 -2.3405 -0.0346  0.3367
   61SAPC  H13C 4712   0.208   4.679  11.150  0.4113 -0.0403  0.2202
   61SAPC   C14 4713   0.309   4.461  10.908  0.4357 -0.6761  0.1206
   61SAPC  H14A 4714   0.210   4.443  10.869  0.7618  1.2896 -1.8069
   61SAPC  H14B 4715   0.377   4.455  10.825 -1.3544 -1.1914 -1.3756
   61SAPC  H14C 4716   0.314   4.373  10.970  1.0314 -1.9855 -1.6971
   61SAPC   C15 4717   0.448   4.574  11.063 -0.1634  0.0646  0.2663
   61SAPC  H15A 4718   0.451   4.487  11.128  0.9234  1.4485  2.1926
   61SAPC  H15B 4719   0.531   4.570  10.993 -1.2767 -0.5170 -1.0593
   61SAPC  H15C 4720   0.452   4.661  11.126  2.3970 -0.3398  0.7797
   61SAPC   C11 4721   0.414   4.713  10.775  0.0099  0.0635 -0.3825
   61SAPC  H11A 4722   0.379   4.795  10.708 -1.2075 -0.0440  0.1130
   61SAPC  H11B 4723   0.398   4.617  10.721  1.8557 -0.5041 -0.0136
   61SAPC     P 4724   0.593   4.871  10.858 -0.2928 -0.5632 -0.7725
   61SAPC   O13 4725   0.471   4.951  10.886 -0.3841  0.1944 -0.1168
   61SAPC   O14 4726   0.690   4.865  10.975  0.4941 -1.2482 -0.0924
   61SAPC   O12 4727   0.556   4.723  10.815  0.1223 -0.0423  0.2590
   61SAPC   O11 4728   0.672   4.933  10.737  0.4745 -0.9521  0.0490
   61SAPC    C1 4729   0.713   4.869  10.617  0.1105 -0.3852 -0.1989
   61SAPC    HA 4730   0.796   4.931  10.576  0.2069 -0.6982 -0.4872
   61SAPC    HB 4731   0.753   4.766  10.630  0.4146 -0.1797  0.5766
   61SAPC    C2 4732   0.607   4.851  10.506 -0.0398 -0.9978  0.1000
   61SAPC    HS 4733   0.542   4.770  10.545  1.3081 -1.0143  2.4564
   61SAPC   O21 4734   0.679   4.839  10.381 -0.1011 -0.2831 -0.6555
   61SAPC   C21 4735   0.662   4.731  10.313 -0.3393  0.4478  0.1647
   61SAPC   O22 4736   0.597   4.630  10.350 -0.2721  0.3964 -0.1923
   61SAPC   C22 4737   0.718   4.751  10.168 -0.0260 -0.5679 -0.4113
   61SAPC   H2R 4738   0.624   4.773  10.112 -1.1703 -0.5450  1.4243
   61SAPC   H2S 4739   0.781   4.842  10.157  1.4233 -1.5131 -0.1689
   61SAPC    C3 4740   0.514   4.981  10.494  0.0636  0.1190 -0.2254
   61SAPC    HX 4741   0.581   5.061  10.454 -1.7268  1.2742 -1.0774
   61SAPC    HY 4742   0.481   5.002  10.598  0.7333 -0.6587  0.1556
   61SAPC   O31 4743   0.404   4.961  10.411 -0.1611 -0.5739 -0.2060
   61SAPC   C31 4744   0.349   5.078  10.354 -1.0350  0.3920  0.0905
   61SAPC   O32 4745   0.393   5.192  10.371  0.4503 -0.8896  0.2583
   61SAPC   C32 4746   0.232   5.042  10.259  0.4304 -0.4996 -0.1169
   61SAPC   H2X 4747   0.179   5.135  10.232 -1.1675 -0.9912  1.1295
   61SAPC   H2Y 4748   0.162   4.974  10.313  0.0924  0.0327  0.1265
   61SAPC   C23 4749   0.775   4.625  10.097  0.2023 -0.1425  0.0282
   61SAPC   H3R 4750   0.704   4.540  10.102  2.0880 -1.8021 -0.2793
   61SAPC   H3S 4751   0.866   4.590  10.150  0.1067  0.0203  0.2978
   61SAPC   C24 4752   0.800   4.658   9.947 -0.5195 -0.2901 -0.0778
   61SAPC   H4R 4753   0.863   4.749   9.951 -1.7715  0.5574  1.9123
   61SAPC   H4S 4754   0.709   4.686   9.890 -2.4165 -0.9561  2.4133
   61SAPC   C25 4755   0.874   4.547   9.882  0.7762  0.1513 -0.4480
   61SAPC   H5R 4756   0.912   4.470   9.950 -0.5775 -0.5819 -0.4959
   61SAPC   C26 4757   0.873   4.531   9.747  0.3553  0.0985  0.8216
   61SAPC   H6R 4758   0.936   4.453   9.701  0.9755  1.0842 -0.0515
   61SAPC   C27 4759   0.814   4.627   9.645 -0.2122 -0.9389 -0.2748
   61SAPC   H7R 4760   0.766   4.717   9.689 -0.9791 -1.7640  0.6124
   61SAPC   H7S 4761   0.734   4.578   9.586 -0.5073 -0.6693 -0.0974
   61SAPC   C28 4762   0.930   4.682   9.562  0.7534  0.7216  0.0328
   61SAPC   H8R 4763   0.989   4.767   9.600 -0.1776  2.6570 -2.5364
   61SAPC   C29 4764   0.964   4.630   9.437  0.2313  0.6214  0.7422
   61SAPC   H9R 4765   1.059   4.668   9.396  0.0365  0.9123  0.5654
   61SAPC  C210 4766   0.911   4.510   9.364  0.0647 -0.0936  0.1157
   61SAPC  H10R 4767   0.878   4.529   9.259 -1.9431 -3.0045  0.1267
   61SAPC  H10S 4768   0.819   4.472   9.413 -0.2307  0.8010  0.2715
   61SAPC  C211 4769   1.003   4.395   9.346 -0.4372  0.1585 -0.4705
   61SAPC  H11R 4770   1.012   4.336   9.439 -0.0244  2.7945  1.2852
   61SAPC  C212 4771   1.076   4.368   9.233 -0.6281 -0.3431  0.5901
   61SAPC  H12R 4772   1.144   4.282   9.238  1.9680  1.6500  3.0520
   61SAPC  C213 4773   1.079   4.444   9.100  0.3950  0.5718 -0.2003
   61SAPC  H13R 4774   1.102   4.549   9.126 -2.3873  1.3811 -0.7311
   61SAPC  H13S 4775   0.974   4.433   9.064  0.4106 -1.0644  0.1553
   61SAPC  C214 4776   1.182   4.383   9.004 -0.5762 -0.2873  0.0503
   61SAPC  H14R 4777   1.279   4.435   8.998 -0.3941 -0.4219  1.5132
   61SAPC  C215 4778   1.158   4.278   8.926  0.4869 -0.2361 -1.0683
   61SAPC  H15R 4779   1.245   4.241   8.870  1.5545  1.4336 -0.6163
   61SAPC  C216 4780   1.024   4.210   8.922  0.2880 -0.0860 -0.8144
   61SAPC  H16R 4781   0.988   4.214   8.817  0.2125  0.3984 -0.7730
   61SAPC  H16S 4782   0.943   4.269   8.971  1.1109  2.2666 -2.1147
   61SAPC  C217 4783   1.015   4.060   8.972 -0.6210 -0.5086  0.1620
   61SAPC  H17R 4784   0.909   4.027   8.980 -2.0260  3.3439 -0.4476
   61SAPC  H17S 4785   1.073   4.059   9.067  0.6227 -2.0072 -0.5725
   61SAPC  C218 4786   1.085   3.970   8.870 -0.2529  0.6401 -0.0105
   61SAPC  H18R 4787   1.195   3.978   8.855 -0.0627 -1.7189 -0.2286
   61SAPC  H18S 4788   1.044   3.993   8.769  1.8454 -0.6067 -1.2400
   61SAPC  C219 4789   1.057   3.824   8.892  0.3166  0.9947 -0.3985
   61SAPC  H19R 4790   1.106   3.765   8.812 -1.2278 -0.3874 -0.3701
   61SAPC  H19S 4791   0.950   3.809   8.868  0.4413  1.3569 -1.2352
   61SAPC  C220 4792   1.109   3.772   9.030 -0.7213  0.3295  0.6198
   61SAPC  H20R 4793   1.103   3.662   9.045  0.0933  0.0805 -0.7109
   61SAPC  H20S 4794   1.038   3.805   9.108 -0.4878  0.3956  0.8064
   61SAPC  H20T 4795   1.212   3.809   9.051  0.3680 -0.4483 -2.6610
   61SAPC   C33 4796   0.278   4.959  10.135 -0.1738  0.2837  0.1868
   61SAPC   H3X 4797   0.192   4.903  10.091 -0.1798  1.7082 -1.7501
   61SAPC   H3Y 4798   0.354   4.885  10.167  0.6853  0.0025 -2.2864
   61SAPC   C34 4799   0.346   5.036  10.024 -0.4252 -0.8243 -0.3560
   61SAPC   H4X 4800   0.424   5.103  10.066 -2.4909  1.0957  0.6107
   61SAPC   H4Y 4801   0.272   5.107   9.981  1.0870 -0.3707 -2.3400
   61SAPC   C35 4802   0.398   4.941   9.920 -0.1339  0.2719  0.3349
   61SAPC   H5X 4803   0.316   4.873   9.889  1.1294 -1.2502  0.2117
   61SAPC   H5Y 4804   0.481   4.886   9.970  0.9066  0.6372 -0.9208
   61SAPC   C36 4805   0.452   5.006   9.798 -0.5483  0.2405  0.1795
   61SAPC   H6X 4806   0.542   5.067   9.823  1.0035 -0.9782 -2.0128
   61SAPC   H6Y 4807   0.380   5.079   9.756  1.2412  0.4984 -2.7193
   61SAPC   C37 4808   0.489   4.908   9.681  0.0651  0.0405  0.1855
   61SAPC   H7X 4809   0.397   4.861   9.640 -1.1196  4.3376 -2.6750
   61SAPC   H7Y 4810   0.557   4.825   9.709  1.0095  0.9165  0.5509
   61SAPC   C38 4811   0.559   4.980   9.563 -1.0324  0.3647  0.1450
   61SAPC   H8X 4812   0.662   5.007   9.597  0.0624 -2.6875 -0.3679
   61SAPC   H8Y 4813   0.495   5.061   9.522 -0.9462 -0.8071 -2.5473
   61SAPC   C39 4814   0.593   4.884   9.448  0.6572 -0.5743  0.6622
   61SAPC   H9X 4815   0.494   4.852   9.411  0.6365  1.0264 -0.8220
   61SAPC   H9Y 4816   0.641   4.792   9.488 -1.1226 -2.2158 -0.7946
   61SAPC  C310 4817   0.680   4.942   9.330  0.7467  0.2018  0.5479
   61SAPC  H10X 4818   0.780   4.965   9.374  0.4144  2.9881  0.0184
   61SAPC  H10Y 4819   0.640   5.036   9.287 -1.7893 -1.2078 -0.3972
   61SAPC  C311 4820   0.692   4.841   9.219 -1.3213 -0.6023  0.9983
   61SAPC  H11X 4821   0.591   4.807   9.189 -1.2506  0.1934 -0.2048
   61SAPC  H11Y 4822   0.737   4.741   9.234  0.2460 -0.2110 -0.6790
   61SAPC  C312 4823   0.765   4.903   9.091  0.0171  0.9661 -0.2919
   61SAPC  H12X 4824   0.737   5.010   9.079  0.3787  1.0628 -0.2818
   61SAPC  H12Y 4825   0.708   4.857   9.008 -1.7505  0.8208  0.9402
   61SAPC  C313 4826   0.914   4.875   9.079  0.5364  0.1319  0.2399
   61SAPC  H13X 4827   0.945   4.816   9.168 -1.6998 -3.0650 -0.8852
   61SAPC  H13Y 4828   0.961   4.975   9.083 -0.9421  0.9353 -1.2971
   61SAPC  C314 4829   0.946   4.810   8.948  0.1989  0.1588  0.4865
   61SAPC  H14X 4830   0.885   4.839   8.859  1.3916 -0.0424 -0.4223
   61SAPC  H14Y 4831   0.929   4.700   8.940 -1.6820  0.5514 -4.2756
   61SAPC  C315 4832   1.088   4.829   8.905 -0.2921  0.1379  0.1806
   61SAPC  H15X 4833   1.151   4.769   8.974  0.3094 -0.1862 -0.6291
   61SAPC  H15Y 4834   1.113   4.937   8.918 -1.5850  0.3479  1.0687
   61SAPC  C316 4835   1.126   4.794   8.762 -0.2894  1.1568 -0.2398
   61SAPC  H16X 4836   1.070   4.863   8.696  0.1705  0.4652 -1.3751
   61SAPC  H16Y 4837   1.112   4.685   8.748  2.2384  0.6875  0.2686
   61SAPC  C317 4838   1.272   4.832   8.731 -0.0297 -0.5858  0.3972
   61SAPC  H17X 4839   1.327   4.783   8.814 -0.5759 -3.3794 -0.7799
   61SAPC  H17Y 4840   1.287   4.939   8.759 -3.1762 -0.2594  1.2489
   61SAPC  C318 4841   1.315   4.794   8.595  0.6591  0.2496  0.4682
   61SAPC  H18X 4842   1.415   4.833   8.570  1.2976 -1.6378 -0.1222
   61SAPC  H18Y 4843   1.248   4.834   8.516  0.4728 -1.5510 -0.3561
   61SAPC  H18Z 4844   1.320   4.683   8.587  1.6376  0.2855  0.5217
   62SAPC     N 4845   6.418   6.059  10.859  0.0291 -0.0399 -0.3375
   62SAPC   C12 4846   6.441   5.940  10.772  0.0724  0.3630  0.0236
   62SAPC  H12A 4847   6.374   5.933  10.687  2.2764  0.2197 -1.7901
   62SAPC  H12B 4848   6.425   5.848  10.827 -0.6104  1.5210  1.8574
   62SAPC   C13 4849   6.276   6.062  10.914  0.1243 -0.1313  0.5359
   62SAPC  H13A 4850   6.256   6.154  10.967 -0.0546 -0.9190  1.8863
   62SAPC  H13B 4851   6.197   6.043  10.843  0.1406  2.7910 -0.4171
   62SAPC  H13C 4852   6.260   5.979  10.981 -1.4699 -0.0764  0.2582
   62SAPC   C14 4853   6.526   6.059  10.966  1.0400 -0.3931  0.8122
   62SAPC  H14A 4854   6.536   5.964  11.015 -0.6885 -1.2176 -0.3180
   62SAPC  H14B 4855   6.620   6.101  10.932  0.4060  1.0231  0.7505
   62SAPC  H14C 4856   6.483   6.124  11.041  0.8364 -0.5585  0.8401
   62SAPC   C15 4857   6.431   6.179  10.770  0.1514 -0.1048  0.4743
   62SAPC  H15A 4858   6.480   6.156  10.677 -2.1007  0.4069 -0.9015
   62SAPC  H15B 4859   6.330   6.209  10.749  0.0640  0.1446  1.2036
   62SAPC  H15C 4860   6.487   6.254  10.825 -1.2067 -0.1818  2.0402
   62SAPC   C11 4861   6.580   5.923  10.710 -0.7226 -0.0920 -0.1027
   62SAPC  H11A 4862   6.644   5.878  10.789 -0.2702 -1.5825 -1.2734
   62SAPC  H11B 4863   6.622   6.025  10.693  0.3892 -0.6966 -1.1381
   62SAPC     P 4864   6.491   5.706  10.579  0.0300  0.4124 -0.0770
   62SAPC   O13 4865   6.551   5.611  10.682 -0.5221 -0.1181 -0.3529
   62SAPC   O14 4866   6.348   5.732  10.596  0.2136  0.6210 -0.1666
   62SAPC   O12 4867   6.568   5.844  10.588 -0.3373 -0.4503  0.5613
   62SAPC   O11 4868   6.513   5.649  10.431 -0.2672 -0.1411  0.0894
   62SAPC    C1 4869   6.625   5.699  10.362  0.8440  0.4990 -0.1223
   62SAPC    HA 4870   6.660   5.799  10.395 -1.8585  0.3097  3.9543
   62SAPC    HB 4871   6.707   5.626  10.377 -0.1502 -0.5283  0.4843
   62SAPC    C2 4872   6.592   5.707  10.211  0.4249 -0.3316  0.4795
   62SAPC    HS 4873   6.673   5.649  10.163  0.7735  0.5126  0.0203
   62SAPC   O21 4874   6.582   5.840  10.167  0.2714  0.0157 -0.3449
   62SAPC   C21 4875   6.704   5.897  10.125  0.3751  0.5788 -0.3705
   62SAPC   O22 4876   6.807   5.860  10.165 -0.0775  0.0657 -0.2082
   62SAPC   C22 4877   6.683   6.033  10.051 -0.6769  0.0527 -0.2239
   62SAPC   H2R 4878   6.654   6.112  10.123  1.5738  0.3959  0.3781
   62SAPC   H2S 4879   6.784   6.056  10.012  0.3133 -2.5629  0.5628
   62SAPC    C3 4880   6.457   5.640  10.180 -0.8709 -0.0083 -0.2926
   62SAPC    HX 4881   6.382   5.680  10.252 -0.5994  0.3340 -0.1991
   62SAPC    HY 4882   6.454   5.534  10.214 -0.6632  0.1059  0.0963
   62SAPC   O31 4883   6.428   5.640  10.038 -0.0967  0.5699  0.8133
   62SAPC   C31 4884   6.335   5.733   9.997 -0.3625  0.5225  0.4629
   62SAPC   O32 4885   6.285   5.812  10.071  0.5149  0.1685 -0.1304
   62SAPC   C32 4886   6.316   5.714   9.850  0.3762 -0.0983 -0.0876
   62SAPC   H2X 4887   6.379   5.641   9.795 -0.5742  1.2491 -3.2614
   62SAPC   H2Y 4888   6.341   5.801   9.786  2.2183 -0.4336  0.1419
   62SAPC   C23 4889   6.585   6.027   9.931 -0.1010  0.4704  0.1755
   62SAPC   H3R 4890   6.485   5.993   9.966  0.3554 -1.4556 -0.2394
   62SAPC   H3S 4891   6.619   5.945   9.864 -0.0042 -0.4681  1.3405
   62SAPC   C24 4892   6.558   6.157   9.856  0.4146  0.3836 -0.3982
   62SAPC   H4R 4893   6.654   6.195   9.816 -0.1697  0.9794 -1.2819
   62SAPC   H4S 4894   6.517   6.242   9.915  1.1174  0.7274 -0.4018
   62SAPC   C25 4895   6.466   6.131   9.740 -0.4570 -0.6469  0.0818
   62SAPC   H5R 4896   6.362   6.136   9.774  0.3837 -0.6966  2.9457
   62SAPC   C26 4897   6.508   6.109   9.616 -0.8963 -0.3348  0.1236
   62SAPC   H6R 4898   6.440   6.066   9.541 -1.8640 -1.8040  1.7735
   62SAPC   C27 4899   6.651   6.114   9.564  0.0231  0.7109  0.2144
   62SAPC   H7R 4900   6.722   6.128   9.648 -1.3323  2.4427  1.1296
   62SAPC   H7S 4901   6.638   6.205   9.502 -0.6718  0.9618  0.7143
   62SAPC   C28 4902   6.705   5.993   9.486  0.0535  0.1175  0.7440
   62SAPC   H8R 4903   6.654   5.898   9.510 -2.1961  0.4255 -2.2281
   62SAPC   C29 4904   6.809   5.996   9.393 -0.5777 -0.3433  0.1181
   62SAPC   H9R 4905   6.838   5.903   9.342  0.5517  0.4125 -0.6542
   62SAPC  C210 4906   6.886   6.121   9.351 -0.5352  0.2659 -0.4738
   62SAPC  H10R 4907   6.885   6.209   9.419  1.0040 -0.6653  0.8379
   62SAPC  H10S 4908   6.848   6.149   9.251 -0.3770  0.3386 -0.5146
   62SAPC  C211 4909   7.029   6.078   9.330  0.0060  0.0320 -0.1885
   62SAPC  H11R 4910   7.086   6.040   9.416  0.6466 -1.2702 -1.1599
   62SAPC  C212 4911   7.093   6.068   9.209  0.5177 -0.0838  0.5249
   62SAPC  H12R 4912   7.195   6.026   9.207  0.8647  0.7514 -0.3312
   62SAPC  C213 4913   7.036   6.099   9.077 -0.0163 -0.3843  0.3962
   62SAPC  H13R 4914   7.001   6.204   9.077 -0.3382 -0.4623  1.9834
   62SAPC  H13S 4915   6.947   6.034   9.060  0.1063 -1.2125  2.5842
   62SAPC  C214 4916   7.124   6.087   8.953 -0.0529  0.1572  0.1194
   62SAPC  H14R 4917   7.231   6.096   8.979 -0.4068 -1.2853  2.3049
   62SAPC  C215 4918   7.097   6.065   8.826 -0.3922  0.2831  0.3085
   62SAPC  H15R 4919   7.187   6.052   8.763  2.0252  2.0836  3.1162
   62SAPC  C216 4920   6.968   6.034   8.760 -0.2762  0.2348 -0.1965
   62SAPC  H16R 4921   6.890   6.033   8.839 -1.0066 -0.5341 -0.9077
   62SAPC  H16S 4922   6.971   5.934   8.713 -0.1288 -0.3706  1.0432
   62SAPC  C217 4923   6.925   6.143   8.657  0.5676  0.6021  0.1815
   62SAPC  H17R 4924   6.919   6.239   8.712  0.7954  0.4085  0.5452
   62SAPC  H17S 4925   6.823   6.126   8.617  0.4994  0.4728  0.4129
   62SAPC  C218 4926   7.015   6.149   8.537 -0.6599  0.1619 -0.3633
   62SAPC  H18R 4927   7.031   6.058   8.475 -0.4209  1.8464 -2.9187
   62SAPC  H18S 4928   7.115   6.168   8.582 -1.3035 -0.6786  1.5330
   62SAPC  C219 4929   6.988   6.262   8.435  0.2516  0.4821 -0.3030
   62SAPC  H19R 4930   6.973   6.354   8.495  2.2453  0.7833 -0.1702
   62SAPC  H19S 4931   6.899   6.233   8.375 -1.2165  4.0142 -0.0759
   62SAPC  C220 4932   7.105   6.296   8.337 -0.6236  0.6630 -0.3955
   62SAPC  H20R 4933   7.118   6.226   8.252  0.9402  1.5569 -0.9358
   62SAPC  H20S 4934   7.204   6.305   8.387  0.0429  0.8971 -1.7241
   62SAPC  H20T 4935   7.086   6.397   8.296 -2.4633  0.5729  0.1551
   62SAPC   C33 4936   6.166   5.669   9.816 -1.2273  0.1715  0.1836
   62SAPC   H3X 4937   6.096   5.748   9.850 -2.6152  0.8443 -3.6792
   62SAPC   H3Y 4938   6.140   5.572   9.863  0.9813  0.1047  1.4062
   62SAPC   C34 4939   6.148   5.630   9.670  0.1135 -0.1771  0.6512
   62SAPC   H4X 4940   6.221   5.556   9.632  0.5753  1.0178 -0.9004
   62SAPC   H4Y 4941   6.167   5.723   9.612  0.2912 -0.4528  0.2687
   62SAPC   C35 4942   5.997   5.601   9.643  0.8264  0.1159  0.3556
   62SAPC   H5X 4943   5.933   5.688   9.665  0.3224  0.2609 -1.4633
   62SAPC   H5Y 4944   5.967   5.517   9.709 -1.8075 -0.2162 -1.1254
   62SAPC   C36 4945   5.985   5.551   9.496 -0.4104  0.8005 -0.8468
   62SAPC   H6X 4946   5.878   5.522   9.490 -0.4955  0.1027  2.5112
   62SAPC   H6Y 4947   6.051   5.461   9.494 -1.2920  0.1239 -0.1384
   62SAPC   C37 4948   6.020   5.645   9.379  0.1113  0.2117  0.4530
   62SAPC   H7X 4949   6.117   5.693   9.406  0.5514  0.2585 -1.1061
   62SAPC   H7Y 4950   5.937   5.720   9.381  1.4305  1.7234  1.4242
   62SAPC   C38 4951   6.027   5.568   9.238 -0.3245  0.5210 -0.5623
   62SAPC   H8X 4952   5.938   5.507   9.214  1.4769 -2.3401 -0.4235
   62SAPC   H8Y 4953   6.104   5.488   9.245 -1.6245 -1.1998 -3.8992
   62SAPC   C39 4954   6.068   5.674   9.130 -0.2224  0.0365  0.0618
   62SAPC   H9X 4955   6.033   5.778   9.149 -1.5121 -0.6733  1.8932
   62SAPC   H9Y 4956   6.019   5.643   9.036 -2.4572  1.8030  0.5532
   62SAPC  C310 4957   6.224   5.682   9.104 -0.4203  0.2297  0.2592
   62SAPC  H10X 4958   6.258   5.583   9.066 -0.6056 -0.2913  1.3870
   62SAPC  H10Y 4959   6.271   5.687   9.205  1.3258 -2.0204 -0.3671
   62SAPC  C311 4960   6.272   5.800   9.026 -0.6209  0.2293 -0.3147
   62SAPC  H11X 4961   6.383   5.806   9.035 -0.4108  0.9343 -2.7095
   62SAPC  H11Y 4962   6.238   5.893   9.076  0.7526 -0.2863  1.7177
   62SAPC  C312 4963   6.245   5.791   8.875  0.0468 -0.2077 -1.2270
   62SAPC  H12X 4964   6.135   5.795   8.867  0.1099 -1.3046 -3.6009
   62SAPC  H12Y 4965   6.282   5.693   8.837  0.7285 -0.9474  1.1501
   62SAPC  C313 4966   6.307   5.907   8.793  0.2006 -0.3464 -0.6803
   62SAPC  H13X 4967   6.413   5.924   8.822 -0.5458 -0.8798  2.7798
   62SAPC  H13Y 4968   6.257   6.005   8.811  0.6132  0.1535 -2.1120
   62SAPC  C314 4969   6.308   5.886   8.644 -0.4857  0.4913 -0.4714
   62SAPC  H14X 4970   6.356   5.967   8.585  0.1246 -0.6685 -1.6194
   62SAPC  H14Y 4971   6.201   5.883   8.615 -1.1043 -0.2082  1.6785
   62SAPC  C315 4972   6.353   5.749   8.590 -0.2675  0.2360 -0.4835
   62SAPC  H15X 4973   6.339   5.733   8.481  2.5442 -1.8617 -0.6337
   62SAPC  H15Y 4974   6.288   5.670   8.633  0.9882 -1.5021 -1.6474
   62SAPC  C316 4975   6.497   5.710   8.635 -0.5893  0.3581  0.0122
   62SAPC  H16X 4976   6.514   5.727   8.743  2.8830 -1.6920 -0.0540
   62SAPC  H16Y 4977   6.567   5.764   8.568  0.6057 -1.9776 -0.7424
   62SAPC  C317 4978   6.526   5.559   8.609 -0.4509  0.2560 -0.3218
   62SAPC  H17X 4979   6.462   5.497   8.676 -1.0281  0.8230 -0.3461
   62SAPC  H17Y 4980   6.633   5.536   8.629  0.4068  1.8584 -2.7570
   62SAPC  C318 4981   6.494   5.505   8.464  0.7672  0.4162  0.1000
   62SAPC  H18X 4982   6.527   5.583   8.391  0.7460  0.8070  0.5046
   62SAPC  H18Y 4983   6.383   5.495   8.463  0.5857  1.9297  1.2571
   62SAPC  H18Z 4984   6.540   5.410   8.429 -0.3697 -0.1662  0.1381
   63SAPC     N 4985   6.674   3.777   6.236 -0.2379  0.2797  0.6345
   63SAPC   C12 4986   6.665   3.787   6.384 -0.4430  0.2955 -0.5317
   63SAPC  H12A 4987   6.590   3.724   6.429 -0.5415  3.2535  4.1939
   63SAPC  H12B 4988   6.620   3.882   6.410 -0.2794  0.2952 -0.2418
   63SAPC   C13 4989   6.766   3.880   6.177  0.5811  0.5091 -0.2096
   63SAPC  H13A 4990   6.798   3.862   6.076  3.9207 -1.3746  1.0278
   63SAPC  H13B 4991   6.722   3.977   6.199  1.9620  0.6829  2.1212
   63SAPC  H13C 4992   6.861   3.875   6.228  0.6863 -0.7515 -0.5056
   63SAPC   C14 4993   6.715   3.637   6.203 -0.1041 -0.2112 -0.4207
   63SAPC  H14A 4994   6.808   3.621   6.254  0.3914  2.3031 -0.4236
   63SAPC  H14B 4995   6.649   3.559   6.238  0.2621  0.8102  2.8038
   63SAPC  H14C 4996   6.719   3.633   6.095  0.1048  0.7174 -0.4521
   63SAPC   C15 4997   6.534   3.800   6.184  0.8078 -0.1943 -0.5605
   63SAPC  H15A 4998   6.478   3.708   6.188  1.6003 -0.6998 -0.9110
   63SAPC  H15B 4999   6.477   3.877   6.234  0.4868 -1.2127  0.6874
   63SAPC  H15C 5000   6.529   3.827   6.080  0.9220 -0.6774 -0.6927
   63SAPC   C11 5001   6.800   3.791   6.466 -0.1883 -0.0512  0.2088
   63SAPC  H11A 5002   6.856   3.698   6.444 -1.6941 -0.6863 -1.1003
   63SAPC  H11B 5003   6.780   3.792   6.575 -0.2065  0.1349  0.2041
   63SAPC     P 5004   6.849   4.044   6.507 -0.1259  0.2031 -0.0844
   63SAPC   O13 5005   6.954   4.140   6.449 -0.6854  0.1665 -0.0689
   63SAPC   O14 5006   6.706   4.075   6.488  0.0817 -0.7677 -0.1272
   63SAPC   O12 5007   6.886   3.903   6.440  0.0190 -0.0698  0.1490
   63SAPC   O11 5008   6.870   4.014   6.662  0.2600  0.4572  0.1157
   63SAPC    C1 5009   6.820   4.091   6.766  1.0490 -0.3313 -0.4789
   63SAPC    HA 5010   6.715   4.128   6.755  0.5149 -0.8656  2.1738
   63SAPC    HB 5011   6.824   4.034   6.861  0.1731 -0.7726 -0.6971
   63SAPC    C2 5012   6.912   4.211   6.804 -0.0647 -0.2558  0.4251
   63SAPC    HS 5013   6.956   4.251   6.710 -1.9225  2.5179  0.6131
   63SAPC   O21 5014   7.015   4.151   6.890 -0.3839  0.0684 -0.0637
   63SAPC   C21 5015   7.126   4.208   6.894 -0.4699  0.1338 -0.0869
   63SAPC   O22 5016   7.160   4.302   6.822 -0.6170  0.3169  0.2535
   63SAPC   C22 5017   7.210   4.134   6.992 -0.9456  0.1002  0.4699
   63SAPC   H2R 5018   7.154   4.089   7.077  0.6024 -0.2796  1.3443
   63SAPC   H2S 5019   7.261   4.051   6.938 -0.4234  1.1234 -0.6531
   63SAPC    C3 5020   6.856   4.333   6.874 -0.8516  0.5424 -0.1662
   63SAPC    HX 5021   6.785   4.383   6.806  0.4297  0.9350 -1.2499
   63SAPC    HY 5022   6.937   4.406   6.899 -0.5400 -0.3457  1.6078
   63SAPC   O31 5023   6.801   4.289   7.000  0.0757 -0.2818  0.2680
   63SAPC   C31 5024   6.672   4.248   7.014  0.2514 -0.0086 -0.4591
   63SAPC   O32 5025   6.593   4.262   6.921 -0.3203 -0.5278 -0.0229
   63SAPC   C32 5026   6.650   4.194   7.155  0.0436 -0.3935  0.4004
   63SAPC   H2X 5027   6.657   4.276   7.229  2.8441 -0.1374 -0.0393
   63SAPC   H2Y 5028   6.731   4.122   7.179 -1.4496 -2.4430 -0.3153
   63SAPC   C23 5029   7.314   4.224   7.065  0.6922 -1.0849 -0.0585
   63SAPC   H3R 5030   7.273   4.266   7.159 -0.9281 -0.3175 -1.0529
   63SAPC   H3S 5031   7.341   4.313   7.004 -2.8544  1.2304  1.3695
   63SAPC   C24 5032   7.442   4.149   7.111  0.0139  0.2339 -0.0985
   63SAPC   H4R 5033   7.497   4.228   7.167  0.5398 -0.2256  0.0414
   63SAPC   H4S 5034   7.507   4.109   7.030  0.8930  0.7567  0.3325
   63SAPC   C25 5035   7.402   4.039   7.203  0.3010 -0.4651 -0.8219
   63SAPC   H5R 5036   7.314   3.979   7.174  1.9336 -3.8825  0.7117
   63SAPC   C26 5037   7.457   4.003   7.315 -0.4850  0.1466 -0.2723
   63SAPC   H6R 5038   7.409   3.927   7.377 -0.7603  0.3836 -0.1968
   63SAPC   C27 5039   7.583   4.052   7.371 -0.0324 -0.4239 -0.4870
   63SAPC   H7R 5040   7.586   4.072   7.480  0.2217  2.0281 -0.8825
   63SAPC   H7S 5041   7.607   4.153   7.331 -1.7810 -0.4770 -1.8136
   63SAPC   C28 5042   7.696   3.955   7.339  1.2017 -0.3711  0.1874
   63SAPC   H8R 5043   7.702   3.935   7.231  0.1612 -0.1668  0.0762
   63SAPC   C29 5044   7.784   3.894   7.420  0.1292  0.6048 -0.0925
   63SAPC   H9R 5045   7.855   3.818   7.383 -0.1335 -0.3444  1.2837
   63SAPC  C210 5046   7.797   3.905   7.570  0.8529  0.2123 -0.7277
   63SAPC  H10R 5047   7.781   4.009   7.605  1.8622 -0.2492  1.2440
   63SAPC  H10S 5048   7.903   3.885   7.595  0.5683 -0.2334  0.1576
   63SAPC  C211 5049   7.706   3.816   7.648 -0.1210 -0.1166  0.2465
   63SAPC  H11R 5050   7.660   3.736   7.588  1.4694 -0.4002 -0.6550
   63SAPC  C212 5051   7.690   3.815   7.779 -0.5987  0.4549 -0.3607
   63SAPC  H12R 5052   7.619   3.749   7.831  0.9401 -0.9408  0.0827
   63SAPC  C213 5053   7.768   3.896   7.878 -0.6773 -0.2230 -0.4612
   63SAPC  H13R 5054   7.694   3.953   7.939 -1.2071 -1.3299 -0.0411
   63SAPC  H13S 5055   7.840   3.970   7.837 -1.1769  0.1680 -0.6368
   63SAPC  C214 5056   7.857   3.813   7.964 -0.3550 -0.6884  0.6665
   63SAPC  H14R 5057   7.944   3.772   7.912 -1.4079 -0.9915 -0.9223
   63SAPC  C215 5058   7.849   3.773   8.093 -0.0255 -0.4006 -0.0785
   63SAPC  H15R 5059   7.931   3.716   8.138 -0.3859 -0.4936  0.4613
   63SAPC  C216 5060   7.738   3.814   8.183  0.0186  0.0073  0.0531
   63SAPC  H16R 5061   7.667   3.729   8.180  0.9550 -0.7880 -0.2028
   63SAPC  H16S 5062   7.681   3.900   8.141 -0.7805 -0.1888  0.7058
   63SAPC  C217 5063   7.779   3.860   8.328 -0.1485  0.7758  0.2386
   63SAPC  H17R 5064   7.839   3.952   8.308 -0.0269  0.5218 -0.6378
   63SAPC  H17S 5065   7.842   3.783   8.377  0.0284 -0.6322 -2.0271
   63SAPC  C218 5066   7.656   3.890   8.399 -0.2816 -0.3776 -0.5799
   63SAPC  H18R 5067   7.589   3.802   8.397 -0.5612 -0.1648 -0.5290
   63SAPC  H18S 5068   7.609   3.969   8.336  1.8668 -0.5525 -2.5621
   63SAPC  C219 5069   7.668   3.926   8.549 -0.0732 -0.5081 -0.2483
   63SAPC  H19R 5070   7.737   4.012   8.569 -0.3056 -0.6101  1.1235
   63SAPC  H19S 5071   7.717   3.839   8.596  1.5357  0.6910  0.4138
   63SAPC  C220 5072   7.540   3.959   8.626 -0.0407 -0.3020  0.7374
   63SAPC  H20R 5073   7.463   3.885   8.597  1.3857 -0.7950 -2.1836
   63SAPC  H20S 5074   7.517   4.064   8.596  1.9692  0.4286  1.5266
   63SAPC  H20T 5075   7.567   3.953   8.734 -0.1543 -2.6355  0.6772
   63SAPC   C33 5076   6.509   4.133   7.173  0.2393 -0.0630 -0.0520
   63SAPC   H3X 5077   6.508   4.022   7.160 -0.5714 -0.0432 -0.1943
   63SAPC   H3Y 5078   6.442   4.175   7.096  0.4025 -0.5432 -0.4645
   63SAPC   C34 5079   6.452   4.162   7.308  0.1983 -0.5063  0.3184
   63SAPC   H4X 5080   6.345   4.136   7.304  0.1822 -0.6004  1.2596
   63SAPC   H4Y 5081   6.455   4.272   7.316 -1.7514 -0.5338  2.1237
   63SAPC   C35 5082   6.528   4.098   7.429  0.1396  0.3067 -0.2678
   63SAPC   H5X 5083   6.630   4.142   7.431 -0.2758  1.3110  1.6075
   63SAPC   H5Y 5084   6.539   3.989   7.411 -0.2246  0.1218  0.5905
   63SAPC   C36 5085   6.456   4.116   7.564  0.4674  0.0457  0.6061
   63SAPC   H6X 5086   6.353   4.080   7.539  1.4778 -1.5056 -1.7115
   63SAPC   H6Y 5087   6.453   4.224   7.589  1.3362  0.0151  0.8422
   63SAPC   C37 5088   6.498   4.030   7.681 -0.4580 -0.2598  0.2137
   63SAPC   H7X 5089   6.609   4.033   7.688 -0.4190 -0.6752 -0.1745
   63SAPC   H7Y 5090   6.457   3.928   7.667  0.9400 -0.6808 -1.1494
   63SAPC   C38 5091   6.441   4.090   7.807 -0.1687 -0.4783  0.2591
   63SAPC   H8X 5092   6.332   4.095   7.789 -0.0158 -1.8207 -1.1911
   63SAPC   H8Y 5093   6.476   4.194   7.826 -1.9732  0.0887  0.7020
   63SAPC   C39 5094   6.473   4.013   7.935  0.8987  0.4793  0.4986
   63SAPC   H9X 5095   6.574   4.045   7.967  0.2974  2.7815  0.2732
   63SAPC   H9Y 5096   6.493   3.907   7.908  1.1113  0.5219  0.4837
   63SAPC  C310 5097   6.381   4.031   8.050 -0.3043 -0.3389 -0.1562
   63SAPC  H10X 5098   6.417   3.969   8.135 -1.3483  1.0390  1.3418
   63SAPC  H10Y 5099   6.277   4.000   8.026 -0.0926 -1.1965  0.0060
   63SAPC  C311 5100   6.362   4.183   8.102 -0.3281 -0.0008 -0.4987
   63SAPC  H11X 5101   6.316   4.244   8.021  0.7368 -0.2046 -1.2805
   63SAPC  H11Y 5102   6.466   4.219   8.120 -0.0619 -1.8244  2.0980
   63SAPC  C312 5103   6.267   4.189   8.227 -0.3700 -0.6241 -0.2384
   63SAPC  H12X 5104   6.165   4.148   8.214 -1.5268  1.3809  1.8902
   63SAPC  H12Y 5105   6.247   4.294   8.257 -2.0747 -0.4584 -1.8196
   63SAPC  C313 5106   6.315   4.112   8.354 -0.0073 -0.5495  0.3746
   63SAPC  H13X 5107   6.308   4.004   8.332 -2.4289 -0.4733  0.4246
   63SAPC  H13Y 5108   6.233   4.133   8.427 -0.7460 -2.4589  0.1514
   63SAPC  C314 5109   6.460   4.146   8.409 -1.1291 -0.2003  0.5329
   63SAPC  H14X 5110   6.522   4.133   8.317 -0.7960  1.0971  0.5531
   63SAPC  H14Y 5111   6.499   4.074   8.483  0.2696 -0.2131 -0.1870
   63SAPC  C315 5112   6.476   4.284   8.478 -0.1535 -0.0433  0.3343
   63SAPC  H15X 5113   6.394   4.353   8.451 -0.3073 -0.3691 -0.0405
   63SAPC  H15Y 5114   6.572   4.333   8.452 -0.3010  0.2653  0.3714
   63SAPC  C316 5115   6.476   4.272   8.630 -0.4815  0.1986 -0.1723
   63SAPC  H16X 5116   6.563   4.213   8.668 -0.3457  0.2080 -0.4695
   63SAPC  H16Y 5117   6.382   4.221   8.660  0.5966 -1.2217  0.9840
   63SAPC  C317 5118   6.461   4.403   8.708  0.2079 -0.0516  0.9020
   63SAPC  H17X 5119   6.361   4.442   8.683 -0.2194 -0.8119  1.3702
   63SAPC  H17Y 5120   6.542   4.469   8.670 -1.0307 -0.5536 -3.0315
   63SAPC  C318 5121   6.464   4.389   8.865 -0.4436  0.5789 -0.2811
   63SAPC  H18X 5122   6.567   4.360   8.897  0.2927  4.1061  0.9882
   63SAPC  H18Y 5123   6.385   4.323   8.905  0.2166  1.5244  2.8410
   63SAPC  H18Z 5124   6.439   4.487   8.911  0.7734  0.2376  1.1982
   64SAPC     N 5125   3.732   2.973   6.221  0.1378  0.2470  0.9285
   64SAPC   C12 5126   3.876   2.916   6.212  0.3501 -0.6885 -0.3357
   64SAPC  H12A 5127   3.870   2.811   6.236 -0.1563 -0.5767  0.0556
   64SAPC  H12B 5128   3.941   2.963   6.285  2.9116 -0.3470 -2.6766
   64SAPC   C13 5129   3.639   2.881   6.131 -0.5305  0.1383 -0.4385
   64SAPC  H13A 5130   3.641   2.778   6.162  1.2012 -0.0894 -1.1610
   64SAPC  H13B 5131   3.536   2.913   6.129  0.1824  2.8823  1.2247
   64SAPC  H13C 5132   3.673   2.876   6.028  1.1633  3.0865 -0.1286
   64SAPC   C14 5133   3.677   2.957   6.360 -0.4566 -0.1379 -0.0848
   64SAPC  H14A 5134   3.655   2.853   6.380  0.9038 -0.1423  1.6176
   64SAPC  H14B 5135   3.745   2.994   6.435  0.5690 -1.8128 -0.1350
   64SAPC  H14C 5136   3.586   3.014   6.375 -0.6350 -1.0325  2.8491
   64SAPC   C15 5137   3.733   3.111   6.180 -0.0935 -0.2064 -0.2126
   64SAPC  H15A 5138   3.809   3.123   6.105 -0.1733 -1.4189 -0.4990
   64SAPC  H15B 5139   3.638   3.147   6.142  1.1949  0.5875 -2.8981
   64SAPC  H15C 5140   3.754   3.166   6.271 -1.2984  0.5144 -0.3369
   64SAPC   C11 5141   3.946   2.934   6.073 -0.0225  0.3443 -0.2612
   64SAPC  H11A 5142   3.884   2.900   5.987 -0.4597  1.2224 -0.3066
   64SAPC  H11B 5143   4.029   2.862   6.064 -1.6202 -1.4481 -1.6174
   64SAPC     P 5144   4.110   3.139   6.124  0.4267  0.1063  0.3712
   64SAPC   O13 5145   4.222   3.062   6.070  0.1376  0.5243  0.1440
   64SAPC   O14 5146   4.098   3.283   6.097  0.3704 -0.5128 -0.1719
   64SAPC   O12 5147   3.981   3.069   6.051 -0.5453 -0.0846 -0.3182
   64SAPC   O11 5148   4.103   3.112   6.279 -0.3356  0.2593 -0.4348
   64SAPC    C1 5149   4.015   3.184   6.362  0.1706  0.0705  0.1818
   64SAPC    HA 5150   3.939   3.245   6.308  0.0945 -0.2558 -0.0764
   64SAPC    HB 5151   3.945   3.121   6.420 -1.6971  1.3155 -0.6014
   64SAPC    C2 5152   4.086   3.284   6.452  0.7475 -0.8054  0.2746
   64SAPC    HS 5153   4.159   3.349   6.400 -0.0512  1.9186  2.3276
   64SAPC   O21 5154   4.141   3.225   6.574  0.1734  0.1876 -0.6542
   64SAPC   C21 5155   4.253   3.166   6.564 -1.0673 -0.2206 -0.0417
   64SAPC   O22 5156   4.320   3.154   6.462 -0.0627 -0.1330  0.2308
   64SAPC   C22 5157   4.285   3.103   6.703  0.1147  0.2542  0.3979
   64SAPC   H2R 5158   4.290   3.177   6.785 -0.8352 -0.0487  0.7465
   64SAPC   H2S 5159   4.210   3.023   6.723 -1.0563  1.1507 -0.2485
   64SAPC    C3 5160   3.982   3.392   6.499  0.0096  0.0922  0.8905
   64SAPC    HX 5161   3.900   3.337   6.550 -0.1694 -0.5630 -0.0753
   64SAPC    HY 5162   3.946   3.450   6.411  4.0010  2.9869  0.8842
   64SAPC   O31 5163   4.048   3.496   6.580 -0.3652  0.3834  0.0474
   64SAPC   C31 5164   3.966   3.548   6.668  0.5915  0.0982  0.2794
   64SAPC   O32 5165   3.841   3.537   6.668 -0.3836  0.5631  0.0996
   64SAPC   C32 5166   4.043   3.616   6.783  0.1843  0.0607  0.6547
   64SAPC   H2X 5167   4.085   3.707   6.735  0.3944 -0.9461 -1.1685
   64SAPC   H2Y 5168   4.125   3.546   6.811  0.3146 -0.5657 -1.1658
   64SAPC   C23 5169   4.430   3.032   6.692  0.7801 -0.7570  0.7675
   64SAPC   H3R 5170   4.510   3.107   6.673  0.6900 -0.5254  1.2617
   64SAPC   H3S 5171   4.437   2.962   6.607  1.3329  0.5374 -0.2789
   64SAPC   C24 5172   4.461   2.972   6.826  0.4941 -0.1010  0.6212
   64SAPC   H4R 5173   4.465   3.065   6.887 -0.3256 -0.8837  1.9239
   64SAPC   H4S 5174   4.561   2.924   6.834 -0.3132 -2.0145 -0.0264
   64SAPC   C25 5175   4.356   2.880   6.895 -0.2106 -0.8980  0.4550
   64SAPC   H5R 5176   4.278   2.837   6.830  0.4312  1.2411 -1.9275
   64SAPC   C26 5177   4.367   2.847   7.019 -0.4446 -0.4476  0.0620
   64SAPC   H6R 5178   4.288   2.788   7.067 -1.1444 -0.3788 -0.9769
   64SAPC   C27 5179   4.474   2.868   7.120  0.3365  0.2126  0.1949
   64SAPC   H7R 5180   4.577   2.896   7.088  0.6868 -1.2140 -0.0250
   64SAPC   H7S 5181   4.476   2.768   7.168  0.7895 -0.1563 -0.5663
   64SAPC   C28 5182   4.434   2.974   7.224  0.1406 -0.1027 -0.4628
   64SAPC   H8R 5183   4.376   3.054   7.176  0.3939  0.3795  0.0196
   64SAPC   C29 5184   4.470   2.990   7.355  0.7370  1.1098  0.0674
   64SAPC   H9R 5185   4.428   3.069   7.418  0.6583  0.6593  0.5944
   64SAPC  C210 5186   4.575   2.891   7.414  0.0657 -0.0969  0.1712
   64SAPC  H10R 5187   4.657   2.868   7.343 -1.0245 -1.6180 -0.6653
   64SAPC  H10S 5188   4.531   2.792   7.440  0.3573 -0.7007 -1.5122
   64SAPC  C211 5189   4.648   2.937   7.535 -0.2881 -0.2019 -0.2437
   64SAPC  H11R 5190   4.741   2.990   7.509 -2.0875  3.2419 -0.2639
   64SAPC  C212 5191   4.607   2.931   7.663 -0.5455 -0.0829  0.7059
   64SAPC  H12R 5192   4.673   2.966   7.744 -0.8848 -1.1710  1.4858
   64SAPC  C213 5193   4.477   2.879   7.705  0.2781 -0.2643 -0.6027
   64SAPC  H13R 5194   4.400   2.864   7.627  0.7385 -0.4657 -1.0286
   64SAPC  H13S 5195   4.424   2.957   7.765  0.0755  0.9981 -2.3305
   64SAPC  C214 5196   4.501   2.754   7.794  0.0068  0.7004 -0.1732
   64SAPC  H14R 5197   4.489   2.658   7.741 -0.2898  0.9016 -0.4775
   64SAPC  C215 5198   4.534   2.747   7.921  0.1010 -0.2567 -0.6226
   64SAPC  H15R 5199   4.551   2.646   7.960 -0.7110 -0.0200  0.3845
   64SAPC  C216 5200   4.554   2.866   8.018 -0.3388  0.2249  0.4675
   64SAPC  H16R 5201   4.465   2.904   8.072 -0.0541  0.8978  0.4662
   64SAPC  H16S 5202   4.593   2.957   7.968  0.3401  1.2635  2.7558
   64SAPC  C217 5203   4.648   2.827   8.129 -0.9513 -0.0599 -0.1012
   64SAPC  H17R 5204   4.749   2.814   8.083 -1.5088 -0.2717 -1.3034
   64SAPC  H17S 5205   4.614   2.735   8.182  2.0275 -2.0323 -1.3198
   64SAPC  C218 5206   4.674   2.936   8.238  0.2663 -0.0278  0.8787
   64SAPC  H18R 5207   4.742   2.891   8.313 -1.0592  0.2519  2.2877
   64SAPC  H18S 5208   4.577   2.953   8.288  1.5010  1.5223  2.9305
   64SAPC  C219 5209   4.734   3.065   8.189 -0.0835  0.6529  0.3327
   64SAPC  H19R 5210   4.672   3.122   8.116 -2.3097  0.2693  1.8357
   64SAPC  H19S 5211   4.823   3.031   8.132 -0.3893  1.5288 -0.7094
   64SAPC  C220 5212   4.766   3.158   8.307  0.0819  0.8218 -0.0113
   64SAPC  H20R 5213   4.674   3.190   8.361  0.1080 -0.0313  0.5540
   64SAPC  H20S 5214   4.825   3.245   8.272 -0.3164  0.6903 -1.0527
   64SAPC  H20T 5215   4.825   3.095   8.376  2.0499  0.6429 -1.7778
   64SAPC   C33 5216   3.975   3.656   6.917 -0.5403  0.1483  0.0624
   64SAPC   H3X 5217   3.900   3.575   6.934 -0.9235  0.3276 -0.7432
   64SAPC   H3Y 5218   3.908   3.742   6.895 -1.1241  0.0839  1.4601
   64SAPC   C34 5219   4.077   3.675   7.034 -0.1613 -0.5550  0.5230
   64SAPC   H4X 5220   4.120   3.771   7.000  1.0809 -0.6944  1.6118
   64SAPC   H4Y 5221   4.156   3.599   7.015  0.3634  0.5427 -2.1914
   64SAPC   C35 5222   4.023   3.681   7.178 -0.8230  0.2311  0.3865
   64SAPC   H5X 5223   4.004   3.576   7.209 -2.9248  0.3260 -0.4760
   64SAPC   H5Y 5224   3.933   3.743   7.196  0.7084  2.5635  0.5562
   64SAPC   C36 5225   4.128   3.728   7.284 -0.1637  0.4521  0.2213
   64SAPC   H6X 5226   4.159   3.833   7.265  1.2428  0.6280  2.9594
   64SAPC   H6Y 5227   4.225   3.679   7.261  0.8227  1.8412  1.2336
   64SAPC   C37 5228   4.071   3.717   7.421 -0.6468  0.1557 -0.1836
   64SAPC   H7X 5229   4.062   3.608   7.442  0.8355  0.0933  0.2682
   64SAPC   H7Y 5230   3.973   3.767   7.433 -0.9141 -0.1567 -0.9577
   64SAPC   C38 5231   4.186   3.767   7.508 -0.5157  0.6279  0.2726
   64SAPC   H8X 5232   4.199   3.874   7.482  0.7605  0.6537  0.9164
   64SAPC   H8Y 5233   4.278   3.713   7.475 -1.4812 -1.2990  0.5538
   64SAPC   C39 5234   4.157   3.739   7.655  0.1642  0.9662 -0.0513
   64SAPC   H9X 5235   4.148   3.630   7.677 -0.1112  1.2636  1.4871
   64SAPC   H9Y 5236   4.051   3.770   7.668  0.1630  0.6884  0.6658
   64SAPC  C310 5237   4.255   3.792   7.764  0.6204  0.3894  0.2275
   64SAPC  H10X 5238   4.293   3.888   7.723 -0.0779  0.7125  0.3282
   64SAPC  H10Y 5239   4.345   3.728   7.780 -0.3766 -0.5990  2.2142
   64SAPC  C311 5240   4.203   3.815   7.906 -0.8928  0.5060 -0.3560
   64SAPC  H11X 5241   4.134   3.903   7.903 -0.8246  0.6801  1.6852
   64SAPC  H11Y 5242   4.294   3.852   7.957  0.2941  1.4982 -3.0261
   64SAPC  C312 5243   4.146   3.686   7.969  0.0230  0.8757  0.4333
   64SAPC  H12X 5244   4.229   3.612   7.962 -0.2911  0.5557  0.0078
   64SAPC  H12Y 5245   4.071   3.639   7.903 -0.4199  1.4387  0.5284
   64SAPC  C313 5246   4.090   3.700   8.114  0.1378 -0.2104  0.5131
   64SAPC  H13X 5247   4.058   3.598   8.143 -1.8775  0.3498  0.4527
   64SAPC  H13Y 5248   3.990   3.749   8.109 -1.0108 -2.5242 -0.6941
   64SAPC  C314 5249   4.200   3.766   8.209  0.0897  0.2631  1.1349
   64SAPC  H14X 5250   4.200   3.871   8.175 -1.4479  0.0522  0.3962
   64SAPC  H14Y 5251   4.296   3.721   8.176 -0.7126 -0.6958  0.0229
   64SAPC  C315 5252   4.162   3.754   8.361  0.1356 -0.0170 -0.0993
   64SAPC  H15X 5253   4.154   3.644   8.374 -2.0077  0.2260  1.1027
   64SAPC  H15Y 5254   4.064   3.803   8.376 -0.8673 -1.9742  0.0403
   64SAPC  C316 5255   4.260   3.815   8.459  0.0659  0.0073  0.1099
   64SAPC  H16X 5256   4.212   3.813   8.559 -0.5667 -3.0174 -0.1727
   64SAPC  H16Y 5257   4.266   3.924   8.438 -0.9906 -0.3660 -2.5931
   64SAPC  C317 5258   4.394   3.746   8.463  0.4572  0.6837 -0.0272
   64SAPC  H17X 5259   4.454   3.797   8.541 -0.1745 -1.4327  1.9285
   64SAPC  H17Y 5260   4.437   3.761   8.362 -1.8507 -0.2151 -1.2175
   64SAPC  C318 5261   4.382   3.599   8.495 -0.3448 -0.4922 -0.3373
   64SAPC  H18X 5262   4.290   3.593   8.558  0.7450 -1.2777  1.2330
   64SAPC  H18Y 5263   4.461   3.551   8.556 -0.2109 -0.6803 -0.6527
   64SAPC  H18Z 5264   4.362   3.530   8.410  2.0884  0.0482 -1.4137
   65SAPC     N 5265   5.000   6.298   6.360  0.0250  0.1242 -0.0065
   65SAPC   C12 5266   5.048   6.166   6.305  0.0612  0.2171 -1.0817
   65SAPC  H12A 5267   4.965   6.096   6.309  0.2172  0.0350 -1.0339
   65SAPC  H12B 5268   5.120   6.129   6.377 -1.7039  0.7814  1.0942
   65SAPC   C13 5269   4.976   6.291   6.504  0.7102 -0.4861  0.8002
   65SAPC  H13A 5270   4.946   6.387   6.545 -0.6179 -1.1387  1.3961
   65SAPC  H13B 5271   4.903   6.219   6.537  1.3592 -0.7019  1.8114
   65SAPC  H13C 5272   5.072   6.272   6.551  2.0921  0.0094 -1.6797
   65SAPC   C14 5273   5.093   6.404   6.317  0.3651 -1.0268  0.0873
   65SAPC  H14A 5274   5.092   6.424   6.211  0.7175  0.0153  0.2570
   65SAPC  H14B 5275   5.073   6.497   6.370  2.9776 -0.6816  0.6307
   65SAPC  H14C 5276   5.191   6.384   6.360 -0.4019  0.6358  2.9291
   65SAPC   C15 5277   4.874   6.324   6.283  0.4569  0.1413 -0.8122
   65SAPC  H15A 5278   4.823   6.412   6.320  1.9751  0.2401  1.2471
   65SAPC  H15B 5279   4.898   6.334   6.179  0.5420  1.0742 -0.7081
   65SAPC  H15C 5280   4.805   6.242   6.300  2.0409 -0.8328  1.5602
   65SAPC   C11 5281   5.106   6.145   6.169 -0.3872 -0.4872  0.2055
   65SAPC  H11A 5282   5.149   6.046   6.144 -4.6557 -2.0040 -2.2525
   65SAPC  H11B 5283   5.192   6.215   6.155  0.6880 -1.9834 -0.9816
   65SAPC     P 5284   4.889   6.088   6.031 -0.3263 -0.2075 -0.1551
   65SAPC   O13 5285   4.794   6.161   5.949 -0.3057 -0.7136 -0.6866
   65SAPC   O14 5286   4.943   5.963   5.969 -0.0917 -0.1390  0.0789
   65SAPC   O12 5287   5.006   6.182   6.068 -0.9922  0.3761 -0.5842
   65SAPC   O11 5288   4.815   6.054   6.163  0.1424 -0.8441 -0.1031
   65SAPC    C1 5289   4.741   5.928   6.171 -0.4801  0.4725 -0.0709
   65SAPC    HA 5290   4.651   5.934   6.107 -0.4891  0.0131 -0.1036
   65SAPC    HB 5291   4.804   5.841   6.142 -1.4062 -0.0535 -0.5273
   65SAPC    C2 5292   4.696   5.892   6.314  0.5332  0.1055 -0.5462
   65SAPC    HS 5293   4.661   5.787   6.311 -1.1367  0.5341  1.6459
   65SAPC   O21 5294   4.597   5.981   6.364  0.3925  0.1178 -0.0738
   65SAPC   C21 5295   4.474   5.975   6.314  0.1687 -0.1317  0.5572
   65SAPC   O22 5296   4.437   5.895   6.232 -0.5904  0.7178 -0.0817
   65SAPC   C22 5297   4.390   6.104   6.352 -0.3022  0.1786  0.3288
   65SAPC   H2R 5298   4.439   6.125   6.449  1.6908 -0.3994 -0.4925
   65SAPC   H2S 5299   4.419   6.180   6.276  0.9494 -2.1329 -1.6326
   65SAPC    C3 5300   4.806   5.891   6.414 -0.5257 -0.6471 -0.3803
   65SAPC    HX 5301   4.854   5.991   6.405  0.5495 -1.0456  0.6484
   65SAPC    HY 5302   4.877   5.809   6.387  1.1484  0.3693  0.7771
   65SAPC   O31 5303   4.758   5.866   6.549 -0.2435  0.2263  0.2768
   65SAPC   C31 5304   4.770   5.954   6.645  0.4360  0.2140  1.2225
   65SAPC   O32 5305   4.823   6.061   6.630  0.1071 -0.2755 -0.2474
   65SAPC   C32 5306   4.701   5.905   6.770  0.7523  0.8514  0.7256
   65SAPC   H2X 5307   4.766   5.828   6.817  0.5585  0.1934 -0.0456
   65SAPC   H2Y 5308   4.610   5.850   6.737 -0.9351  4.1971 -0.6314
   65SAPC   C23 5309   4.233   6.086   6.364 -0.0029  0.1527 -0.2023
   65SAPC   H3R 5310   4.178   6.088   6.268 -0.6468  3.2075  0.1169
   65SAPC   H3S 5311   4.204   6.178   6.419  2.9758  1.2340 -0.2073
   65SAPC   C24 5312   4.197   5.965   6.447  0.0351 -0.5951 -0.0474
   65SAPC   H4R 5313   4.214   5.874   6.385  1.9436 -0.1330 -0.2921
   65SAPC   H4S 5314   4.087   5.966   6.455 -0.0204 -0.0763 -0.7488
   65SAPC   C25 5315   4.273   5.955   6.576  0.4043  0.4298 -0.1631
   65SAPC   H5R 5316   4.289   6.048   6.633 -2.1269  0.0813  1.2585
   65SAPC   C26 5317   4.317   5.833   6.619 -0.3334 -0.9164  0.3417
   65SAPC   H6R 5318   4.358   5.826   6.721 -0.0558 -4.6415  0.1202
   65SAPC   C27 5319   4.300   5.703   6.548  0.1060  0.7928 -0.2099
   65SAPC   H7R 5320   4.368   5.678   6.464  2.6588  1.8552  1.4356
   65SAPC   H7S 5321   4.196   5.704   6.507  0.5567  2.7554 -1.4143
   65SAPC   C28 5322   4.319   5.589   6.647  0.2389  0.0015 -0.1318
   65SAPC   H8R 5323   4.390   5.512   6.612 -0.7797 -0.9934 -0.0627
   65SAPC   C29 5324   4.261   5.560   6.763  0.0241 -0.6265  0.0360
   65SAPC   H9R 5325   4.303   5.478   6.823  1.8792 -1.2333 -1.9456
   65SAPC  C210 5326   4.143   5.623   6.831  0.0710 -0.3183  0.3885
   65SAPC  H10R 5327   4.100   5.704   6.768 -0.2722 -2.9834 -3.1024
   65SAPC  H10S 5328   4.179   5.671   6.925  2.2915  0.3498 -0.7516
   65SAPC  C211 5329   4.039   5.512   6.832 -0.0812 -0.8838 -0.1376
   65SAPC  H11R 5330   4.032   5.445   6.744 -0.3857 -1.1807  0.1097
   65SAPC  C212 5331   3.959   5.491   6.935 -0.2147  0.5062  0.3088
   65SAPC  H12R 5332   3.883   5.412   6.929  0.5593 -0.3605  1.4031
   65SAPC  C213 5333   3.959   5.564   7.067  0.6962 -0.0423  0.4291
   65SAPC  H13R 5334   3.854   5.557   7.101  0.0823 -2.7208 -1.6041
   65SAPC  H13S 5335   3.980   5.672   7.053  1.7174 -0.3036 -0.2184
   65SAPC  C214 5336   4.062   5.517   7.168  0.1608 -0.8429  0.3469
   65SAPC  H14R 5337   4.168   5.514   7.137 -0.2453 -0.7921 -1.0900
   65SAPC  C215 5338   4.033   5.498   7.300 -0.0993  0.7406  0.3982
   65SAPC  H15R 5339   4.119   5.475   7.364  0.2660 -0.3459 -0.4528
   65SAPC  C216 5340   3.894   5.515   7.361  0.8360  0.0211 -0.6785
   65SAPC  H16R 5341   3.818   5.476   7.289  2.0425  0.9946 -2.5580
   65SAPC  H16S 5342   3.871   5.621   7.385 -2.1492 -0.6129 -0.3630
   65SAPC  C217 5343   3.878   5.426   7.488 -0.2204 -0.3798  0.4801
   65SAPC  H17R 5344   3.965   5.442   7.555  0.6509 -0.7089 -0.5554
   65SAPC  H17S 5345   3.885   5.320   7.457  3.8125 -0.0416 -0.3071
   65SAPC  C218 5346   3.738   5.443   7.571 -0.8273  0.2572  0.1321
   65SAPC  H18R 5347   3.657   5.443   7.496 -2.5395  0.1465  1.9099
   65SAPC  H18S 5348   3.735   5.547   7.612 -1.9764  0.7091 -1.0547
   65SAPC  C219 5349   3.727   5.336   7.680  0.5068  0.0238  0.0247
   65SAPC  H19R 5350   3.823   5.300   7.723 -0.5579  0.0067  2.6224
   65SAPC  H19S 5351   3.689   5.243   7.634 -0.1844  1.6345 -2.8684
   65SAPC  C220 5352   3.638   5.370   7.799  0.3333 -0.1825 -0.3381
   65SAPC  H20R 5353   3.629   5.281   7.864  1.1544 -1.5797 -2.0558
   65SAPC  H20S 5354   3.541   5.405   7.757 -0.0306 -2.8842 -1.9656
   65SAPC  H20T 5355   3.684   5.450   7.861 -0.2844  0.2887 -0.4678
   65SAPC   C33 5356   4.657   6.019   6.859  0.0242  0.1320  0.4746
   65SAPC   H3X 5357   4.651   6.112   6.798 -2.0854  0.7325  1.4896
   65SAPC   H3Y 5358   4.737   6.031   6.935 -0.6686 -1.5562  1.5291
   65SAPC   C34 5359   4.532   5.998   6.950  0.3233  0.0474 -0.1190
   65SAPC   H4X 5360   4.442   6.023   6.890  1.3418  0.2258 -1.6318
   65SAPC   H4Y 5361   4.539   6.074   7.030  0.7050  0.6170 -0.6853
   65SAPC   C35 5362   4.515   5.868   7.022  0.1724  0.2799  0.0694
   65SAPC   H5X 5363   4.612   5.840   7.069 -0.2539  0.5082  1.1105
   65SAPC   H5Y 5364   4.491   5.784   6.953  2.3205  0.4910 -1.0316
   65SAPC   C36 5365   4.395   5.870   7.123  0.2733  0.2711 -0.1139
   65SAPC   H6X 5366   4.297   5.839   7.084 -0.8744  2.1684  1.0942
   65SAPC   H6Y 5367   4.371   5.977   7.141  0.2052  0.3065 -0.4123
   65SAPC   C37 5368   4.411   5.798   7.268  0.6340  0.4500 -0.0573
   65SAPC   H7X 5369   4.452   5.696   7.248  1.2575  0.5131  0.8384
   65SAPC   H7Y 5370   4.314   5.775   7.317  0.7496 -0.5024 -0.2443
   65SAPC   C38 5371   4.497   5.883   7.352 -0.4469  0.1593 -0.1331
   65SAPC   H8X 5372   4.455   5.986   7.347 -0.5975  0.1601  0.9167
   65SAPC   H8Y 5373   4.600   5.886   7.309 -1.7029 -1.5366 -3.5536
   65SAPC   C39 5374   4.503   5.844   7.503  0.6180 -0.2148 -0.3617
   65SAPC   H9X 5375   4.535   5.738   7.515  0.7750 -0.1689 -0.3884
   65SAPC   H9Y 5376   4.399   5.854   7.543  1.5216  0.7670  1.9075
   65SAPC  C310 5377   4.580   5.942   7.590  0.3150  0.5576  0.2038
   65SAPC  H10X 5378   4.550   6.045   7.563  0.0309 -0.3995 -3.6993
   65SAPC  H10Y 5379   4.682   5.920   7.552 -0.4378 -1.9569 -0.5401
   65SAPC  C311 5380   4.576   5.907   7.736  0.2289  0.5736  0.2462
   65SAPC  H11X 5381   4.660   5.962   7.784  0.5786 -0.0274  0.3258
   65SAPC  H11Y 5382   4.592   5.800   7.760  0.2389  0.7072  0.8685
   65SAPC  C312 5383   4.456   5.968   7.813  0.7632  0.1456 -0.6128
   65SAPC  H12X 5384   4.354   5.961   7.770 -0.1742 -1.4258  1.6557
   65SAPC  H12Y 5385   4.467   6.078   7.827 -1.9612  0.4031  0.1428
   65SAPC  C313 5386   4.442   5.898   7.957 -0.1427  0.1958 -0.0660
   65SAPC  H13X 5387   4.443   5.788   7.948  1.2009  0.0922  1.0573
   65SAPC  H13Y 5388   4.342   5.925   7.999 -0.8255  0.3844 -1.7325
   65SAPC  C314 5389   4.557   5.927   8.057  0.0630  0.3231  0.2705
   65SAPC  H14X 5390   4.569   6.038   8.065 -1.2703  0.4392  1.1165
   65SAPC  H14Y 5391   4.651   5.885   8.016  1.0751  1.9309  0.8417
   65SAPC  C315 5392   4.527   5.864   8.196  1.0937  0.2487 -0.0464
   65SAPC  H15X 5393   4.505   5.755   8.184 -1.1274  0.6655 -0.1502
   65SAPC  H15Y 5394   4.434   5.909   8.236  1.1596 -1.9316  2.9624
   65SAPC  C316 5395   4.622   5.883   8.313  0.3184  0.7863  0.6032
   65SAPC  H16X 5396   4.723   5.887   8.267 -0.1373 -1.2629 -0.7156
   65SAPC  H16Y 5397   4.629   5.791   8.375  2.7527  0.5663  0.1045
   65SAPC  C317 5398   4.600   6.009   8.396 -0.1445 -0.1080 -0.2561
   65SAPC  H17X 5399   4.503   5.992   8.448 -1.3449  0.6238 -2.1701
   65SAPC  H17Y 5400   4.586   6.094   8.327  2.3306  1.5390  1.1437
   65SAPC  C318 5401   4.710   6.043   8.505 -0.3383 -0.4817 -0.4987
   65SAPC  H18X 5402   4.685   6.138   8.557  1.3252 -0.7031  0.7847
   65SAPC  H18Y 5403   4.808   6.059   8.456 -0.6717  0.2254 -0.9432
   65SAPC  H18Z 5404   4.706   5.961   8.581 -0.2370 -1.2779 -1.3319
   66SAPC     N 5405   2.881   3.714   5.894 -0.6311 -0.2151  0.0854
   66SAPC   C12 5406   2.749   3.671   5.831  0.4112  0.6127 -0.4503
   66SAPC  H12A 5407   2.760   3.577   5.780 -1.8140 -0.9996  1.7570
   66SAPC  H12B 5408   2.708   3.744   5.763 -0.0898  0.5941 -0.1747
   66SAPC   C13 5409   2.992   3.682   5.802 -0.4718 -0.6701  0.0580
   66SAPC  H13A 5410   2.978   3.736   5.709  0.2821 -0.4774  0.0509
   66SAPC  H13B 5411   3.091   3.705   5.840 -0.5513 -0.5218  0.1771
   66SAPC  H13C 5412   2.995   3.576   5.785 -0.8429 -0.6551 -0.1160
   66SAPC   C14 5413   2.879   3.856   5.933  0.2691 -1.0312 -0.1284
   66SAPC  H14A 5414   2.784   3.870   5.982 -0.1753 -2.1701 -0.6318
   66SAPC  H14B 5415   2.953   3.886   6.005 -1.0221  1.5498  0.2543
   66SAPC  H14C 5416   2.895   3.922   5.849  1.8009  0.5266  1.3074
   66SAPC   C15 5417   2.907   3.633   6.013 -0.4620 -0.6085  0.1118
   66SAPC  H15A 5418   3.008   3.653   6.046  0.0304  0.2453 -1.7984
   66SAPC  H15B 5419   2.835   3.655   6.090 -1.1348  0.0754 -0.6909
   66SAPC  H15C 5420   2.899   3.532   5.977 -1.2238 -0.2738 -0.6779
   66SAPC   C11 5421   2.633   3.654   5.931  0.1626  0.2004 -0.7987
   66SAPC  H11A 5422   2.653   3.565   5.995 -4.1553 -0.3262  0.1249
   66SAPC  H11B 5423   2.551   3.626   5.862  0.3260  0.1107 -0.9581
   66SAPC     P 5424   2.441   3.807   6.031  0.1375  0.2251 -0.0661
   66SAPC   O13 5425   2.397   3.879   5.905  0.5585  0.2963 -0.0735
   66SAPC   O14 5426   2.371   3.684   6.076 -0.3658 -0.9535 -0.0489
   66SAPC   O12 5427   2.601   3.768   6.011 -0.0564 -0.6448  0.1684
   66SAPC   O11 5428   2.443   3.910   6.146  0.1937 -0.3610 -0.0350
   66SAPC    C1 5429   2.552   3.999   6.173 -0.0751  0.9269 -0.3910
   66SAPC    HA 5430   2.644   3.943   6.143  1.1620  1.3104  2.3948
   66SAPC    HB 5431   2.536   4.093   6.117 -0.9412 -0.3229 -2.3862
   66SAPC    C2 5432   2.580   4.020   6.326 -0.8916 -0.3815  0.1292
   66SAPC    HS 5433   2.493   4.074   6.368 -1.3531 -0.4787 -0.6678
   66SAPC   O21 5434   2.711   4.076   6.333  0.1225 -0.0961  0.0839
   66SAPC   C21 5435   2.729   4.163   6.423  0.8698  0.0190  0.1460
   66SAPC   O22 5436   2.645   4.213   6.496 -0.2785  0.2526 -0.1396
   66SAPC   C22 5437   2.884   4.174   6.440  0.0062 -0.2396  0.0787
   66SAPC   H2R 5438   2.949   4.109   6.377  0.2402  0.4213 -0.3727
   66SAPC   H2S 5439   2.907   4.274   6.398 -0.0900 -0.5823 -0.8046
   66SAPC    C3 5440   2.587   3.882   6.393 -0.3114 -0.0397  0.3145
   66SAPC    HX 5441   2.685   3.840   6.361 -0.1854  0.6697 -0.2367
   66SAPC    HY 5442   2.505   3.817   6.354 -0.4913  0.7322 -0.6343
   66SAPC   O31 5443   2.583   3.910   6.541  0.5286 -0.2920  0.0344
   66SAPC   C31 5444   2.685   3.878   6.619 -0.8709  0.7406  0.2181
   66SAPC   O32 5445   2.794   3.841   6.574 -0.4747  0.1051  0.0688
   66SAPC   C32 5446   2.665   3.891   6.764  0.0941  0.2603 -0.2347
   66SAPC   H2X 5447   2.640   3.994   6.797 -1.7039 -0.0772 -0.4441
   66SAPC   H2Y 5448   2.762   3.884   6.818 -0.7991  2.2774  1.8076
   66SAPC   C23 5449   2.931   4.173   6.590  0.3815  0.4297 -0.2407
   66SAPC   H3R 5450   2.914   4.067   6.617 -1.3659  0.3176 -1.6014
   66SAPC   H3S 5451   2.880   4.246   6.656  0.7829  1.5747 -1.1578
   66SAPC   C24 5452   3.081   4.194   6.607 -0.1897 -0.4401 -0.2029
   66SAPC   H4R 5453   3.125   4.108   6.552  2.5138  0.6528  0.1046
   66SAPC   H4S 5454   3.101   4.188   6.716  0.6528  2.1948 -0.1633
   66SAPC   C25 5455   3.142   4.318   6.558  0.1318  0.5317 -0.0702
   66SAPC   H5R 5456   3.200   4.316   6.465 -1.0514 -0.6683 -0.8096
   66SAPC   C26 5457   3.122   4.446   6.607  0.1158 -0.1502  0.0019
   66SAPC   H6R 5458   3.173   4.525   6.551  0.3858 -0.9940 -0.9625
   66SAPC   C27 5459   3.037   4.487   6.716 -0.5404 -0.5812 -0.2272
   66SAPC   H7R 5460   3.012   4.409   6.792  1.6113 -0.8612  0.2656
   66SAPC   H7S 5461   2.940   4.525   6.677 -1.4116 -4.0653 -1.7532
   66SAPC   C28 5462   3.100   4.597   6.797 -0.0795 -0.2493 -0.0086
   66SAPC   H8R 5463   3.127   4.688   6.743  2.9169  0.9340  3.1157
   66SAPC   C29 5464   3.141   4.600   6.923  0.4418  0.4356 -0.1866
   66SAPC   H9R 5465   3.173   4.696   6.967 -1.4607  0.9493  0.1517
   66SAPC  C210 5466   3.133   4.490   7.022 -0.1528  0.0770  0.0658
   66SAPC  H10R 5467   3.041   4.430   7.008  0.4719 -0.6473 -1.1217
   66SAPC  H10S 5468   3.126   4.533   7.125  1.3988  1.9297 -0.5399
   66SAPC  C211 5469   3.238   4.389   7.002  0.6419 -0.2386  0.3830
   66SAPC  H11R 5470   3.265   4.371   6.896 -0.3400  0.7671 -0.0594
   66SAPC  C212 5471   3.307   4.331   7.104  0.1079 -0.5264  0.0791
   66SAPC  H12R 5472   3.388   4.263   7.076  0.6350 -0.1614  0.6950
   66SAPC  C213 5473   3.290   4.360   7.257 -0.5857  0.4032 -0.3616
   66SAPC  H13R 5474   3.306   4.468   7.276 -0.8441  0.4155 -0.2003
   66SAPC  H13S 5475   3.374   4.308   7.307 -0.3037 -0.0447 -1.2748
   66SAPC  C214 5476   3.155   4.319   7.305  0.8854 -0.1569 -0.6275
   66SAPC  H14R 5477   3.090   4.276   7.227  2.0238 -1.7631 -0.7480
   66SAPC  C215 5478   3.119   4.311   7.434 -0.6097  0.1489  0.4461
   66SAPC  H15R 5479   3.023   4.261   7.457 -0.6748  0.7960  1.6967
   66SAPC  C216 5480   3.204   4.352   7.547 -0.1896 -0.6309 -0.2588
   66SAPC  H16R 5481   3.293   4.409   7.513  0.1584 -0.0747  1.4833
   66SAPC  H16S 5482   3.255   4.271   7.603  1.5256 -0.5677 -1.6586
   66SAPC  C217 5483   3.130   4.439   7.653 -0.5921 -0.4606  0.2111
   66SAPC  H17R 5484   3.034   4.391   7.681  0.8107 -2.0867  2.5999
   66SAPC  H17S 5485   3.096   4.527   7.594  0.6492 -0.0473  0.0931
   66SAPC  C218 5486   3.211   4.475   7.771 -0.1442  1.1159  0.0863
   66SAPC  H18R 5487   3.215   4.393   7.846 -1.8826 -0.2580 -1.2407
   66SAPC  H18S 5488   3.167   4.562   7.824 -0.8817  1.2650 -0.7512
   66SAPC  C219 5489   3.353   4.522   7.739 -0.1853 -0.1858  0.4825
   66SAPC  H19R 5490   3.354   4.612   7.674  1.7082 -0.0171  0.6631
   66SAPC  H19S 5491   3.413   4.439   7.697  1.3273 -0.3604  2.7994
   66SAPC  C220 5492   3.430   4.562   7.864 -0.5244 -0.5963  0.0495
   66SAPC  H20R 5493   3.530   4.607   7.848 -0.3986 -0.4817  1.0448
   66SAPC  H20S 5494   3.452   4.482   7.939  0.5298  0.5599  1.0048
   66SAPC  H20T 5495   3.373   4.636   7.924  0.1855  0.1581 -0.1821
   66SAPC   C33 5496   2.570   3.787   6.825 -0.1489  0.0615 -0.3466
   66SAPC   H3X 5497   2.602   3.691   6.780  0.6927  0.3042 -0.2980
   66SAPC   H3Y 5498   2.464   3.812   6.803 -0.7680 -0.3689  1.9302
   66SAPC   C34 5499   2.593   3.788   6.978 -0.4759 -0.0745 -0.3448
   66SAPC   H4X 5500   2.562   3.890   7.008 -2.8341 -0.4411 -1.2702
   66SAPC   H4Y 5501   2.699   3.764   7.000 -0.6391 -1.8694 -1.3307
   66SAPC   C35 5502   2.518   3.678   7.051 -0.3946 -0.3308  0.1051
   66SAPC   H5X 5503   2.563   3.579   7.027 -0.7734 -0.4424 -0.1511
   66SAPC   H5Y 5504   2.413   3.663   7.021 -0.4553 -1.0479  0.6346
   66SAPC   C36 5505   2.518   3.700   7.210  0.1267  0.3613  0.1918
   66SAPC   H6X 5506   2.496   3.808   7.210 -2.6347 -0.0191 -3.2016
   66SAPC   H6Y 5507   2.621   3.677   7.246  0.3591  0.8785 -0.1307
   66SAPC   C37 5508   2.420   3.607   7.285  0.2464 -0.2572 -0.4084
   66SAPC   H7X 5509   2.444   3.499   7.284 -1.4008 -0.6743  0.9871
   66SAPC   H7Y 5510   2.320   3.614   7.235  0.3866  1.6029 -0.4968
   66SAPC   C38 5511   2.406   3.658   7.431 -0.5622 -0.5134 -0.0495
   66SAPC   H8X 5512   2.307   3.627   7.469 -0.8644 -1.5145 -1.5803
   66SAPC   H8Y 5513   2.406   3.769   7.431  0.5776 -0.4673  1.5267
   66SAPC   C39 5514   2.540   3.625   7.507  0.7592  0.4540  0.2328
   66SAPC   H9X 5515   2.613   3.701   7.471  0.1124  0.2555 -1.5976
   66SAPC   H9Y 5516   2.573   3.521   7.487  0.2429  0.9423 -4.3896
   66SAPC  C310 5517   2.522   3.648   7.655 -0.2055 -0.0160 -0.1685
   66SAPC  H10X 5518   2.444   3.575   7.685 -2.2784  1.0412 -2.6319
   66SAPC  H10Y 5519   2.472   3.745   7.673 -0.8844 -0.4803  0.5149
   66SAPC  C311 5520   2.648   3.636   7.747  0.0393  0.2303  0.9415
   66SAPC  H11X 5521   2.734   3.694   7.709 -0.7360  1.6520  1.3050
   66SAPC  H11Y 5522   2.677   3.529   7.753 -1.1370 -0.3629 -2.1286
   66SAPC  C312 5523   2.615   3.695   7.888  0.1775  0.6147 -0.3140
   66SAPC  H12X 5524   2.535   3.630   7.930 -0.4190  1.6135  0.1029
   66SAPC  H12Y 5525   2.578   3.797   7.867 -0.9120  0.4190  0.5902
   66SAPC  C313 5526   2.734   3.672   7.987  0.7263  0.7904 -0.1317
   66SAPC  H13X 5527   2.828   3.713   7.943  0.8588  0.0875 -0.5248
   66SAPC  H13Y 5528   2.757   3.565   8.007  3.1523  0.7148 -2.6679
   66SAPC  C314 5529   2.710   3.742   8.119 -0.2509  0.3447  0.0769
   66SAPC  H14X 5530   2.797   3.722   8.186 -1.4482 -0.7554  1.3701
   66SAPC  H14Y 5531   2.623   3.689   8.162  0.4834  0.7816  2.2291
   66SAPC  C315 5532   2.686   3.892   8.108 -0.2325  0.6879 -0.3030
   66SAPC  H15X 5533   2.587   3.918   8.063  0.6219  0.3606 -2.4737
   66SAPC  H15Y 5534   2.767   3.931   8.043 -0.4531  1.1997 -0.2787
   66SAPC  C316 5535   2.718   3.974   8.237  0.6551  0.4393  0.4808
   66SAPC  H16X 5536   2.660   3.909   8.305  1.4705  0.3754  1.1245
   66SAPC  H16Y 5537   2.666   4.072   8.243 -2.5965 -1.1582  0.7673
   66SAPC  C317 5538   2.868   3.994   8.276  0.2426 -0.4292 -0.8812
   66SAPC  H17X 5539   2.909   4.065   8.201  1.1099 -0.3910 -0.3757
   66SAPC  H17Y 5540   2.929   3.902   8.264  1.9437  0.4915  0.3264
   66SAPC  C318 5541   2.894   4.047   8.419  0.0021  0.1113 -0.1449
   66SAPC  H18X 5542   2.869   3.975   8.499  0.9009 -0.1245 -0.0680
   66SAPC  H18Y 5543   2.846   4.146   8.433 -1.0082 -0.4914  0.8353
   66SAPC  H18Z 5544   3.003   4.064   8.436  0.1257 -1.0221  0.2886
   67SAPC     N 5545   4.763   0.210   6.303  0.5829  0.3008  0.5132
   67SAPC   C12 5546   4.893   0.148   6.344 -0.9068 -1.0262 -0.0642
   67SAPC  H12A 5547   4.916   0.165   6.448  0.1889 -1.0002 -0.2970
   67SAPC  H12B 5548   4.968   0.203   6.289 -1.5284 -1.1065 -1.0055
   67SAPC   C13 5549   4.657   0.127   6.374 -0.0126  0.6107 -0.0682
   67SAPC  H13A 5550   4.557   0.160   6.353  0.1957  1.6360  0.4801
   67SAPC  H13B 5551   4.693   0.030   6.344 -0.1249  0.9240 -1.2698
   67SAPC  H13C 5552   4.670   0.138   6.480 -1.9340 -0.9062  0.3663
   67SAPC   C14 5553   4.750   0.353   6.339  0.1710 -0.3686  0.1435
   67SAPC  H14A 5554   4.740   0.370   6.445 -0.3643 -0.0301  0.0424
   67SAPC  H14B 5555   4.828   0.419   6.303 -0.1534 -0.2301 -0.3195
   67SAPC  H14C 5556   4.663   0.397   6.293 -0.6157 -1.8844  0.1415
   67SAPC   C15 5557   4.738   0.199   6.153  0.1932 -0.0340 -0.2299
   67SAPC  H15A 5558   4.783   0.110   6.111  0.4208 -1.3254  2.5757
   67SAPC  H15B 5559   4.631   0.185   6.151 -0.1782  1.7843  2.2175
   67SAPC  H15C 5560   4.773   0.295   6.117  1.0819 -0.3642 -0.2789
   67SAPC   C11 5561   4.918   0.001   6.312  0.5673  0.0513 -0.6030
   67SAPC  H11A 5562   5.028  -0.010   6.297  0.7247  1.2479 -0.4355
   67SAPC  H11B 5563   4.887  -0.030   6.210  1.5889 -0.1074 -0.8805
   67SAPC     P 5564   4.935  -0.117   6.547  0.0564  0.0646  0.3303
   67SAPC   O13 5565   5.067  -0.169   6.511 -0.1039  0.0880  0.0365
   67SAPC   O14 5566   4.920   0.008   6.619 -0.2671 -0.0776 -0.3458
   67SAPC   O12 5567   4.855  -0.088   6.406  0.6893  0.4155 -0.2112
   67SAPC   O11 5568   4.851  -0.225   6.618  0.4358  0.0072 -0.0420
   67SAPC    C1 5569   4.709  -0.218   6.605  0.9844 -0.1189 -0.0992
   67SAPC    HA 5570   4.662  -0.131   6.555 -0.0658 -1.1697 -1.0053
   67SAPC    HB 5571   4.682  -0.302   6.537 -2.0810 -0.9878  1.9777
   67SAPC    C2 5572   4.627  -0.241   6.733  0.2827 -0.0008 -0.6811
   67SAPC    HS 5573   4.518  -0.239   6.713  0.4468 -0.4411 -1.6444
   67SAPC   O21 5574   4.663  -0.138   6.838 -0.2625 -0.1601  0.1591
   67SAPC   C21 5575   4.568  -0.052   6.856 -0.2026 -0.5440 -0.3003
   67SAPC   O22 5576   4.463  -0.049   6.800  0.5328 -0.6659 -0.2546
   67SAPC   C22 5577   4.619   0.050   6.964  0.6653  0.0612  0.2550
   67SAPC   H2R 5578   4.651  -0.011   7.050  1.7320 -0.0663 -0.2135
   67SAPC   H2S 5579   4.698   0.106   6.909  0.0641  0.1019 -0.5900
   67SAPC    C3 5580   4.650  -0.372   6.801 -0.1217  0.4112  0.2812
   67SAPC    HX 5581   4.745  -0.371   6.858  1.2212 -2.2385 -1.7111
   67SAPC    HY 5582   4.652  -0.459   6.732 -1.7587  0.5721 -0.0215
   67SAPC   O31 5583   4.543  -0.390   6.900  0.1224 -0.3503  0.4567
   67SAPC   C31 5584   4.431  -0.440   6.849 -0.1884 -0.4317 -0.3649
   67SAPC   O32 5585   4.413  -0.457   6.729  0.0925  0.8998  0.1638
   67SAPC   C32 5586   4.329  -0.467   6.958  0.4033  0.7720 -0.6163
   67SAPC   H2X 5587   4.298  -0.374   7.010 -3.9473 -0.7920 -0.0254
   67SAPC   H2Y 5588   4.374  -0.545   7.022  0.3040  0.3702 -1.0333
   67SAPC   C23 5589   4.517   0.157   7.012 -0.1030  0.5927 -0.2260
   67SAPC   H3R 5590   4.413   0.119   7.007 -0.1842  0.8991 -1.1230
   67SAPC   H3S 5591   4.534   0.242   6.942  0.0849  0.2599 -0.5889
   67SAPC   C24 5592   4.532   0.201   7.158  0.0434 -0.3989 -0.5440
   67SAPC   H4R 5593   4.447   0.265   7.191  2.5099  1.4411  2.8384
   67SAPC   H4S 5594   4.619   0.270   7.162 -1.1451  1.1137  0.8996
   67SAPC   C25 5595   4.532   0.079   7.256  0.3643 -0.9125  0.7246
   67SAPC   H5R 5596   4.448   0.009   7.239 -0.4430  0.1868  0.0870
   67SAPC   C26 5597   4.616   0.055   7.355  0.0475 -0.2426  0.5104
   67SAPC   H6R 5598   4.595  -0.041   7.405 -1.3457 -0.9221 -1.2440
   67SAPC   C27 5599   4.743   0.133   7.378  0.0917 -0.0136 -0.4875
   67SAPC   H7R 5600   4.784   0.171   7.281  0.0523  1.9371  0.2133
   67SAPC   H7S 5601   4.814   0.057   7.415 -0.5562 -0.4359 -0.1008
   67SAPC   C28 5602   4.731   0.246   7.475  0.2271  0.2611 -0.4060
   67SAPC   H8R 5603   4.661   0.324   7.443 -0.1356  0.1629  0.1257
   67SAPC   C29 5604   4.794   0.271   7.592  0.2845  0.1137 -0.3186
   67SAPC   H9R 5605   4.761   0.365   7.640  1.2671 -1.3196  3.5640
   67SAPC  C210 5606   4.908   0.185   7.653 -0.1943 -0.3625  0.0303
   67SAPC  H10R 5607   4.887   0.079   7.679  3.4899 -1.1286  0.3489
   67SAPC  H10S 5608   4.920   0.231   7.753 -0.3613 -0.5670  0.1474
   67SAPC  C211 5609   5.040   0.173   7.581  0.3034 -0.5778  0.4520
   67SAPC  H11R 5610   5.058   0.253   7.508  0.7814 -2.1839 -1.2784
   67SAPC  C212 5611   5.136   0.077   7.599  0.1787  0.3243  0.1064
   67SAPC  H12R 5612   5.233   0.092   7.549  0.5102  0.5606  0.8138
   67SAPC  C213 5613   5.141  -0.039   7.694  0.1266  0.7851  0.5764
   67SAPC  H13R 5614   5.088  -0.009   7.788 -0.7721 -3.0583  1.4656
   67SAPC  H13S 5615   5.243  -0.063   7.731 -0.3599  0.7982  2.0112
   67SAPC  C214 5616   5.061  -0.150   7.632  0.3378  0.1668 -0.2113
   67SAPC  H14R 5617   5.046  -0.140   7.523 -0.6168  1.4029  0.0161
   67SAPC  C215 5618   5.005  -0.253   7.707  0.1358  0.1675  0.5045
   67SAPC  H15R 5619   4.961  -0.336   7.650  1.4911 -0.1469 -0.1227
   67SAPC  C216 5620   5.010  -0.273   7.855  0.1459  0.0056  0.3833
   67SAPC  H16R 5621   5.082  -0.201   7.899  0.9315  0.5800 -1.7192
   67SAPC  H16S 5622   5.049  -0.376   7.873  0.6915 -0.3413 -2.2736
   67SAPC  C217 5623   4.878  -0.253   7.938  0.2219 -0.3439  0.3070
   67SAPC  H17R 5624   4.906  -0.273   8.044  0.7188 -1.7136 -0.0612
   67SAPC  H17S 5625   4.800  -0.322   7.900  0.9794 -1.3973  0.6024
   67SAPC  C218 5626   4.814  -0.118   7.922  0.0039  0.1412  0.2595
   67SAPC  H18R 5627   4.795  -0.083   7.819  3.0452 -0.7851 -0.7402
   67SAPC  H18S 5628   4.860  -0.028   7.969 -1.0285  0.4852  0.6335
   67SAPC  C219 5629   4.676  -0.110   7.991 -0.0144 -0.0985  0.8381
   67SAPC  H19R 5630   4.694  -0.094   8.099  0.8430  1.6436  0.4868
   67SAPC  H19S 5631   4.624  -0.206   7.974  0.2131 -0.2667  1.0857
   67SAPC  C220 5632   4.595   0.006   7.941  0.5517 -0.6550  0.5926
   67SAPC  H20R 5633   4.649   0.100   7.918  0.2271 -0.8836 -1.3154
   67SAPC  H20S 5634   4.519   0.026   8.019 -0.8383 -0.7365 -0.7026
   67SAPC  H20T 5635   4.539  -0.018   7.848  0.0644  1.2687  0.3564
   67SAPC   C33 5636   4.194  -0.513   6.891 -0.2388  0.2646 -0.1020
   67SAPC   H3X 5637   4.221  -0.590   6.816 -1.1401 -0.7229  0.5592
   67SAPC   H3Y 5638   4.160  -0.422   6.837  1.0329  0.6398 -0.2929
   67SAPC   C34 5639   4.083  -0.565   6.983  0.5564  0.0164 -0.5631
   67SAPC   H4X 5640   3.985  -0.580   6.933  0.0569  1.0062  0.0744
   67SAPC   H4Y 5641   4.055  -0.486   7.057  1.9349 -0.6463  0.7127
   67SAPC   C35 5642   4.106  -0.700   7.067 -0.3502 -0.1311  0.2033
   67SAPC   H5X 5643   4.204  -0.700   7.120 -0.4424  0.3396  0.3764
   67SAPC   H5Y 5644   4.107  -0.792   7.005 -0.6278 -2.1751  3.0163
   67SAPC   C36 5645   3.998  -0.725   7.167 -0.4615  0.0817  0.0174
   67SAPC   H6X 5646   3.987  -0.834   7.186 -1.5541  0.1440 -0.1904
   67SAPC   H6Y 5647   3.906  -0.686   7.119  1.9287  2.9557 -2.6554
   67SAPC   C37 5648   4.018  -0.659   7.303 -0.4871 -1.2684 -0.4225
   67SAPC   H7X 5649   3.919  -0.642   7.349 -0.0213 -0.4587  0.3281
   67SAPC   H7Y 5650   4.053  -0.553   7.293 -0.5568 -1.1327  0.6633
   67SAPC   C38 5651   4.129  -0.715   7.392  0.0260  0.2870  0.3059
   67SAPC   H8X 5652   4.151  -0.630   7.460  1.3367 -0.1119  0.4039
   67SAPC   H8Y 5653   4.225  -0.734   7.339  0.5829  2.2176  0.5501
   67SAPC   C39 5654   4.098  -0.842   7.469  0.2753 -0.3927  0.6647
   67SAPC   H9X 5655   4.172  -0.855   7.551  0.2704  3.6396  1.5164
   67SAPC   H9Y 5656   4.101  -0.925   7.395 -1.9153 -0.1904  0.2667
   67SAPC  C310 5657   3.958  -0.858   7.530  0.1974  0.5936  0.7122
   67SAPC  H10X 5658   3.882  -0.831   7.453  0.2732  0.9127  0.7484
   67SAPC  H10Y 5659   3.953  -0.784   7.613  0.5492 -0.4688  1.7078
   67SAPC  C311 5660   3.929  -0.999   7.598 -0.6204 -0.1853  1.0563
   67SAPC  H11X 5661   3.993  -1.072   7.544 -0.9457  0.8345 -0.8225
   67SAPC  H11Y 5662   3.823  -1.031   7.587 -0.3878 -1.2445  1.7878
   67SAPC  C312 5663   3.953  -0.996   7.748  0.1859 -1.0333  0.1384
   67SAPC  H12X 5664   3.892  -0.914   7.791  0.5653 -1.4907  1.6309
   67SAPC  H12Y 5665   4.062  -0.977   7.764 -0.1887  3.0677 -1.0791
   67SAPC  C313 5666   3.919  -1.131   7.813 -0.3246  0.1974  0.1416
   67SAPC  H13X 5667   3.967  -1.224   7.776 -2.1901 -0.6675 -0.1953
   67SAPC  H13Y 5668   3.811  -1.145   7.792 -0.5820  1.2012  0.7340
   67SAPC  C314 5669   3.903  -1.123   7.969 -0.4473 -0.0865 -0.5647
   67SAPC  H14X 5670   3.802  -1.138   8.014 -0.3072  2.1065  0.6738
   67SAPC  H14Y 5671   3.939  -1.023   8.002 -1.9179 -0.2490  1.7700
   67SAPC  C315 5672   3.991  -1.223   8.041  0.1995  0.1151  0.1051
   67SAPC  H15X 5673   4.100  -1.211   8.023 -0.1341  0.7104 -1.7513
   67SAPC  H15Y 5674   3.957  -1.324   8.009  1.2218 -2.0935  4.9858
   67SAPC  C316 5675   3.952  -1.235   8.192 -0.2755  0.8208 -0.0181
   67SAPC  H16X 5676   3.904  -1.336   8.194  1.1257  0.1175 -0.6888
   67SAPC  H16Y 5677   3.881  -1.164   8.239  0.6621  0.4251  2.1159
   67SAPC  C317 5678   4.072  -1.229   8.285 -0.7001 -0.6754  0.2955
   67SAPC  H17X 5679   4.033  -1.197   8.384 -0.1429  0.0327  0.2910
   67SAPC  H17Y 5680   4.149  -1.157   8.249  1.0441 -2.3630  0.4752
   67SAPC  C318 5681   4.146  -1.362   8.304  0.4227 -0.2489  0.4048
   67SAPC  H18X 5682   4.078  -1.444   8.336  1.2929 -1.3993 -0.5616
   67SAPC  H18Y 5683   4.228  -1.364   8.379  0.6406 -1.3039  0.1607
   67SAPC  H18Z 5684   4.195  -1.377   8.205  0.8285 -1.1517  0.7322
   68SAPC     N 5685   2.955   6.186   5.881 -0.0457 -0.2373 -0.0635
   68SAPC   C12 5686   2.863   6.074   5.919  0.1663  0.0123 -0.5478
   68SAPC  H12A 5687   2.768   6.073   5.869 -1.3729  0.4233  2.1889
   68SAPC  H12B 5688   2.839   6.095   6.022  2.2131  1.6646 -0.3277
   68SAPC   C13 5689   2.892   6.323   5.910  0.0394  0.2207 -0.0964
   68SAPC  H13A 5690   2.965   6.397   5.881  2.1244 -1.3349  0.8401
   68SAPC  H13B 5691   2.801   6.339   5.854  1.2319 -0.6771 -2.4435
   68SAPC  H13C 5692   2.866   6.332   6.014 -1.4376 -2.6242 -0.1102
   68SAPC   C14 5693   3.071   6.193   5.977  0.1821 -0.1134 -0.2315
   68SAPC  H14A 5694   3.123   6.287   5.977  1.8432 -0.9458  1.9368
   68SAPC  H14B 5695   3.032   6.179   6.077  0.7308 -0.7923 -0.1081
   68SAPC  H14C 5696   3.138   6.109   5.964 -1.2024 -1.3336  0.1748
   68SAPC   C15 5697   3.003   6.171   5.739  0.0700  0.1000  0.0365
   68SAPC  H15A 5698   2.927   6.194   5.665 -2.2446 -3.4248  1.1033
   68SAPC  H15B 5699   3.085   6.241   5.739 -1.3163  1.8455  2.3664
   68SAPC  H15C 5700   3.031   6.068   5.722 -0.0367 -0.5505  3.2108
   68SAPC   C11 5701   2.915   5.922   5.913 -0.2434  0.1157  0.3010
   68SAPC  H11A 5702   2.938   5.900   5.807 -0.5470 -1.5492  0.5543
   68SAPC  H11B 5703   2.837   5.848   5.939  0.2985 -0.7679 -0.5001
   68SAPC     P 5704   2.999   5.886   6.160 -0.2268 -0.0522 -0.0319
   68SAPC   O13 5705   2.959   6.017   6.217  0.2084 -0.5183  0.1113
   68SAPC   O14 5706   2.912   5.774   6.200 -0.0668 -0.1639 -0.0815
   68SAPC   O12 5707   3.026   5.902   6.003  0.1677 -0.2516  0.3806
   68SAPC   O11 5708   3.146   5.853   6.215 -0.0468 -0.1322 -0.5437
   68SAPC    C1 5709   3.222   5.744   6.166  0.7092 -0.4862  0.0361
   68SAPC    HA 5710   3.157   5.660   6.134  0.1516 -0.2484  0.5232
   68SAPC    HB 5711   3.284   5.777   6.080 -0.9986 -0.1021 -1.1022
   68SAPC    C2 5712   3.327   5.689   6.269  0.1554  0.2953  0.6331
   68SAPC    HS 5713   3.378   5.605   6.219 -0.6740  0.5088 -0.6157
   68SAPC   O21 5714   3.269   5.644   6.390 -0.5469  0.2699 -0.1854
   68SAPC   C21 5715   3.197   5.531   6.381  0.1191 -0.4187  0.8741
   68SAPC   O22 5716   3.209   5.455   6.288  0.0988  0.0144 -0.1088
   68SAPC   C22 5717   3.101   5.508   6.498  0.0456  0.3371 -0.2918
   68SAPC   H2R 5718   3.053   5.605   6.524 -0.6265 -0.1965  0.5326
   68SAPC   H2S 5719   3.019   5.442   6.462 -0.0285  0.0547  0.3702
   68SAPC    C3 5720   3.441   5.790   6.291 -0.2614 -0.5248 -0.1781
   68SAPC    HX 5721   3.400   5.893   6.278  0.1467 -0.2652  0.5660
   68SAPC    HY 5722   3.514   5.798   6.207 -0.6192 -1.6716 -0.6172
   68SAPC   O31 5723   3.514   5.770   6.412 -0.8053  0.2298 -0.8489
   68SAPC   C31 5724   3.601   5.669   6.418  0.2559  0.2943 -0.1659
   68SAPC   O32 5725   3.649   5.610   6.322  0.0703  0.0258  0.0655
   68SAPC   C32 5726   3.646   5.654   6.566  0.1514  0.7706  0.2923
   68SAPC   H2X 5727   3.678   5.755   6.600  1.8432  0.1304  0.7100
   68SAPC   H2Y 5728   3.730   5.581   6.574 -0.1275  0.6375  2.5384
   68SAPC   C23 5729   3.169   5.442   6.615  0.9470  0.1060  0.2509
   68SAPC   H3R 5730   3.079   5.433   6.679 -0.8910  0.4730 -2.1562
   68SAPC   H3S 5731   3.245   5.509   6.660  1.4041 -1.1852  1.4967
   68SAPC   C24 5732   3.242   5.312   6.592  0.4342 -0.2894 -0.4081
   68SAPC   H4R 5733   3.280   5.264   6.685 -1.1263  0.1831  0.4961
   68SAPC   H4S 5734   3.332   5.328   6.528  1.0595 -0.7450  0.3419
   68SAPC   C25 5735   3.147   5.221   6.515 -0.8365 -0.0892 -0.1445
   68SAPC   H5R 5736   3.131   5.254   6.411 -0.0285 -1.1087 -0.6165
   68SAPC   C26 5737   3.097   5.099   6.550 -0.0605 -0.0973  0.1298
   68SAPC   H6R 5738   3.029   5.050   6.479 -1.4273  0.9163  0.6856
   68SAPC   C27 5739   3.103   5.026   6.679  0.4888 -0.5387 -0.3297
   68SAPC   H7R 5740   3.210   5.004   6.696  0.5969 -0.6720 -1.1546
   68SAPC   H7S 5741   3.050   4.931   6.658  0.6193 -0.7129  0.1130
   68SAPC   C28 5742   3.033   5.098   6.791  0.2852  0.4580  0.0638
   68SAPC   H8R 5743   2.939   5.149   6.763  0.7229  0.4893 -1.4366
   68SAPC   C29 5744   3.088   5.128   6.911 -0.1377 -0.5259  0.8606
   68SAPC   H9R 5745   3.029   5.200   6.969  0.8295  1.5066 -0.5401
   68SAPC  C210 5746   3.225   5.099   6.962 -0.1623  0.2272  0.2637
   68SAPC  H10R 5747   3.259   5.173   7.037  3.3653 -0.0767 -0.8246
   68SAPC  H10S 5748   3.295   5.107   6.876  0.4362 -3.3806  0.2731
   68SAPC  C211 5749   3.231   4.957   7.004 -0.2117 -0.2512 -0.0383
   68SAPC  H11R 5750   3.247   4.886   6.921 -0.8600 -2.6671  1.7780
   68SAPC  C212 5751   3.212   4.909   7.128 -0.0672  0.7544 -0.1165
   68SAPC  H12R 5752   3.194   4.801   7.136 -2.3136  0.8776 -2.2029
   68SAPC  C213 5753   3.172   4.989   7.254  0.6413  1.0489 -0.1938
   68SAPC  H13R 5754   3.086   5.048   7.217 -0.2017 -0.1154 -0.1344
   68SAPC  H13S 5755   3.253   5.064   7.267  3.0317 -1.4270  0.1997
   68SAPC  C214 5756   3.153   4.916   7.388 -0.2590 -0.1339 -0.1698
   68SAPC  H14R 5757   3.052   4.882   7.417  0.4392 -3.3945 -1.2219
   68SAPC  C215 5758   3.247   4.885   7.477  0.0584 -0.4096 -0.2693
   68SAPC  H15R 5759   3.221   4.828   7.567  3.4681 -0.7438  0.6240
   68SAPC  C216 5760   3.393   4.922   7.459 -0.2996 -0.3946  0.1395
   68SAPC  H16R 5761   3.415   4.928   7.351 -0.3519 -1.3554  0.0597
   68SAPC  H16S 5762   3.463   4.839   7.486 -0.6757 -1.1773 -1.2067
   68SAPC  C217 5763   3.426   5.057   7.526 -0.0412 -0.7395  0.2093
   68SAPC  H17R 5764   3.371   5.138   7.473 -0.8785 -0.4215  1.5115
   68SAPC  H17S 5765   3.532   5.080   7.500 -0.5564 -0.9572 -2.4300
   68SAPC  C218 5766   3.405   5.066   7.678  0.0507 -0.6323 -0.7965
   68SAPC  H18R 5767   3.296   5.061   7.699  0.3649  1.2142  1.8629
   68SAPC  H18S 5768   3.426   5.170   7.710 -0.7268 -0.8609  0.5461
   68SAPC  C219 5769   3.482   4.965   7.762  0.8354 -0.8356  0.2511
   68SAPC  H19R 5770   3.426   4.869   7.755  0.4637 -0.5523 -0.9765
   68SAPC  H19S 5771   3.464   5.007   7.863 -2.7266  0.3535 -0.7253
   68SAPC  C220 5772   3.627   4.932   7.730  0.0685 -0.0384 -0.2283
   68SAPC  H20R 5773   3.687   5.026   7.724  1.6304 -1.0861 -2.1869
   68SAPC  H20S 5774   3.634   4.895   7.626 -0.4536  1.6335 -0.8949
   68SAPC  H20T 5775   3.670   4.867   7.810  0.6231 -1.6717 -1.7876
   68SAPC   C33 5776   3.534   5.602   6.666 -0.3693 -0.1790 -0.8812
   68SAPC   H3X 5777   3.507   5.504   6.620  1.2056 -1.8495  1.5038
   68SAPC   H3Y 5778   3.459   5.683   6.672  1.7029  1.6958  3.1411
   68SAPC   C34 5779   3.583   5.574   6.805 -0.0795 -0.4112  0.1479
   68SAPC   H4X 5780   3.628   5.667   6.845 -0.3461  0.3490 -1.2433
   68SAPC   H4Y 5781   3.658   5.492   6.798 -0.8207 -1.0041 -1.4483
   68SAPC   C35 5782   3.467   5.539   6.901 -0.2139  0.2972  0.1927
   68SAPC   H5X 5783   3.416   5.448   6.864  0.3016 -0.3246  0.9738
   68SAPC   H5Y 5784   3.396   5.624   6.894  0.4956  0.7836 -2.5711
   68SAPC   C36 5785   3.499   5.506   7.050  0.0488  0.2551  0.6039
   68SAPC   H6X 5786   3.552   5.589   7.100 -1.7400  1.4779  0.5911
   68SAPC   H6Y 5787   3.584   5.436   7.046  0.6752  1.0480 -0.8362
   68SAPC   C37 5788   3.379   5.471   7.144 -0.0016 -0.3093 -0.4523
   68SAPC   H7X 5789   3.356   5.364   7.126  1.6674 -0.9137  0.6938
   68SAPC   H7Y 5790   3.290   5.537   7.139 -0.6726 -1.2398 -1.1514
   68SAPC   C38 5791   3.422   5.470   7.295  0.8019  0.1023  0.2169
   68SAPC   H8X 5792   3.444   5.575   7.327  0.5879  0.7673 -1.6811
   68SAPC   H8Y 5793   3.503   5.398   7.318  1.1702  0.0928 -1.0057
   68SAPC   C39 5794   3.301   5.415   7.370 -0.4650  0.6563 -0.3018
   68SAPC   H9X 5795   3.283   5.305   7.359  0.7536  0.1695  1.9720
   68SAPC   H9Y 5796   3.203   5.455   7.335 -2.1292 -1.3942  1.6360
   68SAPC  C310 5797   3.323   5.442   7.521  0.5651  0.5509 -0.0217
   68SAPC  H10X 5798   3.365   5.545   7.522  2.4198 -0.1610 -0.2334
   68SAPC  H10Y 5799   3.401   5.367   7.549 -1.1918 -1.5222 -0.4098
   68SAPC  C311 5800   3.197   5.414   7.599  0.7428 -0.5235  0.4507
   68SAPC  H11X 5801   3.160   5.315   7.563  1.5453 -0.5499 -0.3284
   68SAPC  H11Y 5802   3.115   5.484   7.572  0.9601 -0.0623  0.9750
   68SAPC  C312 5803   3.235   5.424   7.747  0.1680 -0.1717  1.0665
   68SAPC  H12X 5804   3.269   5.524   7.780  1.5659 -0.6281  1.0447
   68SAPC  H12Y 5805   3.326   5.361   7.757  0.4769  0.2694  1.0789
   68SAPC  C313 5806   3.127   5.371   7.842  0.4556  0.1021 -0.3111
   68SAPC  H13X 5807   3.085   5.280   7.794 -0.1281  0.8423 -1.2403
   68SAPC  H13Y 5808   3.052   5.453   7.840  0.2833 -0.0639 -1.2422
   68SAPC  C314 5809   3.179   5.345   7.982 -0.6527 -0.1651  0.5040
   68SAPC  H14X 5810   3.098   5.332   8.058 -0.4636  3.3425  1.4764
   68SAPC  H14Y 5811   3.237   5.431   8.023  2.7165 -1.4959 -1.0944
   68SAPC  C315 5812   3.277   5.224   7.989  0.2842  0.6521 -0.2194
   68SAPC  H15X 5813   3.363   5.233   7.919  1.0166 -1.1095  0.4064
   68SAPC  H15Y 5814   3.225   5.133   7.952  1.3166 -0.3579  0.7564
   68SAPC  C316 5815   3.342   5.188   8.120 -0.2204 -0.1054 -0.5024
   68SAPC  H16X 5816   3.274   5.178   8.207  1.9700  2.0518  1.6135
   68SAPC  H16Y 5817   3.407   5.272   8.151 -3.1762  1.4569  2.0657
   68SAPC  C317 5818   3.441   5.072   8.112 -0.2752 -0.5194 -0.9192
   68SAPC  H17X 5819   3.518   5.102   8.038  0.5373  0.6306  0.3389
   68SAPC  H17Y 5820   3.375   4.998   8.062 -0.1738 -1.7229  0.6348
   68SAPC  C318 5821   3.496   5.013   8.235 -0.1576  0.6086  0.5576
   68SAPC  H18X 5822   3.583   4.946   8.215 -1.2029 -1.1779  1.8052
   68SAPC  H18Y 5823   3.429   4.968   8.311  1.0125  0.6973  1.6704
   68SAPC  H18Z 5824   3.534   5.096   8.299  3.1135 -0.2460 -0.0690
   69SLPC     N 5825   1.721   3.147  11.461 -0.0406  0.2049 -0.4013
   69SLPC   C13 5826   1.585   3.085  11.485  0.0019 -0.7400  0.1840
   69SLPC  H13A 5827   1.565   3.059  11.588 -0.9401  0.2503  0.2755
   69SLPC  H13B 5828   1.503   3.150  11.458 -0.9487 -0.6682  2.9366
   69SLPC  H13C 5829   1.571   2.994  11.429 -0.4690 -0.7770  0.3575
   69SLPC   C14 5830   1.815   3.074  11.558 -0.6804 -0.1738  0.0430
   69SLPC  H14A 5831   1.816   3.116  11.657  2.0912 -0.2407  0.1158
   69SLPC  H14B 5832   1.811   2.967  11.570  0.6155 -0.0720  1.6513
   69SLPC  H14C 5833   1.913   3.093  11.516  0.0875  0.2444  1.9574
   69SLPC   C15 5834   1.715   3.288  11.504 -0.4451 -0.4773 -0.0896
   69SLPC  H15A 5835   1.663   3.355  11.437  0.1377  1.0801  0.9452
   69SLPC  H15B 5836   1.665   3.296  11.600 -1.4171 -0.8371 -0.5628
   69SLPC  H15C 5837   1.817   3.323  11.515 -0.4339 -0.7037  0.5616
   69SLPC   C12 5838   1.761   3.140  11.315 -0.1813 -0.5679  0.7197
   69SLPC  H12A 5839   1.791   3.042  11.281  0.0437  0.8182 -3.6403
   69SLPC  H12B 5840   1.856   3.193  11.309 -0.7029  0.3999  0.7762
   69SLPC   C11 5841   1.667   3.216  11.218  0.7245 -0.2587  0.3180
   69SLPC  H11A 5842   1.565   3.186  11.251 -0.0090  1.3110 -0.3775
   69SLPC  H11B 5843   1.676   3.176  11.115  1.4078  1.9016 -0.5214
   69SLPC     P 5844   1.796   3.439  11.154  0.1834  0.1668 -0.0527
   69SLPC   O13 5845   1.737   3.570  11.122 -0.2807  0.0216 -0.5636
   69SLPC   O14 5846   1.914   3.444  11.240  0.1256  0.2282 -0.0631
   69SLPC   O12 5847   1.683   3.356  11.227 -0.4453 -0.3425  0.6873
   69SLPC   O11 5848   1.830   3.366  11.018  0.0907 -0.3357 -0.0356
   69SLPC    C1 5849   1.928   3.418  10.927  0.5824 -0.2469  0.3534
   69SLPC    HA 5850   1.986   3.506  10.960  0.5548  1.1960 -2.9932
   69SLPC    HB 5851   2.007   3.341  10.912 -0.3876 -1.3969  0.9965
   69SLPC    C2 5852   1.860   3.467  10.791 -0.4112  0.1785  0.7208
   69SLPC    HS 5853   1.754   3.481  10.822 -1.0580 -0.3324 -1.1335
   69SLPC   O21 5854   1.886   3.370  10.689 -0.4773 -0.0860 -0.6712
   69SLPC   C21 5855   1.787   3.283  10.677 -0.2362 -0.5369 -0.2486
   69SLPC   O22 5856   1.680   3.291  10.736  0.5264 -0.1519  0.1200
   69SLPC   C22 5857   1.825   3.182  10.563  0.6052  0.8982  0.2946
   69SLPC   H2R 5858   1.930   3.152  10.586  0.0824 -0.3804  1.0620
   69SLPC   H2S 5859   1.753   3.099  10.573  0.6890  0.5644 -1.5739
   69SLPC    C3 5860   1.913   3.604  10.748  0.2636 -1.1340  0.3285
   69SLPC    HX 5861   2.022   3.605  10.764  0.5113  1.2122 -1.0393
   69SLPC    HY 5862   1.888   3.679  10.826 -1.4398 -1.8974  0.5678
   69SLPC   O31 5863   1.880   3.643  10.613 -0.1987 -0.3713 -0.4317
   69SLPC   C31 5864   1.963   3.609  10.521  0.5520 -0.7377  0.3874
   69SLPC   O32 5865   2.075   3.573  10.533  0.0061  0.2559 -0.8897
   69SLPC   C32 5866   1.890   3.631  10.386 -0.1788  0.5730 -0.0602
   69SLPC   H2X 5867   1.815   3.708  10.412  0.3923  1.1209  0.0054
   69SLPC   H2Y 5868   1.828   3.539  10.375 -0.0627 -0.0271  3.0989
   69SLPC   C23 5869   1.801   3.237  10.415 -0.7045 -0.6117  1.2118
   69SLPC   H3R 5870   1.863   3.329  10.409 -0.5222 -0.8191 -0.5430
   69SLPC   H3S 5871   1.697   3.276  10.413 -0.0827  1.1484 -0.2492
   69SLPC   C24 5872   1.846   3.139  10.306  0.1876  0.2060  0.2159
   69SLPC   H4R 5873   1.772   3.061  10.278  0.4407  0.1133 -0.2067
   69SLPC   H4S 5874   1.938   3.080  10.328 -0.5655 -0.9217  0.4387
   69SLPC   C25 5875   1.862   3.231  10.182  0.3273  0.5173 -0.4134
   69SLPC   H5R 5876   1.919   3.323  10.204 -0.9817  0.8697  1.8011
   69SLPC   H5S 5877   1.758   3.252  10.149  0.4801  0.9650 -0.6089
   69SLPC   C26 5878   1.928   3.160  10.056 -0.1448 -0.7495 -0.0773
   69SLPC   H6R 5879   2.013   3.102  10.097  1.1325  0.4641 -0.9189
   69SLPC   H6S 5880   1.959   3.239   9.984 -2.2043 -0.6595 -0.9559
   69SLPC   C27 5881   1.830   3.072   9.978  0.6138  1.5039 -0.0332
   69SLPC   H7R 5882   1.749   3.133   9.934 -1.4765  0.4340  2.0613
   69SLPC   H7S 5883   1.773   3.017  10.057  1.5415  1.5783  0.7091
   69SLPC   C28 5884   1.896   2.996   9.858 -0.2878  0.3319 -0.3488
   69SLPC   H8R 5885   1.979   2.930   9.892  0.5734  1.2538 -0.6090
   69SLPC   H8S 5886   1.958   3.064   9.795  1.3572 -1.0454 -0.3027
   69SLPC   C29 5887   1.796   2.918   9.781  0.8671  0.2410 -0.2913
   69SLPC   H9R 5888   1.725   2.859   9.842 -1.3035  0.9781 -1.9919
   69SLPC  C210 5889   1.781   2.909   9.647 -0.0413 -0.2873  0.3077
   69SLPC  H10R 5890   1.700   2.847   9.605 -0.1689 -0.5134  0.8801
   69SLPC  C211 5891   1.858   2.985   9.534  0.0590  0.4352 -0.6464
   69SLPC  H11R 5892   1.968   2.966   9.539 -0.1738 -0.7256  0.5356
   69SLPC  H11S 5893   1.852   3.094   9.557 -1.1425 -0.1249  1.9752
   69SLPC  C212 5894   1.794   2.962   9.399 -0.5058  0.3528  0.1620
   69SLPC  H12R 5895   1.687   2.986   9.395 -0.1616  1.8579 -1.0419
   69SLPC  C213 5896   1.864   2.923   9.294 -0.4277 -0.1249 -0.0734
   69SLPC  H13R 5897   1.818   2.929   9.194  1.2964  0.3568 -0.8776
   69SLPC  C214 5898   2.009   2.899   9.286  0.7038  1.0903  0.0238
   69SLPC  H14R 5899   2.026   2.824   9.206  0.8848  0.9986  0.1485
   69SLPC  H14S 5900   2.052   2.870   9.385 -0.9599 -4.3485 -0.5301
   69SLPC  C215 5901   2.104   3.005   9.235  0.1476  0.7237 -0.3508
   69SLPC  H15R 5902   2.209   2.978   9.257  0.8073  4.1120  1.2632
   69SLPC  H15S 5903   2.092   3.093   9.301 -2.4125 -1.4734  2.3929
   69SLPC  C216 5904   2.085   3.038   9.082 -0.1081  0.6441  0.0393
   69SLPC  H16R 5905   2.126   3.139   9.059  0.7722  0.0383 -1.1653
   69SLPC  H16S 5906   1.975   3.045   9.064  0.1906  3.9155 -1.3079
   69SLPC  C217 5907   2.145   2.932   8.992  0.0671 -0.7926  0.1091
   69SLPC  H17R 5908   2.131   2.965   8.887  0.1695 -0.1610  0.2913
   69SLPC  H17S 5909   2.111   2.826   8.999  0.0611 -0.8538 -0.6861
   69SLPC  C218 5910   2.300   2.931   9.005 -0.0235 -0.1241 -0.7116
   69SLPC  H18R 5911   2.339   2.860   8.929 -1.4464  1.4044 -3.0187
   69SLPC  H18S 5912   2.338   2.906   9.106  0.0024  3.4279  0.2735
   69SLPC  H18T 5913   2.344   3.028   8.975 -2.3965  0.5008 -2.5452
   69SLPC   C33 5914   1.993   3.662  10.267 -0.2232  0.0931 -0.2246
   69SLPC   H3X 5915   2.054   3.570  10.250  2.4944  1.7729 -0.2570
   69SLPC   H3Y 5916   2.062   3.748  10.285 -1.9731  2.6846 -4.3254
   69SLPC   C34 5917   1.911   3.690  10.134  0.0794 -0.5532  0.2463
   69SLPC   H4X 5918   1.838   3.767  10.168  1.9169  1.5891 -0.3528
   69SLPC   H4Y 5919   1.864   3.593  10.109  3.2293 -1.9120 -0.9345
   69SLPC   C35 5920   1.997   3.749  10.016 -0.3317 -0.5302  0.2164
   69SLPC   H5X 5921   2.083   3.682   9.995 -1.5369 -1.7609 -0.9757
   69SLPC   H5Y 5922   2.037   3.850  10.041 -2.0030 -0.2704  2.0845
   69SLPC   C36 5923   1.912   3.770   9.890  0.0039 -0.0850  0.4115
   69SLPC   H6X 5924   1.839   3.850   9.913  1.8014  1.5250  0.8574
   69SLPC   H6Y 5925   1.868   3.673   9.858  0.5114  0.0542 -0.7992
   69SLPC   C37 5926   2.002   3.830   9.781  0.0923  0.3913  0.2947
   69SLPC   H7X 5927   2.097   3.773   9.785  1.2363  2.3076  2.5192
   69SLPC   H7Y 5928   2.037   3.934   9.799 -2.1803  1.3323 -0.4108
   69SLPC   C38 5929   1.942   3.819   9.634 -0.3458 -0.8873  0.0508
   69SLPC   H8X 5930   1.844   3.872   9.631  0.4074  0.5806  0.6766
   69SLPC   H8Y 5931   1.932   3.715   9.594 -0.1703 -0.6576 -0.5943
   69SLPC   C39 5932   2.029   3.891   9.529 -0.3909  0.1699  0.1663
   69SLPC   H9X 5933   2.139   3.876   9.534 -0.3562  0.7157  1.3297
   69SLPC   H9Y 5934   2.005   3.998   9.549 -0.3531  0.2526 -0.2243
   69SLPC  C310 5935   1.985   3.840   9.387 -0.7759 -0.4700  0.2711
   69SLPC  H10X 5936   1.875   3.845   9.369 -0.3757  0.3050 -2.3713
   69SLPC  H10Y 5937   2.006   3.731   9.382 -2.0685 -0.7358  0.0525
   69SLPC  C311 5938   2.056   3.916   9.273  0.1950 -0.7051  0.5326
   69SLPC  H11X 5939   2.165   3.901   9.282  0.7715  1.2486 -1.9387
   69SLPC  H11Y 5940   2.051   4.027   9.273 -2.2649 -0.7603  1.3097
   69SLPC  C312 5941   2.011   3.858   9.134 -0.0085  0.3513  0.1379
   69SLPC  H12X 5942   1.904   3.826   9.127 -0.3239  0.9585  1.8131
   69SLPC  H12Y 5943   2.063   3.763   9.111  0.1691  0.4863 -0.0252
   69SLPC  C313 5944   2.027   3.959   9.013 -0.8421  0.0314  0.0198
   69SLPC  H13X 5945   2.117   4.022   9.028 -0.2973 -0.7480  0.0456
   69SLPC  H13Y 5946   1.933   4.019   9.008 -1.4054 -0.7548  0.8316
   69SLPC  C314 5947   2.038   3.887   8.876  0.4267 -0.3191  0.7410
   69SLPC  H14X 5948   1.943   3.832   8.860 -0.1342  0.2258  2.0467
   69SLPC  H14Y 5949   2.123   3.816   8.865 -1.2494 -2.6012  1.7501
   69SLPC  C315 5950   2.035   3.996   8.756  0.0316 -0.0178  0.1992
   69SLPC  H15X 5951   1.949   4.062   8.780 -0.2873  0.2011 -1.4704
   69SLPC  H15Y 5952   2.005   3.939   8.666 -0.6529 -0.1723  0.5210
   69SLPC  C316 5953   2.171   4.061   8.741 -0.3986  0.4401 -0.0539
   69SLPC  H16X 5954   2.232   3.982   8.693 -2.2453 -0.9491 -0.2450
   69SLPC  H16Y 5955   2.214   4.092   8.839  2.3748  0.5478 -1.2314
   69SLPC  C317 5956   2.159   4.181   8.655  0.3043  0.5439 -0.6123
   69SLPC  H17X 5957   2.257   4.192   8.603  0.6200  1.6277  0.1832
   69SLPC  H17Y 5958   2.144   4.264   8.727  0.9533 -1.0912  1.5324
   69SLPC  C318 5959   2.049   4.181   8.550  0.0083  0.1635 -0.6116
   69SLPC  H18X 5960   2.074   4.098   8.480  2.9012  0.3319  0.0900
   69SLPC  H18Y 5961   2.045   4.280   8.500  1.5772  0.9864  0.8006
   69SLPC  H18Z 5962   1.945   4.169   8.587  0.5306  0.1658  0.9314
   70SLPC     N 5963   1.700   1.144  11.124 -0.3901 -0.0095  0.1258
   70SLPC   C13 5964   1.612   1.170  11.241  0.6670 -1.0999 -0.1475
   70SLPC  H13A 5965   1.632   1.105  11.324 -2.0049  0.3457  1.7744
   70SLPC  H13B 5966   1.631   1.267  11.283 -0.0531 -1.3260  0.7132
   70SLPC  H13C 5967   1.507   1.155  11.218 -0.2905  1.7017  1.8644
   70SLPC   C14 5968   1.721   0.998  11.102  0.3859  0.0070 -0.4731
   70SLPC  H14A 5969   1.798   0.978  11.029  1.9697  0.1168  1.0895
   70SLPC  H14B 5970   1.757   0.953  11.193 -0.2007  1.3996  0.4807
   70SLPC  H14C 5971   1.623   0.954  11.094  0.8763 -1.3820  0.7584
   70SLPC   C15 5972   1.826   1.214  11.161 -0.2901  0.1204 -0.1751
   70SLPC  H15A 5973   1.907   1.181  11.098  0.8561  1.5771  0.4517
   70SLPC  H15B 5974   1.807   1.321  11.161 -2.7914 -0.2557  1.0234
   70SLPC  H15C 5975   1.869   1.187  11.256  2.2890  0.8849 -1.0279
   70SLPC   C12 5976   1.645   1.214  11.001  0.0104 -0.1923  0.3759
   70SLPC  H12A 5977   1.615   1.315  11.024 -0.6742 -1.1436  4.3283
   70SLPC  H12B 5978   1.548   1.168  10.990  0.1827 -0.8235  1.4344
   70SLPC   C11 5979   1.730   1.219  10.871 -0.1238 -0.2295  0.2838
   70SLPC  H11A 5980   1.836   1.242  10.895  0.0109  0.0801 -0.5609
   70SLPC  H11B 5981   1.690   1.301  10.807  0.0754 -1.3397 -1.3372
   70SLPC     P 5982   1.607   1.043  10.700 -0.0911 -0.0700  0.4892
   70SLPC   O13 5983   1.634   0.901  10.667 -0.4696  0.6728 -0.2361
   70SLPC   O14 5984   1.478   1.073  10.766  0.0063 -0.2290  0.3084
   70SLPC   O12 5985   1.716   1.092  10.798 -0.2857 -0.2379 -0.4807
   70SLPC   O11 5986   1.640   1.143  10.579 -0.3393 -0.5015 -0.0128
   70SLPC    C1 5987   1.769   1.197  10.546 -0.6508 -0.0022  0.5229
   70SLPC    HA 5988   1.772   1.305  10.570  1.2408 -0.0031  0.4316
   70SLPC    HB 5989   1.858   1.150  10.594 -0.9383 -1.4751 -0.3145
   70SLPC    C2 5990   1.798   1.174  10.400  0.4339 -1.1424  0.1963
   70SLPC    HS 5991   1.897   1.217  10.378  0.4984 -1.4498 -0.1309
   70SLPC   O21 5992   1.701   1.245  10.315  0.1568 -0.3556 -0.5411
   70SLPC   C21 5993   1.711   1.377  10.297  0.0987 -0.3203 -0.7177
   70SLPC   O22 5994   1.789   1.449  10.357  0.0730  0.5429  0.2147
   70SLPC   C22 5995   1.628   1.421  10.176 -0.5198  0.1236  0.2894
   70SLPC   H2R 5996   1.521   1.404  10.196 -0.3804 -1.6798 -0.3441
   70SLPC   H2S 5997   1.652   1.529  10.165  0.4723 -0.2814 -2.4471
   70SLPC    C3 5998   1.792   1.028  10.353  0.3230  0.5578 -0.2809
   70SLPC    HX 5999   1.687   0.995  10.365 -0.0092  2.4172  3.7260
   70SLPC    HY 6000   1.863   0.973  10.419 -1.2693 -1.4432 -0.1553
   70SLPC   O31 6001   1.833   1.023  10.218 -0.1781  0.5324  0.4284
   70SLPC   C31 6002   1.756   0.969  10.123 -0.4760 -0.3772  0.6740
   70SLPC   O32 6003   1.658   0.903  10.145  0.1608  0.8124 -0.5433
   70SLPC   C32 6004   1.804   0.988   9.973 -0.0005 -0.4852 -0.9075
   70SLPC   H2X 6005   1.908   0.950   9.973  0.1304 -0.1709  0.3360
   70SLPC   H2Y 6006   1.785   1.094   9.944 -3.7199 -0.8071 -0.2250
   70SLPC   C23 6007   1.671   1.348  10.044  1.0200 -0.7135  0.2708
   70SLPC   H3R 6008   1.620   1.249  10.050 -0.2885 -0.1584 -1.1021
   70SLPC   H3S 6009   1.779   1.328  10.028  0.8305 -0.9033 -0.8699
   70SLPC   C24 6010   1.600   1.424   9.925  0.2840 -0.5463  0.1991
   70SLPC   H4R 6011   1.642   1.526   9.920 -0.9825 -0.0814 -1.7497
   70SLPC   H4S 6012   1.490   1.434   9.941  0.0475 -2.5745  0.1421
   70SLPC   C25 6013   1.615   1.354   9.784 -0.2760 -0.0405 -0.0621
   70SLPC   H5R 6014   1.558   1.259   9.793  1.9705 -1.3161  1.6438
   70SLPC   H5S 6015   1.718   1.318   9.763 -0.7255 -0.5691 -1.4589
   70SLPC   C26 6016   1.569   1.427   9.659  0.3485 -0.6649 -0.3133
   70SLPC   H6R 6017   1.618   1.526   9.649  0.6324 -0.6138  1.3774
   70SLPC   H6S 6018   1.462   1.451   9.676 -0.0373 -1.6915 -1.1333
   70SLPC   C27 6019   1.586   1.336   9.529 -0.0276 -0.5425 -0.6257
   70SLPC   H7R 6020   1.568   1.231   9.561 -0.8605 -0.4526 -0.7981
   70SLPC   H7S 6021   1.691   1.346   9.492 -0.9755  2.5424 -2.8138
   70SLPC   C28 6022   1.479   1.348   9.406 -0.6052  0.3708 -0.0750
   70SLPC   H8R 6023   1.381   1.336   9.456 -0.5993  0.3534 -0.0669
   70SLPC   H8S 6024   1.492   1.270   9.329 -2.9786  1.5567 -1.8230
   70SLPC   C29 6025   1.489   1.483   9.329 -0.8888  0.0893  0.3770
   70SLPC   H9R 6026   1.520   1.564   9.397  3.5038  0.3872 -1.6469
   70SLPC  C210 6027   1.453   1.500   9.204  0.0179  0.7884 -0.0919
   70SLPC  H10R 6028   1.458   1.600   9.159 -1.1268  1.6912  1.6240
   70SLPC  C211 6029   1.409   1.398   9.100 -0.1688 -0.8829 -0.2739
   70SLPC  H11R 6030   1.405   1.299   9.150 -1.0203 -0.5336  0.3681
   70SLPC  H11S 6031   1.492   1.390   9.026 -1.3334 -2.5739 -1.4818
   70SLPC  C212 6032   1.280   1.437   9.028 -0.4887 -0.6114 -0.2982
   70SLPC  H12R 6033   1.188   1.391   9.069  0.4821 -1.9995  0.4131
   70SLPC  C213 6034   1.277   1.516   8.911 -0.1533  0.5157  0.0411
   70SLPC  H13R 6035   1.179   1.529   8.864 -0.0570 -1.5443 -0.8404
   70SLPC  C214 6036   1.391   1.578   8.832 -0.3225  0.3708  0.0017
   70SLPC  H14R 6037   1.391   1.536   8.729  1.1189  0.2369  0.0429
   70SLPC  H14S 6038   1.488   1.550   8.878 -0.3416 -1.7798 -1.1210
   70SLPC  C215 6039   1.383   1.733   8.824  0.1680 -0.3552 -0.6579
   70SLPC  H15R 6040   1.371   1.774   8.927  1.1049  0.5036 -0.8745
   70SLPC  H15S 6041   1.293   1.765   8.768  0.6787 -1.7047 -2.3420
   70SLPC  C216 6042   1.493   1.802   8.755 -0.3865 -0.6641 -0.1217
   70SLPC  H16R 6043   1.591   1.785   8.805 -0.8473  1.9686  1.8872
   70SLPC  H16S 6044   1.477   1.911   8.746 -0.7633 -0.7530 -0.5726
   70SLPC  C217 6045   1.500   1.759   8.611 -0.5662  0.6198  0.1187
   70SLPC  H17R 6046   1.406   1.790   8.560 -1.2780 -0.0107  1.0256
   70SLPC  H17S 6047   1.511   1.649   8.620  0.1234  0.8158  2.1491
   70SLPC  C218 6048   1.622   1.808   8.527 -0.0962  0.2223 -0.2448
   70SLPC  H18R 6049   1.628   1.918   8.519 -1.2965  0.2842 -0.6173
   70SLPC  H18S 6050   1.620   1.754   8.430 -2.6047 -0.2252 -0.0264
   70SLPC  H18T 6051   1.720   1.784   8.572  0.2117  2.2815  0.2759
   70SLPC   C33 6052   1.724   0.899   9.874 -0.0312 -0.1663  0.8228
   70SLPC   H3X 6053   1.617   0.920   9.899  0.6732  1.6418  2.5986
   70SLPC   H3Y 6054   1.739   0.792   9.899  1.2329  0.0368  0.9681
   70SLPC   C34 6055   1.741   0.941   9.727  0.2572  0.8968 -0.1742
   70SLPC   H4X 6056   1.841   0.904   9.697 -0.0762  0.5267 -0.8338
   70SLPC   H4Y 6057   1.747   1.051   9.712  2.4889  0.5148 -2.6467
   70SLPC   C35 6058   1.644   0.861   9.641  1.0897 -0.3714 -0.3284
   70SLPC   H5X 6059   1.540   0.897   9.655  1.1252 -0.0406 -0.8717
   70SLPC   H5Y 6060   1.642   0.756   9.675 -4.7972 -0.0270  1.4172
   70SLPC   C36 6061   1.677   0.856   9.494  0.2184  0.4134 -0.3355
   70SLPC   H6X 6062   1.614   0.776   9.449  1.6486  0.5838 -2.8181
   70SLPC   H6Y 6063   1.777   0.822   9.460 -0.9426 -0.3112 -3.3997
   70SLPC   C37 6064   1.660   0.987   9.416  0.3716  0.0965  0.4059
   70SLPC   H7X 6065   1.731   1.066   9.446  1.3010  0.1374 -1.7262
   70SLPC   H7Y 6066   1.557   1.026   9.432 -0.4082 -1.3944 -0.7507
   70SLPC   C38 6067   1.679   0.957   9.266 -0.2149 -0.1558 -0.5594
   70SLPC   H8X 6068   1.746   0.872   9.243 -0.1270  0.3665 -2.3384
   70SLPC   H8Y 6069   1.735   1.039   9.217  1.5739 -1.3444 -0.5936
   70SLPC   C39 6070   1.534   0.944   9.208 -0.0068  0.5209 -0.1888
   70SLPC   H9X 6071   1.455   1.012   9.247 -1.2321  1.5137 -3.9951
   70SLPC   H9Y 6072   1.497   0.840   9.224  1.0050  0.2320  0.3716
   70SLPC  C310 6073   1.547   0.973   9.054  0.4323 -0.2712  0.1793
   70SLPC  H10X 6074   1.585   1.077   9.049 -1.9071  0.5999 -1.4163
   70SLPC  H10Y 6075   1.444   0.977   9.011 -0.3362 -1.7862  1.7460
   70SLPC  C311 6076   1.638   0.871   8.990  0.0687  0.6135 -0.0623
   70SLPC  H11X 6077   1.604   0.769   9.017 -0.0183  0.6994  0.1583
   70SLPC  H11Y 6078   1.743   0.880   9.024  0.5457 -1.0522 -0.9953
   70SLPC  C312 6079   1.631   0.882   8.837  0.1400  0.7255 -0.3765
   70SLPC  H12X 6080   1.726   0.837   8.800  0.2817  1.3019 -0.7268
   70SLPC  H12Y 6081   1.639   0.989   8.809 -0.4498  0.5289 -1.3240
   70SLPC  C313 6082   1.510   0.816   8.763 -0.7148 -0.9003 -0.4236
   70SLPC  H13X 6083   1.501   0.865   8.663 -0.0302 -0.3520 -0.2209
   70SLPC  H13Y 6084   1.416   0.839   8.817 -1.3575  0.6130 -2.0614
   70SLPC  C314 6085   1.502   0.663   8.738  0.0610  0.2158 -0.5833
   70SLPC  H14X 6086   1.408   0.646   8.683 -0.1416 -0.8635  0.0777
   70SLPC  H14Y 6087   1.501   0.614   8.838  0.0141 -1.9845 -1.6246
   70SLPC  C315 6088   1.626   0.608   8.667 -0.1017  0.3894  0.4405
   70SLPC  H15X 6089   1.691   0.570   8.749 -2.7119 -2.1044  1.5583
   70SLPC  H15Y 6090   1.683   0.680   8.605  1.5571 -2.2841 -1.3791
   70SLPC  C316 6091   1.594   0.489   8.569 -0.2788  0.6763  0.0796
   70SLPC  H16X 6092   1.680   0.464   8.503 -0.8202 -3.8360  0.7664
   70SLPC  H16Y 6093   1.515   0.536   8.506 -0.2357  1.0366  0.2889
   70SLPC  C317 6094   1.566   0.363   8.651  0.4157 -0.2008  0.0114
   70SLPC  H17X 6095   1.483   0.378   8.723 -0.0690 -0.7790 -0.4180
   70SLPC  H17Y 6096   1.654   0.332   8.712  0.1336 -3.5419 -1.0540
   70SLPC  C318 6097   1.528   0.242   8.559 -0.1673  0.2677 -0.8311
   70SLPC  H18X 6098   1.425   0.268   8.528 -0.1364  3.3597  1.2173
   70SLPC  H18Y 6099   1.530   0.146   8.615  1.2598 -0.9592 -2.8371
   70SLPC  H18Z 6100   1.593   0.228   8.470  0.0595 -0.7199 -0.5275
   71SLPC     N 6101   1.095   5.332  10.901 -0.3845  0.3402 -0.1795
   71SLPC   C13 6102   1.130   5.455  10.976  0.4053  0.6071  0.0335
   71SLPC  H13A 6103   1.147   5.441  11.081 -2.3378  1.8399  0.7145
   71SLPC  H13B 6104   1.224   5.490  10.936  1.1803 -1.3121  0.0523
   71SLPC  H13C 6105   1.051   5.524  10.952 -0.4909 -0.6290 -0.7009
   71SLPC   C14 6106   0.950   5.291  10.918  0.3771 -0.3367  0.0534
   71SLPC  H14A 6107   0.924   5.208  10.854  0.5462 -1.4241  1.3641
   71SLPC  H14B 6108   0.930   5.256  11.018  0.8083  0.2009  0.3306
   71SLPC  H14C 6109   0.890   5.380  10.901  1.6554  0.4782 -0.3784
   71SLPC   C15 6110   1.177   5.223  10.957  0.0441  0.3972  0.4497
   71SLPC  H15A 6111   1.183   5.225  11.065 -2.7199  0.2086  0.6882
   71SLPC  H15B 6112   1.132   5.130  10.928  3.3730 -1.2759  0.1437
   71SLPC  H15C 6113   1.280   5.231  10.926 -0.0929  2.7619  0.3593
   71SLPC   C12 6114   1.120   5.360  10.758 -0.0101  0.2053  0.0619
   71SLPC  H12A 6115   1.054   5.436  10.720  1.4376  1.5722  0.1773
   71SLPC  H12B 6116   1.106   5.263  10.713  3.2058 -0.5675  0.4336
   71SLPC   C11 6117   1.268   5.380  10.713 -0.7225  1.3314  0.2162
   71SLPC  H11A 6118   1.268   5.372  10.603 -0.7110 -2.9160  0.3816
   71SLPC  H11B 6119   1.329   5.293  10.744 -0.1541  2.0325  1.1301
   71SLPC     P 6120   1.309   5.631  10.696 -0.0254 -0.1579 -0.4263
   71SLPC   O13 6121   1.163   5.658  10.680 -0.4373 -0.9602 -0.5727
   71SLPC   O14 6122   1.396   5.732  10.759  0.3034 -0.4276 -0.2307
   71SLPC   O12 6123   1.330   5.498  10.765  0.4416 -0.2551  0.4197
   71SLPC   O11 6124   1.364   5.596  10.554 -0.2491 -0.4468  0.1383
   71SLPC    C1 6125   1.492   5.549  10.514  0.2544  0.1608  0.1087
   71SLPC    HA 6126   1.569   5.619  10.553 -0.1998  1.4744 -1.2188
   71SLPC    HB 6127   1.525   5.450  10.550  0.7126 -0.5793 -2.1715
   71SLPC    C2 6128   1.497   5.541  10.358 -0.0134  0.0640 -0.1116
   71SLPC    HS 6129   1.590   5.485  10.331 -1.7305 -2.3699 -1.3280
   71SLPC   O21 6130   1.482   5.678  10.313 -0.1090 -0.3265 -0.1016
   71SLPC   C21 6131   1.589   5.749  10.315 -0.8214  0.4968 -0.5338
   71SLPC   O22 6132   1.698   5.718  10.356 -0.1547 -0.3979  0.0510
   71SLPC   C22 6133   1.570   5.886  10.241 -0.7779  0.0025  0.0716
   71SLPC   H2R 6134   1.464   5.919  10.244 -2.2853 -4.2067 -0.6407
   71SLPC   H2S 6135   1.643   5.957  10.285  0.9563 -1.9557  0.5231
   71SLPC    C3 6136   1.389   5.457  10.302  0.6131  0.4547  0.5029
   71SLPC    HX 6137   1.297   5.509  10.336  1.7460  1.5743  2.0138
   71SLPC    HY 6138   1.395   5.364  10.362  2.4708  0.6102  0.6304
   71SLPC   O31 6139   1.396   5.438  10.161  0.1713 -0.1872 -0.5444
   71SLPC   C31 6140   1.306   5.347  10.124 -0.2875  0.1805 -1.1683
   71SLPC   O32 6141   1.226   5.285  10.192 -0.5671 -0.5941  0.1901
   71SLPC   C32 6142   1.303   5.329   9.975 -0.7246 -0.0565  0.8693
   71SLPC   H2X 6143   1.199   5.348   9.941 -0.5537 -2.5743 -1.4128
   71SLPC   H2Y 6144   1.320   5.221   9.957  0.6650  0.3716 -0.6541
   71SLPC   C23 6145   1.593   5.859  10.088  0.4367  0.3544  0.7046
   71SLPC   H3R 6146   1.535   5.772  10.049 -0.0288  1.3403 -0.9482
   71SLPC   H3S 6147   1.701   5.841  10.069  0.4694  1.1756  0.0139
   71SLPC   C24 6148   1.545   5.978  10.002 -0.1191  0.2254  0.2204
   71SLPC   H4R 6149   1.574   6.076  10.044  3.1307 -0.6393  0.2787
   71SLPC   H4S 6150   1.434   5.984  10.006 -0.2446 -1.1263 -0.4507
   71SLPC   C25 6151   1.594   5.955   9.857 -0.3476 -0.0474 -0.1396
   71SLPC   H5R 6152   1.542   5.864   9.819 -0.0417  0.3003 -1.4335
   71SLPC   H5S 6153   1.700   5.924   9.867 -0.1851  0.1732 -1.1012
   71SLPC   C26 6154   1.570   6.070   9.765 -0.1117 -0.0463  0.2461
   71SLPC   H6R 6155   1.621   6.164   9.797 -1.2156  1.5617 -2.4357
   71SLPC   H6S 6156   1.460   6.080   9.769 -0.1956 -0.8661  0.1831
   71SLPC   C27 6157   1.629   6.041   9.624 -0.3785 -0.9220  0.3954
   71SLPC   H7R 6158   1.578   5.956   9.574 -1.4905  0.6459 -1.2675
   71SLPC   H7S 6159   1.737   6.016   9.629  0.0411  0.2122 -1.7994
   71SLPC   C28 6160   1.604   6.160   9.523 -0.1833 -1.0585 -0.1400
   71SLPC   H8R 6161   1.654   6.137   9.427  1.3095 -2.3471  0.8824
   71SLPC   H8S 6162   1.648   6.249   9.572 -0.6592 -0.6101 -0.5281
   71SLPC   C29 6163   1.457   6.186   9.509  0.3123 -0.5348  0.1093
   71SLPC   H9R 6164   1.398   6.227   9.592 -0.5818  2.3200 -1.7890
   71SLPC  C210 6165   1.389   6.172   9.393  0.2015  0.0577 -0.5361
   71SLPC  H10R 6166   1.280   6.188   9.390  0.0353 -1.0414 -0.8679
   71SLPC  C211 6167   1.447   6.125   9.263 -0.3007  0.0711 -0.3021
   71SLPC  H11R 6168   1.371   6.075   9.199 -0.6492 -0.1604  0.2797
   71SLPC  H11S 6169   1.505   6.035   9.292 -0.9376 -0.6306 -1.1530
   71SLPC  C212 6170   1.527   6.231   9.189 -0.4933 -0.4295 -0.2733
   71SLPC  H12R 6171   1.589   6.298   9.250  0.3706 -2.4061  1.1165
   71SLPC  C213 6172   1.545   6.234   9.059 -0.2759 -0.0339 -0.1222
   71SLPC  H13R 6173   1.616   6.306   9.017 -0.6899  0.0950 -0.6128
   71SLPC  C214 6174   1.494   6.135   8.957 -0.7101  0.1167 -0.2298
   71SLPC  H14R 6175   1.456   6.042   9.002  0.0217 -0.3867 -0.6326
   71SLPC  H14S 6176   1.568   6.108   8.878 -0.9818 -0.5047 -0.2753
   71SLPC  C215 6177   1.374   6.203   8.882  0.0715 -0.3236 -0.6951
   71SLPC  H15R 6178   1.300   6.248   8.950  0.4897 -1.5796  0.6486
   71SLPC  H15S 6179   1.329   6.119   8.824  1.2873 -1.3740 -0.1715
   71SLPC  C216 6180   1.423   6.309   8.784  0.0927  0.0403  0.5414
   71SLPC  H16R 6181   1.518   6.285   8.731  1.2971  2.9986  1.1748
   71SLPC  H16S 6182   1.449   6.406   8.830  0.9287  1.0887 -1.9380
   71SLPC  C217 6183   1.320   6.351   8.681  0.1900  0.0424  0.9208
   71SLPC  H17R 6184   1.232   6.392   8.736 -0.8455  0.3022 -0.8577
   71SLPC  H17S 6185   1.281   6.264   8.624 -1.2732  0.9749  0.4508
   71SLPC  C218 6186   1.370   6.464   8.591 -0.7522 -0.2300  0.5617
   71SLPC  H18R 6187   1.387   6.557   8.650  3.1295  0.0238 -0.7019
   71SLPC  H18S 6188   1.295   6.501   8.517 -2.1769 -1.5182  1.2951
   71SLPC  H18T 6189   1.465   6.436   8.542 -0.2387 -1.5776  2.2419
   71SLPC   C33 6190   1.404   5.412   9.895 -0.7257  0.6439 -0.2006
   71SLPC   H3X 6191   1.495   5.358   9.929 -1.1906 -0.9757 -1.4108
   71SLPC   H3Y 6192   1.412   5.518   9.926 -1.3221  0.6833 -0.1711
   71SLPC   C34 6193   1.379   5.408   9.744  0.5805  0.3671  0.1102
   71SLPC   H4X 6194   1.282   5.456   9.719  0.7837  0.1156 -1.2072
   71SLPC   H4Y 6195   1.377   5.299   9.727 -0.5275  0.1585  1.4213
   71SLPC   C35 6196   1.490   5.455   9.653  0.5942  0.5233  0.2702
   71SLPC   H5X 6197   1.458   5.421   9.552  0.8227  2.5845 -0.5498
   71SLPC   H5Y 6198   1.583   5.397   9.674  0.4620 -0.6660 -1.9902
   71SLPC   C36 6199   1.520   5.604   9.662 -0.5007  0.6242  0.4584
   71SLPC   H6X 6200   1.613   5.633   9.610 -0.5628  1.7602  0.9348
   71SLPC   H6Y 6201   1.523   5.631   9.770 -3.0946 -0.8516  0.9825
   71SLPC   C37 6202   1.414   5.688   9.591 -0.0830 -0.2893  0.5944
   71SLPC   H7X 6203   1.455   5.791   9.589  0.4404 -0.4972 -0.5101
   71SLPC   H7Y 6204   1.324   5.685   9.656 -0.8017 -0.4894 -0.3845
   71SLPC   C38 6205   1.380   5.654   9.442  0.4421 -0.2992  0.7547
   71SLPC   H8X 6206   1.277   5.689   9.422  0.9065  0.4319 -0.4579
   71SLPC   H8Y 6207   1.365   5.547   9.416 -0.1111  0.4810 -2.5924
   71SLPC   C39 6208   1.470   5.714   9.338  0.0419 -0.0379  0.1287
   71SLPC   H9X 6209   1.565   5.657   9.336  0.0966  0.0236  0.8354
   71SLPC   H9Y 6210   1.496   5.820   9.362  4.3271 -0.8418 -0.1463
   71SLPC  C310 6211   1.406   5.709   9.194  0.6775  0.0037  0.2041
   71SLPC  H10X 6212   1.315   5.773   9.187  0.1265 -0.5881  1.5522
   71SLPC  H10Y 6213   1.383   5.606   9.159 -1.1494  0.7439 -0.9130
   71SLPC  C311 6214   1.495   5.762   9.080 -0.2530  0.6376  0.1516
   71SLPC  H11X 6215   1.590   5.705   9.084  1.2671  3.0622  0.7783
   71SLPC  H11Y 6216   1.520   5.869   9.094 -0.5609  0.4275  3.0871
   71SLPC  C312 6217   1.436   5.747   8.936  0.5517 -0.0367  0.0557
   71SLPC  H12X 6218   1.383   5.837   8.896  0.8833 -0.8188 -2.2841
   71SLPC  H12Y 6219   1.352   5.675   8.940  0.6361 -0.1140  0.4508
   71SLPC  C313 6220   1.539   5.713   8.830  0.2054  0.0163 -0.5629
   71SLPC  H13X 6221   1.593   5.625   8.871  0.2035 -0.0858 -0.7780
   71SLPC  H13Y 6222   1.615   5.793   8.836  1.6028 -1.3557  1.3831
   71SLPC  C314 6223   1.481   5.678   8.692 -0.6084 -0.3571  0.4023
   71SLPC  H14X 6224   1.473   5.776   8.640 -0.5662 -0.6962 -0.2569
   71SLPC  H14Y 6225   1.384   5.632   8.717 -1.2479  1.2134  0.9080
   71SLPC  C315 6226   1.576   5.590   8.612  0.3072 -0.2023  0.2835
   71SLPC  H15X 6227   1.534   5.593   8.509  0.6248  0.0532  0.1576
   71SLPC  H15Y 6228   1.577   5.491   8.661 -1.8264  0.4868  1.8704
   71SLPC  C316 6229   1.712   5.651   8.610 -0.5785 -0.1780 -0.2447
   71SLPC  H16X 6230   1.743   5.673   8.714  0.7000  1.5402 -0.9287
   71SLPC  H16Y 6231   1.704   5.752   8.563 -0.8291  0.1119  0.4125
   71SLPC  C317 6232   1.816   5.575   8.523 -0.5030  0.4545 -0.1546
   71SLPC  H17X 6233   1.783   5.569   8.417  0.8108  0.1237 -0.5579
   71SLPC  H17Y 6234   1.824   5.473   8.566  0.1687  0.8436  0.6682
   71SLPC  C318 6235   1.955   5.641   8.508  0.2924  0.2966 -0.7613
   71SLPC  H18X 6236   2.032   5.562   8.519 -0.0537  0.1235  0.6907
   71SLPC  H18Y 6237   1.970   5.718   8.586 -3.2626 -0.9463  1.4004
   71SLPC  H18Z 6238   1.956   5.690   8.408 -1.3782 -0.5573 -1.2355
   72SLPC     N 6239   3.320   5.742  10.715  0.5098  0.1223 -0.7769
   72SLPC   C13 6240   3.388   5.785  10.844 -0.2338 -0.6733  0.1150
   72SLPC  H13A 6241   3.318   5.764  10.922 -0.9587 -1.1472 -0.6509
   72SLPC  H13B 6242   3.487   5.741  10.846 -0.2260 -0.7769 -1.2361
   72SLPC  H13C 6243   3.399   5.893  10.842 -0.5009 -0.6491  0.0208
   72SLPC   C14 6244   3.182   5.805  10.719 -0.0304  0.1434  1.0684
   72SLPC  H14A 6245   3.124   5.796  10.628  1.9209  0.2390 -0.2376
   72SLPC  H14B 6246   3.123   5.778  10.805 -0.0088  1.6507  1.5839
   72SLPC  H14C 6247   3.188   5.913  10.721 -1.2476  0.2209  1.4809
   72SLPC   C15 6248   3.299   5.592  10.706  0.1932  0.1756  0.7478
   72SLPC  H15A 6249   3.233   5.550  10.780 -1.3428 -0.7550 -1.0461
   72SLPC  H15B 6250   3.246   5.575  10.613  0.2290 -2.0980  1.1088
   72SLPC  H15C 6251   3.387   5.530  10.700 -1.6938 -2.5740 -0.9164
   72SLPC   C12 6252   3.400   5.795  10.597  0.9887 -1.0203  0.7166
   72SLPC  H12A 6253   3.341   5.798  10.507 -0.6447 -0.3019  1.7604
   72SLPC  H12B 6254   3.480   5.727  10.573  3.4695  2.5573 -2.2943
   72SLPC   C11 6255   3.448   5.944  10.608  0.0548 -0.1098  0.7210
   72SLPC  H11A 6256   3.363   6.000  10.653 -1.8930  1.3808 -4.2260
   72SLPC  H11B 6257   3.476   5.987  10.510  2.5466  1.8875  2.1923
   72SLPC     P 6258   3.700   5.921  10.686  0.3188  0.4792 -0.3243
   72SLPC   O13 6259   3.793   5.991  10.780 -0.1722 -0.2647  0.5459
   72SLPC   O14 6260   3.723   5.772  10.680 -0.1217  0.0372  0.8574
   72SLPC   O12 6261   3.548   5.955  10.713 -0.5612  0.2484 -0.5242
   72SLPC   O11 6262   3.725   5.978  10.544 -0.3059 -1.1509 -0.0537
   72SLPC    C1 6263   3.843   5.941  10.466 -0.2729  0.0233 -0.1214
   72SLPC    HA 6264   3.930   5.998  10.506 -0.4144 -1.2168  2.1083
   72SLPC    HB 6265   3.859   5.832  10.479 -0.5104 -0.0170 -0.1534
   72SLPC    C2 6266   3.822   5.971  10.314  0.6626 -0.6706 -0.8445
   72SLPC    HS 6267   3.875   5.897  10.251  2.3899 -0.6657  0.5196
   72SLPC   O21 6268   3.866   6.107  10.283  0.1990  0.5090 -0.6708
   72SLPC   C21 6269   3.997   6.112  10.265 -0.2035 -0.7856  0.3585
   72SLPC   O22 6270   4.081   6.031  10.297  0.8863  0.2448  0.4248
   72SLPC   C22 6271   4.025   6.250  10.213 -0.3836  0.1972  0.0254
   72SLPC   H2R 6272   3.936   6.303  10.172 -1.5801 -1.0945  0.8435
   72SLPC   H2S 6273   4.073   6.297  10.302  0.3867 -1.4147  0.5020
   72SLPC    C3 6274   3.674   5.959  10.270 -0.2692  0.4182 -0.5243
   72SLPC    HX 6275   3.614   6.044  10.310 -0.9194 -0.6799  0.9420
   72SLPC    HY 6276   3.630   5.873  10.326 -0.2886  1.8829  1.8597
   72SLPC   O31 6277   3.674   5.942  10.123  0.6855 -0.6817 -0.6558
   72SLPC   C31 6278   3.628   6.043  10.051  0.3414 -0.2894  0.3096
   72SLPC   O32 6279   3.569   6.142  10.094 -0.3868  0.4820  0.1437
   72SLPC   C32 6280   3.673   6.030   9.901 -0.1433 -0.0814  0.2888
   72SLPC   H2X 6281   3.601   5.959   9.855 -0.1627  0.6659 -0.9075
   72SLPC   H2Y 6282   3.776   5.991   9.906  0.3335  1.2376  1.4072
   72SLPC   C23 6283   4.135   6.244  10.100 -0.9418  0.7768 -0.0817
   72SLPC   H3R 6284   4.223   6.191  10.142 -1.6964 -1.0593 -0.7206
   72SLPC   H3S 6285   4.155   6.351  10.075 -3.2077  0.5199 -3.7731
   72SLPC   C24 6286   4.083   6.182   9.969 -0.3111 -0.1474 -0.1567
   72SLPC   H4R 6287   4.005   6.253   9.932 -0.2022 -0.0689 -0.2339
   72SLPC   H4S 6288   4.042   6.080   9.984 -1.0148 -0.0878 -1.4637
   72SLPC   C25 6289   4.186   6.171   9.853  1.4650  0.5965 -0.3157
   72SLPC   H5R 6290   4.253   6.093   9.895 -0.9452 -1.5163 -0.1625
   72SLPC   H5S 6291   4.240   6.265   9.828  0.3747  1.4361  0.4023
   72SLPC   C26 6292   4.124   6.117   9.723  0.3254 -0.3479  0.0947
   72SLPC   H6R 6293   4.026   6.168   9.713  0.3140 -0.2955  0.4637
   72SLPC   H6S 6294   4.114   6.006   9.718  0.6196 -0.3233 -1.4332
   72SLPC   C27 6295   4.200   6.148   9.595 -0.1957 -0.9213 -0.8257
   72SLPC   H7R 6296   4.304   6.120   9.623 -0.9653 -0.7412  2.6777
   72SLPC   H7S 6297   4.199   6.258   9.582 -0.7296 -1.0157 -1.6103
   72SLPC   C28 6298   4.156   6.060   9.477  0.4289  0.5909 -0.6675
   72SLPC   H8R 6299   4.049   6.078   9.453  0.3643 -0.4221 -1.2260
   72SLPC   H8S 6300   4.174   5.954   9.506 -0.4132  0.8632  0.9929
   72SLPC   C29 6301   4.241   6.106   9.369 -0.3696 -0.2524  0.2220
   72SLPC   H9R 6302   4.326   6.168   9.403 -0.8173  0.8659 -0.6255
   72SLPC  C210 6303   4.224   6.074   9.236 -0.6689  0.4519  1.1642
   72SLPC  H10R 6304   4.300   6.124   9.175  0.7271  0.2466  2.6738
   72SLPC  C211 6305   4.120   5.990   9.169  0.1738 -0.1795 -0.5808
   72SLPC  H11R 6306   4.022   6.041   9.180 -0.0647 -0.8764  0.7774
   72SLPC  H11S 6307   4.094   5.895   9.221 -3.2515  1.3688  0.8493
   72SLPC  C212 6308   4.162   5.945   9.028 -0.1823 -0.0470 -0.0621
   72SLPC  H12R 6309   4.233   5.863   9.011  0.8387  0.8641 -0.3571
   72SLPC  C213 6310   4.125   6.005   8.910 -0.6608  0.6758  0.2809
   72SLPC  H13R 6311   4.162   5.964   8.815 -0.1292  1.3901  0.1656
   72SLPC  C214 6312   4.030   6.119   8.896 -0.3127  0.4458  0.0799
   72SLPC  H14R 6313   4.074   6.197   8.829 -3.8506  1.5355 -1.2145
   72SLPC  H14S 6314   4.013   6.173   8.991 -1.4367  1.9727 -0.9168
   72SLPC  C215 6315   3.895   6.069   8.836  0.6573  0.4772  0.5275
   72SLPC  H15R 6316   3.815   6.145   8.834 -1.0227 -1.1676 -2.1044
   72SLPC  H15S 6317   3.858   5.991   8.907 -0.0617  0.3300 -0.0023
   72SLPC  C216 6318   3.898   6.016   8.689  0.1182  0.1195 -0.2916
   72SLPC  H16R 6319   3.992   5.957   8.678  1.8561  2.7596 -0.4515
   72SLPC  H16S 6320   3.903   6.105   8.623 -0.3713  1.2416  1.1491
   72SLPC  C217 6321   3.789   5.914   8.653 -0.0056  0.4653 -0.1726
   72SLPC  H17R 6322   3.801   5.834   8.728  0.1658  0.1325 -0.5523
   72SLPC  H17S 6323   3.808   5.874   8.551  2.6879 -0.0378  0.4604
   72SLPC  C218 6324   3.643   5.963   8.671  0.0077  0.0530  0.2350
   72SLPC  H18R 6325   3.623   5.997   8.774  0.1624  1.3634 -0.1434
   72SLPC  H18S 6326   3.574   5.880   8.645  1.8467 -1.8250  1.0675
   72SLPC  H18T 6327   3.638   6.057   8.611  1.0441 -0.7050 -1.1094
   72SLPC   C33 6328   3.676   6.165   9.826  0.6096  0.4621 -0.2420
   72SLPC   H3X 6329   3.740   6.242   9.874  1.5580 -0.0524 -0.6616
   72SLPC   H3Y 6330   3.569   6.192   9.836  0.1775 -1.6889  1.9454
   72SLPC   C34 6331   3.717   6.169   9.680  0.5044 -0.8113 -0.4074
   72SLPC   H4X 6332   3.657   6.090   9.629 -0.6018 -0.3323  0.1138
   72SLPC   H4Y 6333   3.826   6.155   9.667  1.0518  1.6961  0.9581
   72SLPC   C35 6334   3.662   6.297   9.605  0.1937  0.2079  0.2753
   72SLPC   H5X 6335   3.715   6.389   9.639 -0.3938  0.7274 -0.1898
   72SLPC   H5Y 6336   3.553   6.302   9.625  0.0322 -0.5563 -0.3666
   72SLPC   C36 6337   3.678   6.288   9.452 -0.5466  0.4864  0.0565
   72SLPC   H6X 6338   3.675   6.178   9.432  2.0472 -0.0812  2.2709
   72SLPC   H6Y 6339   3.783   6.320   9.439 -0.4789  1.4744  2.5349
   72SLPC   C37 6340   3.579   6.377   9.369 -0.9574 -0.2966 -0.6111
   72SLPC   H7X 6341   3.602   6.484   9.387 -0.4470  0.5630 -5.1171
   72SLPC   H7Y 6342   3.477   6.358   9.408 -1.0518 -3.0350 -1.9634
   72SLPC   C38 6343   3.595   6.364   9.213  0.2219 -0.3095  0.0985
   72SLPC   H8X 6344   3.595   6.254   9.197  2.7108 -0.6440  1.7980
   72SLPC   H8Y 6345   3.698   6.389   9.178  0.8281  1.5093  2.8227
   72SLPC   C39 6346   3.485   6.438   9.131 -0.0853 -0.2164 -1.0843
   72SLPC   H9X 6347   3.487   6.540   9.174  0.4488 -0.7708  0.2992
   72SLPC   H9Y 6348   3.382   6.398   9.145 -0.7978  2.1359  1.4518
   72SLPC  C310 6349   3.524   6.454   8.984  0.0781 -0.1013  0.2399
   72SLPC  H10X 6350   3.606   6.525   8.962  0.5048 -0.6172  0.1484
   72SLPC  H10Y 6351   3.436   6.489   8.928 -0.2849 -2.6591 -0.9292
   72SLPC  C311 6352   3.573   6.325   8.917  0.4644 -0.0460  0.1730
   72SLPC  H11X 6353   3.514   6.233   8.936  3.5843 -2.2102  0.1895
   72SLPC  H11Y 6354   3.679   6.311   8.948  0.7862 -0.3408 -1.0009
   72SLPC  C312 6355   3.569   6.344   8.765  0.2500  0.2421  0.0647
   72SLPC  H12X 6356   3.641   6.278   8.713 -2.7458 -1.9179 -1.6542
   72SLPC  H12Y 6357   3.610   6.438   8.722  2.3207 -1.6470 -2.4077
   72SLPC  C313 6358   3.425   6.336   8.709 -0.4526 -0.5139 -0.2416
   72SLPC  H13X 6359   3.356   6.395   8.773  1.3862  1.8503 -0.2907
   72SLPC  H13Y 6360   3.387   6.232   8.713 -0.1950 -0.7288 -2.2522
   72SLPC  C314 6361   3.407   6.408   8.569  0.3010 -0.5586  0.3537
   72SLPC  H14X 6362   3.382   6.517   8.571  0.8735 -0.2289 -3.1235
   72SLPC  H14Y 6363   3.329   6.355   8.510  0.3591  1.0641 -1.3011
   72SLPC  C315 6364   3.524   6.393   8.472 -0.6504  0.4210  0.1046
   72SLPC  H15X 6365   3.556   6.286   8.478  0.9298  0.8911  0.6796
   72SLPC  H15Y 6366   3.608   6.455   8.510  0.6072 -2.2307  1.9829
   72SLPC  C316 6367   3.477   6.424   8.325  0.8302 -0.1135  0.2144
   72SLPC  H16X 6368   3.454   6.532   8.313 -2.2307 -0.6335  0.5616
   72SLPC  H16Y 6369   3.376   6.380   8.311  1.1416 -0.7375 -0.1106
   72SLPC  C317 6370   3.559   6.373   8.217 -0.8989  0.2978  2.0162
   72SLPC  H17X 6371   3.501   6.378   8.122  0.1938  0.5128  1.3394
   72SLPC  H17Y 6372   3.579   6.265   8.235 -3.1809 -0.2919  1.3755
   72SLPC  C318 6373   3.694   6.439   8.199 -0.5543 -0.9803  0.2100
   72SLPC  H18X 6374   3.758   6.406   8.284 -0.7701 -1.0622  0.3426
   72SLPC  H18Y 6375   3.693   6.550   8.192  1.1163 -0.8722  1.1721
   72SLPC  H18Z 6376   3.730   6.412   8.097 -0.8046  1.1901 -0.5109
   73SLPC     N 6377   3.149   3.991  11.093 -0.3609 -0.3211  0.4658
   73SLPC   C13 6378   3.138   4.111  11.002 -0.0082  0.2099 -0.8091
   73SLPC  H13A 6379   3.207   4.188  11.033 -0.8931  0.4697  0.6198
   73SLPC  H13B 6380   3.173   4.090  10.902  0.0388  0.8974 -0.9428
   73SLPC  H13C 6381   3.034   4.141  11.004 -0.8520 -2.4703  0.8756
   73SLPC   C14 6382   3.146   4.037  11.239 -0.3176 -0.5378  0.3351
   73SLPC  H14A 6383   3.044   4.051  11.271 -0.1552 -2.5652  1.9773
   73SLPC  H14B 6384   3.168   3.953  11.303  1.7162  0.5119  1.1327
   73SLPC  H14C 6385   3.212   4.119  11.263  1.1362 -1.1518 -1.3949
   73SLPC   C15 6386   3.281   3.933  11.068 -0.5705  0.8329  0.3666
   73SLPC  H15A 6387   3.292   3.888  10.971 -0.4959 -1.2854  1.3038
   73SLPC  H15B 6388   3.360   4.002  11.095 -1.4463  1.1182  2.4515
   73SLPC  H15C 6389   3.303   3.849  11.132 -0.6989 -1.1591 -2.0975
   73SLPC   C12 6390   3.036   3.887  11.075 -0.9818 -0.7881  0.0734
   73SLPC  H12A 6391   3.054   3.800  11.137 -0.7829 -1.4028 -0.8267
   73SLPC  H12B 6392   3.035   3.862  10.970  1.1199  1.0323 -0.4540
   73SLPC   C11 6393   2.901   3.945  11.110 -0.8430 -0.2155 -0.0749
   73SLPC  H11A 6394   2.911   4.054  11.131  0.0091 -0.0686 -1.1254
   73SLPC  H11B 6395   2.870   3.893  11.203  2.2446  1.1272  1.8713
   73SLPC     P 6396   2.807   4.011  10.881  0.1165 -0.1295 -0.1464
   73SLPC   O13 6397   2.769   4.148  10.926 -0.1625 -0.0012  0.4022
   73SLPC   O14 6398   2.925   3.986  10.798  0.0522 -0.1478 -0.3626
   73SLPC   O12 6399   2.815   3.919  11.006 -0.4649  0.1882 -0.4381
   73SLPC   O11 6400   2.682   3.946  10.815  0.8529 -0.1314 -0.3296
   73SLPC    C1 6401   2.687   3.807  10.783 -0.1921 -0.2392  0.0984
   73SLPC    HA 6402   2.789   3.768  10.759  0.7722  3.5946 -3.0050
   73SLPC    HB 6403   2.640   3.740  10.859  2.2697 -1.6341  0.5111
   73SLPC    C2 6404   2.609   3.789  10.644 -0.2280  0.3274  0.2034
   73SLPC    HS 6405   2.503   3.779  10.676  0.0166 -0.1935  0.8785
   73SLPC   O21 6406   2.662   3.668  10.588 -0.3772  0.4605  0.4861
   73SLPC   C21 6407   2.625   3.552  10.638 -0.2132  0.3346 -0.4378
   73SLPC   O22 6408   2.543   3.535  10.726 -0.3906 -0.1670  0.1453
   73SLPC   C22 6409   2.702   3.430  10.568 -0.1552  0.8803 -0.1365
   73SLPC   H2R 6410   2.727   3.352  10.642  0.5644 -0.6426 -1.9107
   73SLPC   H2S 6411   2.635   3.372  10.501  0.0098  0.2109  0.2697
   73SLPC    C3 6412   2.616   3.895  10.532  0.0606 -0.5870 -1.1976
   73SLPC    HX 6413   2.722   3.911  10.503  0.4894  0.2627  0.6808
   73SLPC    HY 6414   2.583   3.988  10.583  1.6064 -0.3643 -0.5312
   73SLPC   O31 6415   2.529   3.858  10.425  0.2732 -0.1917  0.0010
   73SLPC   C31 6416   2.514   3.962  10.336  0.0311 -0.1161 -0.4321
   73SLPC   O32 6417   2.584   4.061  10.342  0.1921 -0.2193  0.6517
   73SLPC   C32 6418   2.419   3.929  10.225 -0.6395  0.0485  0.0948
   73SLPC   H2X 6419   2.319   3.922  10.273 -0.0504 -1.4679  1.1893
   73SLPC   H2Y 6420   2.453   3.827  10.195  0.1572  0.9602 -2.3406
   73SLPC   C23 6421   2.842   3.455  10.510  0.0474 -0.2411 -0.1016
   73SLPC   H3R 6422   2.908   3.367  10.528 -0.1258 -0.4418 -0.4277
   73SLPC   H3S 6423   2.894   3.539  10.560  0.8090 -0.1399 -1.0202
   73SLPC   C24 6424   2.845   3.477  10.356  0.0620 -0.3238  0.4026
   73SLPC   H4R 6425   2.754   3.539  10.348 -1.4442 -2.4571 -0.0149
   73SLPC   H4S 6426   2.839   3.384  10.295  0.0807  0.3024 -0.5541
   73SLPC   C25 6427   2.967   3.561  10.313  0.1582  0.7253 -0.3355
   73SLPC   H5R 6428   3.044   3.488  10.279  0.4137  1.0076 -0.3582
   73SLPC   H5S 6429   3.007   3.621  10.397 -1.5450  1.6404 -0.1388
   73SLPC   C26 6430   2.938   3.656  10.200  0.1676  0.2903 -0.0886
   73SLPC   H6R 6431   3.034   3.708  10.178  0.1625  0.4379  0.2246
   73SLPC   H6S 6432   2.862   3.730  10.234 -1.8029 -0.8315 -1.8216
   73SLPC   C27 6433   2.871   3.598  10.074  0.3678 -0.7222  0.2721
   73SLPC   H7R 6434   2.789   3.535  10.117 -0.9308 -1.1620 -2.6214
   73SLPC   H7S 6435   2.938   3.528  10.020  2.8976  1.2626  0.6809
   73SLPC   C28 6436   2.814   3.705   9.982 -0.0763  0.3555 -0.0620
   73SLPC   H8R 6437   2.767   3.790  10.036 -0.5205  0.7775 -1.0874
   73SLPC   H8S 6438   2.729   3.661   9.925 -0.9437 -0.4958  1.7881
   73SLPC   C29 6439   2.925   3.756   9.890  0.2028 -0.1029  0.1883
   73SLPC   H9R 6440   3.013   3.790   9.946 -1.7110  1.7588  2.2730
   73SLPC  C210 6441   2.925   3.750   9.754 -0.2394 -0.2541 -0.0798
   73SLPC  H10R 6442   2.992   3.820   9.702 -1.8201  0.8136 -0.7497
   73SLPC  C211 6443   2.824   3.691   9.658 -0.4265 -1.0520  0.2176
   73SLPC  H11R 6444   2.763   3.767   9.605 -0.5701  0.7248  2.7605
   73SLPC  H11S 6445   2.750   3.639   9.721 -0.4919  2.1289  3.0137
   73SLPC  C212 6446   2.883   3.585   9.570 -0.2667  0.2594 -0.3293
   73SLPC  H12R 6447   2.955   3.514   9.612  1.4315 -1.3494 -5.2335
   73SLPC  C213 6448   2.868   3.574   9.438  0.3603  0.6506 -1.0192
   73SLPC  H13R 6449   2.934   3.501   9.388 -2.4646 -0.5287 -3.2997
   73SLPC  C214 6450   2.775   3.650   9.352 -0.2494 -0.7307 -0.0831
   73SLPC  H14R 6451   2.692   3.701   9.405  0.9202  0.4954  0.6623
   73SLPC  H14S 6452   2.717   3.583   9.286 -1.9178  2.6730 -2.3907
   73SLPC  C215 6453   2.854   3.750   9.261  0.0199 -0.0708  0.0500
   73SLPC  H15R 6454   2.928   3.804   9.324  0.0956  0.9943 -0.9157
   73SLPC  H15S 6455   2.782   3.822   9.217 -0.9347  0.0291  1.7024
   73SLPC  C216 6456   2.930   3.679   9.145  0.1570 -1.0657 -0.3434
   73SLPC  H16R 6457   3.017   3.620   9.179  0.4667  0.1575  1.0721
   73SLPC  H16S 6458   2.974   3.769   9.096 -2.5767  1.2977  1.2393
   73SLPC  C217 6459   2.857   3.600   9.042  0.2524  0.1229  0.2582
   73SLPC  H17R 6460   2.773   3.664   9.008  0.1122  0.4568  1.2036
   73SLPC  H17S 6461   2.812   3.510   9.089  0.5958 -0.0216  0.3088
   73SLPC  C218 6462   2.938   3.555   8.924 -0.6007 -0.3525  0.7841
   73SLPC  H18R 6463   3.032   3.516   8.969 -0.0626 -0.7507 -0.6085
   73SLPC  H18S 6464   2.961   3.641   8.858  0.7521 -0.6794  0.7931
   73SLPC  H18T 6465   2.888   3.476   8.864  0.2627 -0.4198  0.1227
   73SLPC   C33 6466   2.434   4.014  10.097 -1.0694 -0.1057 -0.4070
   73SLPC   H3X 6467   2.539   4.047  10.083 -0.7530 -1.1343 -0.5248
   73SLPC   H3Y 6468   2.369   4.101  10.121 -0.7214 -0.3764  1.7137
   73SLPC   C34 6469   2.377   3.939   9.976 -0.5554 -0.2748 -0.2417
   73SLPC   H4X 6470   2.367   4.018   9.898  0.6159  1.2657  1.0935
   73SLPC   H4Y 6471   2.282   3.885   9.999 -0.7391  1.0781  2.6418
   73SLPC   C35 6472   2.471   3.834   9.914 -0.0058 -0.0282  0.2236
   73SLPC   H5X 6473   2.475   3.747   9.984 -1.3661  0.8701  1.4766
   73SLPC   H5Y 6474   2.576   3.870   9.906  0.0683 -0.3613 -0.3574
   73SLPC   C36 6475   2.435   3.788   9.768 -1.0769  0.0010 -0.9263
   73SLPC   H6X 6476   2.327   3.766   9.759 -1.0522  0.1564 -1.6657
   73SLPC   H6Y 6477   2.484   3.689   9.757  0.0267  0.1057  2.1191
   73SLPC   C37 6478   2.471   3.883   9.657  0.0302 -0.5330 -0.2186
   73SLPC   H7X 6479   2.575   3.923   9.657 -0.7844  1.7146  0.7635
   73SLPC   H7Y 6480   2.400   3.968   9.654 -1.0340 -1.3901  0.0242
   73SLPC   C38 6481   2.452   3.813   9.517  0.0765 -0.4505 -0.0641
   73SLPC   H8X 6482   2.349   3.776   9.499  0.1030  0.6291 -2.8457
   73SLPC   H8Y 6483   2.517   3.722   9.509 -0.9358 -1.2189  0.2333
   73SLPC   C39 6484   2.483   3.920   9.404  0.0149 -0.2061  0.6308
   73SLPC   H9X 6485   2.588   3.958   9.404 -0.9991  2.9851 -1.4882
   73SLPC   H9Y 6486   2.425   4.013   9.421  0.5445  0.3148 -0.3431
   73SLPC  C310 6487   2.449   3.865   9.262 -0.1406 -0.3379  0.1520
   73SLPC  H10X 6488   2.344   3.831   9.254 -0.3477 -0.3538  2.2373
   73SLPC  H10Y 6489   2.524   3.785   9.242  2.8716  2.2306  0.3667
   73SLPC  C311 6490   2.474   3.977   9.160  0.5210  0.0141  0.4232
   73SLPC  H11X 6491   2.582   4.002   9.169  0.2280  0.8416  2.0444
   73SLPC  H11Y 6492   2.415   4.060   9.205  0.8740  0.4281  0.1369
   73SLPC  C312 6493   2.437   3.951   9.015 -0.8694  0.2624 -0.6513
   73SLPC  H12X 6494   2.399   4.045   8.970 -2.6815 -0.0938  0.0294
   73SLPC  H12Y 6495   2.361   3.870   9.012  1.1487 -1.7005 -1.2685
   73SLPC  C313 6496   2.561   3.909   8.931 -0.8350  0.3377 -0.1418
   73SLPC  H13X 6497   2.611   3.824   8.981 -0.8184  0.4853  0.0934
   73SLPC  H13Y 6498   2.625   3.999   8.947 -0.5814  0.3356 -1.0904
   73SLPC  C314 6499   2.536   3.879   8.785 -0.0598  0.5230  0.4166
   73SLPC  H14X 6500   2.502   3.966   8.724 -2.3510  0.7664  1.9272
   73SLPC  H14Y 6501   2.439   3.824   8.792  0.0557 -0.1257 -2.1018
   73SLPC  C315 6502   2.641   3.783   8.719  0.1607  0.6109  0.5107
   73SLPC  H15X 6503   2.625   3.685   8.769  0.6727  1.6137  2.7672
   73SLPC  H15Y 6504   2.740   3.808   8.763  0.9408 -2.1835  0.5472
   73SLPC  C316 6505   2.624   3.770   8.567 -1.2204 -0.1105  0.4641
   73SLPC  H16X 6506   2.711   3.706   8.537  0.0573  1.4901  0.6382
   73SLPC  H16Y 6507   2.642   3.860   8.505  0.3115 -1.0087 -0.4831
   73SLPC  C317 6508   2.494   3.700   8.535  0.4384 -0.0908 -0.1248
   73SLPC  H17X 6509   2.404   3.760   8.561 -0.7502 -1.4982 -0.8679
   73SLPC  H17Y 6510   2.499   3.605   8.591  0.7212 -0.7296 -1.2080
   73SLPC  C318 6511   2.488   3.678   8.389 -0.9376  0.4651 -0.1697
   73SLPC  H18X 6512   2.399   3.614   8.370 -1.5818  1.8859 -2.2648
   73SLPC  H18Y 6513   2.576   3.620   8.354 -0.7669  1.7042 -1.9103
   73SLPC  H18Z 6514   2.476   3.775   8.337  0.2528  0.8896  0.3131
   74SLPC     N 6515   3.689   6.430  10.592  0.4047 -0.2063  0.7514
   74SLPC   C13 6516   3.553   6.381  10.549 -0.1534 -0.3511 -0.1579
   74SLPC  H13A 6517   3.479   6.458  10.532  2.4884  2.2517 -0.5431
   74SLPC  H13B 6518   3.558   6.329  10.454 -1.1053 -0.3994 -0.1992
   74SLPC  H13C 6519   3.515   6.313  10.623 -1.3334 -0.6159 -0.9686
   74SLPC   C14 6520   3.790   6.324  10.569  0.3577  0.8707  0.1626
   74SLPC  H14A 6521   3.774   6.230  10.619  0.4677  1.0522  0.5463
   74SLPC  H14B 6522   3.789   6.301  10.464  0.7704 -2.2381  0.7597
   74SLPC  H14C 6523   3.884   6.365  10.602 -0.3481  0.6763  2.6337
   74SLPC   C15 6524   3.675   6.464  10.733 -0.1705 -0.6051  0.2204
   74SLPC  H15A 6525   3.759   6.521  10.770 -1.2234  1.4979 -0.4806
   74SLPC  H15B 6526   3.600   6.540  10.750 -1.3260 -1.4932 -0.7328
   74SLPC  H15C 6527   3.654   6.377  10.794 -0.5344  0.2887  1.4080
   74SLPC   C12 6528   3.725   6.557  10.510 -0.1507  0.2483 -1.0208
   74SLPC  H12A 6529   3.682   6.646  10.553  0.5760  0.7308 -1.2517
   74SLPC  H12B 6530   3.675   6.544  10.416 -0.6442 -1.4794 -0.5558
   74SLPC   C11 6531   3.877   6.590  10.475  0.3783  0.1257  0.0628
   74SLPC  H11A 6532   3.880   6.674  10.403  1.1174 -1.2944 -1.6447
   74SLPC  H11B 6533   3.918   6.509  10.412 -0.8118 -0.5007  0.0684
   74SLPC     P 6534   4.097   6.575  10.626  0.3016 -0.3327 -0.3730
   74SLPC   O13 6535   4.153   6.663  10.731 -0.3764 -0.3647  0.2088
   74SLPC   O14 6536   4.084   6.434  10.658  0.8189 -0.4298  0.0173
   74SLPC   O12 6537   3.950   6.626  10.592 -1.2124  0.8629 -0.3173
   74SLPC   O11 6538   4.175   6.595  10.489 -0.3690  1.1660 -0.1662
   74SLPC    C1 6539   4.192   6.724  10.430 -0.3373  0.2925  0.1965
   74SLPC    HA 6540   4.104   6.787  10.456  0.3346  1.0495  0.6945
   74SLPC    HB 6541   4.287   6.772  10.463  0.9813 -2.4013  0.5860
   74SLPC    C2 6542   4.200   6.719  10.273  0.1853  0.2329  0.0192
   74SLPC    HS 6543   4.289   6.657  10.251 -0.7394 -2.0261  2.2353
   74SLPC   O21 6544   4.207   6.855  10.222  0.0323  0.3138 -0.1845
   74SLPC   C21 6545   4.327   6.911  10.215  0.2985 -0.5202 -0.2711
   74SLPC   O22 6546   4.428   6.854  10.247 -0.3344  0.0886 -0.3488
   74SLPC   C22 6547   4.315   7.055  10.177  0.0737 -0.7267  0.1671
   74SLPC   H2R 6548   4.214   7.093  10.153  0.0808 -1.4708 -1.1605
   74SLPC   H2S 6549   4.358   7.115  10.260 -0.6043 -0.4528  0.3231
   74SLPC    C3 6550   4.081   6.649  10.199 -0.5758  0.5099  0.3170
   74SLPC    HX 6551   3.988   6.707  10.216 -1.6621 -1.0868  0.1174
   74SLPC    HY 6552   4.064   6.548  10.242  2.9533 -1.9301 -3.2397
   74SLPC   O31 6553   4.116   6.617  10.058 -0.6759  0.6609 -0.5434
   74SLPC   C31 6554   4.013   6.626   9.979  0.2443 -0.0655 -0.5198
   74SLPC   O32 6555   3.897   6.627  10.014 -0.1944  0.1884 -0.4146
   74SLPC   C32 6556   4.066   6.624   9.840  0.1807 -0.3323  0.2402
   74SLPC   H2X 6557   4.175   6.600   9.842  0.1931 -0.2428  1.1330
   74SLPC   H2Y 6558   4.052   6.715   9.778  2.0588 -1.4096 -1.9153
   74SLPC   C23 6559   4.395   7.098  10.049  0.1218  0.3470 -0.5856
   74SLPC   H3R 6560   4.498   7.056  10.054  0.3371  0.9562  3.6699
   74SLPC   H3S 6561   4.405   7.208  10.057  2.1174  0.1164  0.9330
   74SLPC   C24 6562   4.315   7.098   9.915  0.2134  0.1813  0.2985
   74SLPC   H4R 6563   4.361   7.164   9.838 -0.6271 -0.6458 -0.9588
   74SLPC   H4S 6564   4.214   7.142   9.926  0.3573  0.2857  1.2485
   74SLPC   C25 6565   4.306   6.964   9.841 -0.7110  0.1623  1.0336
   74SLPC   H5R 6566   4.247   6.896   9.906 -0.4875 -0.6414  0.4098
   74SLPC   H5S 6567   4.408   6.921   9.850 -1.1458 -0.9705  0.8125
   74SLPC   C26 6568   4.260   6.978   9.696 -0.0339 -0.1410 -0.2323
   74SLPC   H6R 6569   4.228   6.885   9.644  1.7229 -0.4154 -0.8765
   74SLPC   H6S 6570   4.351   7.006   9.640  0.2751 -0.3379  0.1736
   74SLPC   C27 6571   4.156   7.093   9.662 -0.6266 -0.1014 -0.3465
   74SLPC   H7R 6572   4.200   7.191   9.689  0.0557  0.6294 -3.6917
   74SLPC   H7S 6573   4.064   7.064   9.718  1.2384 -4.2976  0.9291
   74SLPC   C28 6574   4.118   7.098   9.512 -0.0071 -0.3586 -0.4732
   74SLPC   H8R 6575   4.026   7.160   9.511  1.3143  2.0454  3.4423
   74SLPC   H8S 6576   4.086   6.994   9.490 -1.9746 -0.1805  1.2830
   74SLPC   C29 6577   4.222   7.163   9.423  0.4882  0.0277 -0.3489
   74SLPC   H9R 6578   4.237   7.269   9.447 -1.1195  0.0442  0.7721
   74SLPC  C210 6579   4.294   7.107   9.326 -0.5168  0.9799  0.4422
   74SLPC  H10R 6580   4.361   7.172   9.268  2.6567 -0.1261  2.5901
   74SLPC  C211 6581   4.286   6.963   9.271  0.3503 -0.0529 -0.4048
   74SLPC  H11R 6582   4.268   6.886   9.350  3.1908  0.7558  1.1678
   74SLPC  H11S 6583   4.386   6.934   9.233  1.1696  0.3148  1.3640
   74SLPC  C212 6584   4.165   6.938   9.183  0.7131  0.1893  0.0354
   74SLPC  H12R 6585   4.072   6.973   9.230 -0.1558 -0.8055 -0.8979
   74SLPC  C213 6586   4.158   6.905   9.054  0.5931 -0.7875 -0.1082
   74SLPC  H13R 6587   4.058   6.899   9.008 -0.7756 -0.7053  2.6461
   74SLPC  C214 6588   4.264   6.877   8.953 -0.2292 -0.3516  0.2005
   74SLPC  H14R 6589   4.241   6.791   8.886  1.0559  1.1068 -2.2284
   74SLPC  H14S 6590   4.366   6.854   8.992  0.3498 -0.2616 -1.2147
   74SLPC  C215 6591   4.280   7.003   8.859  0.0565  0.2032  0.2771
   74SLPC  H15R 6592   4.323   7.088   8.917  0.2143  1.4320 -1.5619
   74SLPC  H15S 6593   4.184   7.029   8.811  2.1328  0.8359 -4.0397
   74SLPC  C216 6594   4.390   6.982   8.753 -0.4224  0.4049 -0.7386
   74SLPC  H16R 6595   4.488   6.984   8.805 -0.7437  1.1915 -0.1427
   74SLPC  H16S 6596   4.383   7.059   8.672 -0.3968  0.9825 -0.1968
   74SLPC  C217 6597   4.389   6.843   8.675  0.2640 -0.0677  0.3476
   74SLPC  H17R 6598   4.420   6.759   8.742  1.0078  0.7241  1.0069
   74SLPC  H17S 6599   4.463   6.864   8.595 -1.9896 -0.0362 -1.8689
   74SLPC  C218 6600   4.258   6.821   8.606  0.6339 -0.4735 -0.2101
   74SLPC  H18R 6601   4.267   6.745   8.526 -0.7423 -0.4753 -0.3822
   74SLPC  H18S 6602   4.225   6.919   8.566 -0.9787 -0.5045  0.9614
   74SLPC  H18T 6603   4.178   6.780   8.671  1.7569 -0.6392  1.1184
   74SLPC   C33 6604   4.007   6.499   9.767  0.3374  0.0824  0.5508
   74SLPC   H3X 6605   3.897   6.485   9.780  0.0497 -2.0464 -2.8457
   74SLPC   H3Y 6606   4.050   6.405   9.806  1.2949 -0.1322 -0.9262
   74SLPC   C34 6607   4.027   6.525   9.611  0.0977 -0.2033 -0.0521
   74SLPC   H4X 6608   4.021   6.428   9.556 -0.6622 -1.4554  2.1006
   74SLPC   H4Y 6609   4.131   6.558   9.590 -0.2417 -0.0476 -1.5604
   74SLPC   C35 6610   3.923   6.622   9.557  0.0692 -0.5022  0.4741
   74SLPC   H5X 6611   3.932   6.716   9.616 -2.2955  0.0143  0.0988
   74SLPC   H5Y 6612   3.820   6.582   9.564 -1.0879  1.0006 -4.0990
   74SLPC   C36 6613   3.948   6.664   9.408 -0.1370 -0.0310 -0.3901
   74SLPC   H6X 6614   4.036   6.730   9.396 -0.1368 -0.1061 -0.8110
   74SLPC   H6Y 6615   3.862   6.723   9.368 -0.5313 -2.1333 -2.9137
   74SLPC   C37 6616   3.974   6.540   9.309  0.2727 -0.1375  0.1969
   74SLPC   H7X 6617   3.877   6.486   9.312 -1.0617  2.0980 -0.7669
   74SLPC   H7Y 6618   4.043   6.460   9.343 -1.8589 -2.4924 -0.7269
   74SLPC   C38 6619   4.018   6.584   9.163  0.0725  0.2004  0.0882
   74SLPC   H8X 6620   4.036   6.489   9.108 -2.9086 -0.7060  0.5066
   74SLPC   H8Y 6621   4.110   6.645   9.176 -0.1753  0.0984  2.9618
   74SLPC   C39 6622   3.917   6.661   9.085  0.0163 -0.3107 -0.0653
   74SLPC   H9X 6623   3.911   6.762   9.132  2.4018  0.4143 -1.1367
   74SLPC   H9Y 6624   3.811   6.631   9.099 -0.9423  2.9211  0.5167
   74SLPC  C310 6625   3.951   6.676   8.936  0.6622 -0.3177  0.1074
   74SLPC  H10X 6626   4.060   6.686   8.915  0.7694 -1.2243  0.1887
   74SLPC  H10Y 6627   3.884   6.759   8.904 -1.9680 -2.2139  0.3311
   74SLPC  C311 6628   3.921   6.552   8.852 -0.0751  0.0840  0.7761
   74SLPC  H11X 6629   3.817   6.526   8.883 -0.4574  1.5547  0.8226
   74SLPC  H11Y 6630   3.986   6.463   8.862  2.6007  1.5838 -1.7922
   74SLPC  C312 6631   3.925   6.594   8.703  0.1776 -0.1123  0.3434
   74SLPC  H12X 6632   4.011   6.662   8.686  1.1461 -0.9696  1.6937
   74SLPC  H12Y 6633   3.830   6.649   8.681  0.1165 -0.4949 -0.3544
   74SLPC  C313 6634   3.945   6.481   8.607 -0.0510  0.5193 -0.1654
   74SLPC  H13X 6635   3.886   6.390   8.630 -0.4376  1.2075  1.7513
   74SLPC  H13Y 6636   4.052   6.457   8.627  0.2355  1.4189 -0.5445
   74SLPC  C314 6637   3.935   6.519   8.455 -0.3319 -0.7378 -1.2956
   74SLPC  H14X 6638   3.834   6.548   8.421  0.4878  3.9015 -0.3696
   74SLPC  H14Y 6639   3.952   6.425   8.398  1.7766 -1.3133  0.1591
   74SLPC  C315 6640   4.029   6.640   8.410  0.5057  0.8122  0.7920
   74SLPC  H15X 6641   4.137   6.618   8.424  0.5057 -0.3710 -0.7848
   74SLPC  H15Y 6642   4.008   6.730   8.471  2.0399  2.3467 -0.7977
   74SLPC  C316 6643   3.991   6.673   8.263 -0.0563 -0.4403 -0.5173
   74SLPC  H16X 6644   3.884   6.703   8.258  0.3129  0.8152 -1.1930
   74SLPC  H16Y 6645   4.008   6.581   8.203  0.8321 -0.4939 -0.1855
   74SLPC  C317 6646   4.079   6.782   8.204  0.5237  0.3076 -0.2290
   74SLPC  H17X 6647   4.179   6.745   8.173  0.3045  0.2522 -0.8695
   74SLPC  H17Y 6648   4.090   6.863   8.280  0.0098 -1.6091  1.9780
   74SLPC  C318 6649   4.008   6.829   8.079 -0.3695  0.1328  0.1278
   74SLPC  H18X 6650   4.055   6.911   8.021 -1.2677  0.2067 -0.5217
   74SLPC  H18Y 6651   3.906   6.868   8.103 -0.6045  0.3914 -1.2586
   74SLPC  H18Z 6652   3.995   6.739   8.015  0.0487  0.8297 -0.9560
   75SLPC     N 6653   1.122   1.914   6.513 -0.5745  0.1316 -0.1392
   75SLPC   C13 6654   1.011   1.995   6.574  0.6824  0.2130 -0.2114
   75SLPC  H13A 6655   0.938   2.020   6.499 -0.7506 -0.5191  0.8865
   75SLPC  H13B 6656   0.961   1.932   6.646  2.0819 -0.1921  0.4461
   75SLPC  H13C 6657   1.045   2.084   6.625  2.9366 -0.5163 -0.3482
   75SLPC   C14 6658   1.231   1.895   6.622  0.1652  0.0824  0.2535
   75SLPC  H14A 6659   1.304   1.823   6.588 -1.1272 -1.9633  1.5596
   75SLPC  H14B 6660   1.277   1.990   6.644 -1.6319  0.9087  0.5796
   75SLPC  H14C 6661   1.184   1.854   6.710  0.1601  0.5273  0.4583
   75SLPC   C15 6662   1.191   2.004   6.417 -0.6398  0.3712 -0.0105
   75SLPC  H15A 6663   1.267   1.944   6.370 -2.0667 -1.7559  0.2683
   75SLPC  H15B 6664   1.129   2.042   6.337 -0.7381  1.5407  0.5948
   75SLPC  H15C 6665   1.230   2.087   6.474  0.0270  0.8831 -1.1913
   75SLPC   C12 6666   1.090   1.783   6.457  0.0937  0.2998  0.0917
   75SLPC  H12A 6667   1.173   1.728   6.414  0.0290  1.4048 -1.5291
   75SLPC  H12B 6668   1.035   1.792   6.364  0.3390 -0.9961 -0.2001
   75SLPC   C11 6669   1.015   1.687   6.548 -0.1717 -0.3449  0.0470
   75SLPC  H11A 6670   1.060   1.688   6.650  3.1934 -0.2016 -1.3143
   75SLPC  H11B 6671   1.034   1.588   6.501  1.0140  0.1260 -0.5010
   75SLPC     P 6672   0.764   1.660   6.460 -0.3082  0.0135 -0.0347
   75SLPC   O13 6673   0.649   1.754   6.468  0.1222 -0.2044  0.3183
   75SLPC   O14 6674   0.838   1.643   6.331  0.1199  0.7171 -0.2750
   75SLPC   O12 6675   0.868   1.715   6.571 -0.2108  0.1563  0.0702
   75SLPC   O11 6676   0.719   1.527   6.513 -0.4421 -0.4665 -0.6472
   75SLPC    C1 6677   0.658   1.521   6.641  0.0233 -0.0776 -0.1425
   75SLPC    HA 6678   0.619   1.619   6.675 -0.3163 -0.4589  0.5933
   75SLPC    HB 6679   0.574   1.448   6.653  0.8181 -0.9974 -0.0660
   75SLPC    C2 6680   0.758   1.460   6.752 -0.5927 -0.1308 -0.2983
   75SLPC    HS 6681   0.856   1.508   6.732 -0.0964 -0.4095  1.3201
   75SLPC   O21 6682   0.773   1.319   6.717 -0.2809 -0.1227  0.2891
   75SLPC   C21 6683   0.868   1.259   6.782 -0.2584 -0.4233 -0.1826
   75SLPC   O22 6684   0.936   1.309   6.871 -0.1830  0.1789  0.7162
   75SLPC   C22 6685   0.877   1.114   6.744 -0.1935 -0.1264  1.0859
   75SLPC   H2R 6686   0.807   1.089   6.661  1.3887 -0.3422 -0.2296
   75SLPC   H2S 6687   0.978   1.109   6.699 -0.8798  0.8846 -0.6975
   75SLPC    C3 6688   0.712   1.480   6.901 -0.3648 -0.0236 -0.1382
   75SLPC    HX 6689   0.795   1.458   6.971  0.4159  2.0246 -0.3789
   75SLPC    HY 6690   0.635   1.400   6.912  0.5932 -0.8425  0.8529
   75SLPC   O31 6691   0.657   1.612   6.929  0.3484 -0.0520 -0.2763
   75SLPC   C31 6692   0.697   1.660   7.047 -0.9809  0.1094  0.3092
   75SLPC   O32 6693   0.808   1.632   7.095  0.6679 -0.2166 -0.0325
   75SLPC   C32 6694   0.607   1.769   7.101 -0.1576 -0.6445  0.0660
   75SLPC   H2X 6695   0.500   1.741   7.090 -0.4675  0.3706  0.4389
   75SLPC   H2Y 6696   0.629   1.853   7.033 -0.6211 -0.3203  0.3151
   75SLPC   C23 6697   0.860   1.015   6.858  0.0864 -0.0715 -0.0867
   75SLPC   H3R 6698   0.809   0.922   6.826 -2.5405  0.1700  2.9357
   75SLPC   H3S 6699   0.779   1.052   6.924 -1.4541 -1.8185 -0.9246
   75SLPC   C24 6700   0.984   0.980   6.940 -0.1933  0.3611  0.3533
   75SLPC   H4R 6701   1.016   1.074   6.991 -0.3821  1.2335 -1.0816
   75SLPC   H4S 6702   1.073   0.947   6.882  0.5063  1.9351  0.4563
   75SLPC   C25 6703   0.951   0.885   7.048  0.2069 -0.1194  0.5270
   75SLPC   H5R 6704   0.972   0.781   7.016 -2.8112 -1.0302  1.1822
   75SLPC   H5S 6705   0.841   0.899   7.056 -0.0429  0.6373 -2.8286
   75SLPC   C26 6706   1.006   0.917   7.182 -1.1235  1.1539 -0.3766
   75SLPC   H6R 6707   1.003   1.027   7.200  0.9189  1.0920  0.5692
   75SLPC   H6S 6708   1.114   0.894   7.185 -0.8903  2.2620  2.2686
   75SLPC   C27 6709   0.940   0.841   7.295  0.5998  0.0121 -0.0369
   75SLPC   H7R 6710   0.955   0.734   7.271 -0.2972  0.2277 -1.7204
   75SLPC   H7S 6711   0.830   0.850   7.301  0.2209 -3.4384  0.2751
   75SLPC   C28 6712   1.020   0.870   7.424 -0.3984  0.5864  0.0998
   75SLPC   H8R 6713   1.010   0.980   7.439 -0.0560  0.3680  2.2955
   75SLPC   H8S 6714   1.125   0.842   7.404  0.3051  2.6143  0.6822
   75SLPC   C29 6715   0.958   0.786   7.533  0.3085  0.2830  0.3240
   75SLPC   H9R 6716   0.890   0.705   7.505  2.7246 -2.0670  0.8350
   75SLPC  C210 6717   0.975   0.812   7.666 -0.2962 -0.3579  0.3321
   75SLPC  H10R 6718   0.916   0.752   7.736 -3.1155 -1.0421 -2.4051
   75SLPC  C211 6719   1.059   0.922   7.724  0.0882  0.3445  0.4714
   75SLPC  H11R 6720   1.126   0.967   7.648  0.7263 -1.6615 -0.2352
   75SLPC  H11S 6721   1.129   0.873   7.795 -0.0832  0.8549  0.9970
   75SLPC  C212 6722   0.986   1.031   7.793  0.4790 -0.4274  0.7390
   75SLPC  H12R 6723   0.930   1.095   7.722  0.6184  0.5705  1.5106
   75SLPC  C213 6724   0.971   1.070   7.922 -0.5077  0.7472 -0.2373
   75SLPC  H13R 6725   0.903   1.152   7.949 -1.4987  0.1151 -0.7335
   75SLPC  C214 6726   1.033   1.000   8.046  0.8978 -0.8917 -0.0891
   75SLPC  H14R 6727   1.069   0.899   8.017  0.0175 -0.8272 -1.5162
   75SLPC  H14S 6728   0.943   0.987   8.110 -0.1055  2.0071 -0.7439
   75SLPC  C215 6729   1.144   1.080   8.096 -0.4633 -0.2715  0.9654
   75SLPC  H15R 6730   1.131   1.190   8.105 -1.3959  0.0916 -3.0324
   75SLPC  H15S 6731   1.233   1.075   8.029  0.8700  2.0071  2.4215
   75SLPC  C216 6732   1.190   1.020   8.231  0.2295 -0.7296  0.1439
   75SLPC  H16R 6733   1.210   0.910   8.229  0.0023 -0.7614 -2.0091
   75SLPC  H16S 6734   1.117   1.044   8.311  0.5254  1.6671 -0.2237
   75SLPC  C217 6735   1.324   1.074   8.289 -0.2245  0.3518  0.4438
   75SLPC  H17R 6736   1.321   1.177   8.331  0.6039  1.3444 -1.8099
   75SLPC  H17S 6737   1.388   1.081   8.199 -1.4197 -0.7195 -0.5286
   75SLPC  C218 6738   1.379   0.976   8.391 -0.0763 -0.0425  0.4080
   75SLPC  H18R 6739   1.482   1.008   8.417  0.2140 -0.8826  0.3092
   75SLPC  H18S 6740   1.391   0.874   8.348  2.0344  0.1877  0.3444
   75SLPC  H18T 6741   1.325   0.958   8.487  1.2346 -1.9738  0.8420
   75SLPC   C33 6742   0.636   1.824   7.243 -0.4972  0.2780 -0.8616
   75SLPC   H3X 6743   0.744   1.844   7.258 -0.7551  4.4885 -3.1299
   75SLPC   H3Y 6744   0.585   1.923   7.252 -1.1236 -0.0302 -0.9224
   75SLPC   C34 6745   0.578   1.724   7.358 -0.2617  0.2831 -0.2172
   75SLPC   H4X 6746   0.622   1.622   7.346 -0.0954  0.0348  2.0292
   75SLPC   H4Y 6747   0.471   1.716   7.327 -0.1449  2.3467 -1.3084
   75SLPC   C35 6748   0.588   1.780   7.508 -0.1680  0.6150 -0.7279
   75SLPC   H5X 6749   0.521   1.729   7.580  2.1708 -0.3497  0.8802
   75SLPC   H5Y 6750   0.543   1.881   7.495 -0.4167  0.7142  0.7873
   75SLPC   C36 6751   0.728   1.792   7.567 -0.9238 -0.2392  0.1167
   75SLPC   H6X 6752   0.725   1.850   7.662 -1.6326  1.2078 -0.7626
   75SLPC   H6Y 6753   0.788   1.861   7.504 -0.5403 -0.1228  0.6029
   75SLPC   C37 6754   0.811   1.658   7.561 -0.4053 -0.1767  0.0110
   75SLPC   H7X 6755   0.857   1.640   7.462 -1.4176 -1.3312 -0.2740
   75SLPC   H7Y 6756   0.740   1.575   7.581  0.4372 -0.7208  0.8633
   75SLPC   C38 6757   0.908   1.647   7.677 -0.1156  0.7472 -0.7004
   75SLPC   H8X 6758   0.848   1.639   7.770 -2.0001 -3.0150 -2.0422
   75SLPC   H8Y 6759   0.971   1.739   7.681 -1.1156  1.4880 -1.5225
   75SLPC   C39 6760   1.006   1.531   7.661 -0.5140  0.3736 -0.1236
   75SLPC   H9X 6761   1.074   1.546   7.574  1.2411 -1.9693  0.7669
   75SLPC   H9Y 6762   0.945   1.443   7.631  0.7230  0.0221 -1.6929
   75SLPC  C310 6763   1.084   1.513   7.786  0.1165  0.3436 -0.1498
   75SLPC  H10X 6764   1.139   1.417   7.782 -0.7406 -0.1087 -1.0712
   75SLPC  H10Y 6765   1.016   1.510   7.874 -0.8366 -0.9773 -0.9008
   75SLPC  C311 6766   1.197   1.621   7.803 -0.4766 -0.6160 -0.6450
   75SLPC  H11X 6767   1.155   1.715   7.843 -1.8931 -0.6452 -1.9800
   75SLPC  H11Y 6768   1.235   1.633   7.699 -2.1701 -0.1168 -1.2397
   75SLPC  C312 6769   1.314   1.576   7.891 -0.4469 -0.2931  0.4639
   75SLPC  H12X 6770   1.412   1.624   7.870 -1.3301  2.6417  2.4290
   75SLPC  H12Y 6771   1.340   1.468   7.885  1.0075  0.0398  0.5097
   75SLPC  C313 6772   1.292   1.625   8.039  0.7634 -0.2325 -0.5353
   75SLPC  H13X 6773   1.190   1.597   8.071 -0.1164  2.4834 -0.7481
   75SLPC  H13Y 6774   1.277   1.735   8.041 -1.2291 -0.4456  2.7641
   75SLPC  C314 6775   1.403   1.593   8.137  0.4232  0.0163  0.1163
   75SLPC  H14X 6776   1.494   1.646   8.103  0.3484  0.0364 -0.0518
   75SLPC  H14Y 6777   1.426   1.486   8.121 -1.1885 -0.2265 -0.7619
   75SLPC  C315 6778   1.360   1.603   8.279 -0.4382  0.0823 -0.5316
   75SLPC  H15X 6779   1.308   1.701   8.285 -2.7445 -1.1373  0.8738
   75SLPC  H15Y 6780   1.452   1.597   8.340 -1.4808  4.8276  1.9804
   75SLPC  C316 6781   1.263   1.499   8.338 -0.0871  0.4444  0.8204
   75SLPC  H16X 6782   1.313   1.400   8.342 -0.4759  0.2885  3.0310
   75SLPC  H16Y 6783   1.172   1.482   8.277  0.7874 -1.1412 -0.1176
   75SLPC  C317 6784   1.217   1.547   8.475 -0.7480  0.1186  0.0621
   75SLPC  H17X 6785   1.147   1.632   8.462  0.5630  1.4904  1.6021
   75SLPC  H17Y 6786   1.303   1.592   8.529 -1.2119 -0.2944  1.1771
   75SLPC  C318 6787   1.161   1.435   8.565  0.1948 -0.7238 -0.3756
   75SLPC  H18X 6788   1.244   1.402   8.631 -1.2375  2.5266  3.4191
   75SLPC  H18Y 6789   1.107   1.362   8.500 -3.5050 -0.2016  1.7898
   75SLPC  H18Z 6790   1.080   1.469   8.633 -1.5403 -0.3138 -2.5335
   76SLPC     N 6791   2.655   6.778   6.235  0.3188 -0.1171 -0.2728
   76SLPC   C13 6792   2.707   6.752   6.377  0.1492 -1.0014  0.3819
   76SLPC  H13A 6793   2.724   6.848   6.424 -3.8491  1.1949 -2.0190
   76SLPC  H13B 6794   2.643   6.711   6.453  0.1098  0.0225  0.9233
   76SLPC  H13C 6795   2.806   6.708   6.370 -0.0206 -1.1638 -1.6771
   76SLPC   C14 6796   2.619   6.648   6.168  0.0383  0.1899 -0.7050
   76SLPC  H14A 6797   2.594   6.668   6.064 -0.7265  1.0905 -0.3625
   76SLPC  H14B 6798   2.704   6.583   6.180  1.7372  1.8997 -2.6695
   76SLPC  H14C 6799   2.528   6.608   6.211  0.6517  0.5577  0.9963
   76SLPC   C15 6800   2.778   6.837   6.163 -0.3802 -0.0243 -0.1380
   76SLPC  H15A 6801   2.863   6.770   6.163  0.3839  0.9041 -1.6551
   76SLPC  H15B 6802   2.751   6.852   6.060 -0.7007  0.4218  0.0064
   76SLPC  H15C 6803   2.799   6.939   6.191 -1.5227  0.9624 -2.6373
   76SLPC   C12 6804   2.542   6.878   6.237  0.5276  0.3310 -0.0813
   76SLPC  H12A 6805   2.561   6.949   6.316 -1.3804  0.9631 -0.1491
   76SLPC  H12B 6806   2.453   6.823   6.264  0.6272 -0.6312 -1.6104
   76SLPC   C11 6807   2.516   6.955   6.107 -0.3861 -0.9902 -0.3768
   76SLPC  H11A 6808   2.514   6.886   6.020 -1.0910 -1.2399 -0.1710
   76SLPC  H11B 6809   2.598   7.026   6.084 -1.9961  0.6699 -1.2252
   76SLPC     P 6810   2.386   7.166   6.169  0.0350  0.2851  0.4221
   76SLPC   O13 6811   2.472   7.256   6.098  0.0035 -0.2398 -0.0918
   76SLPC   O14 6812   2.248   7.207   6.187  0.3258 -0.2641 -0.1799
   76SLPC   O12 6813   2.385   7.022   6.115 -0.5572  0.1610 -0.3846
   76SLPC   O11 6814   2.463   7.144   6.312 -0.4464 -0.0633 -0.2637
   76SLPC    C1 6815   2.535   7.245   6.375  0.0290 -0.0666  0.6703
   76SLPC    HA 6816   2.591   7.305   6.301 -0.0816  0.9639  1.3990
   76SLPC    HB 6817   2.476   7.321   6.431  0.0728  1.2255 -0.9642
   76SLPC    C2 6818   2.633   7.201   6.480 -0.1553 -0.3610  0.0949
   76SLPC    HS 6819   2.696   7.127   6.427  0.7754  1.3801 -1.3355
   76SLPC   O21 6820   2.550   7.152   6.593  0.3552  0.4123 -0.6955
   76SLPC   C21 6821   2.608   7.054   6.653 -0.7256  0.1502 -0.5674
   76SLPC   O22 6822   2.705   6.990   6.619  0.7520  0.3610 -0.2727
   76SLPC   C22 6823   2.517   7.014   6.777 -0.3205 -0.6133 -0.3572
   76SLPC   H2R 6824   2.543   7.079   6.863 -1.1860  0.5376 -0.9313
   76SLPC   H2S 6825   2.420   7.057   6.742 -0.5705 -0.0983  0.9093
   76SLPC    C3 6826   2.727   7.330   6.520 -0.3579 -0.4683  0.4138
   76SLPC    HX 6827   2.652   7.398   6.565  0.2201  0.4472 -0.0024
   76SLPC    HY 6828   2.768   7.370   6.425 -4.2075  1.0797 -0.7557
   76SLPC   O31 6829   2.831   7.314   6.619 -0.1832  0.6813  0.0179
   76SLPC   C31 6830   2.939   7.251   6.575  0.3990  0.0129 -0.2758
   76SLPC   O32 6831   2.956   7.223   6.457  0.4768  0.0679  0.1257
   76SLPC   C32 6832   3.037   7.220   6.688 -0.4492  0.1401  0.0507
   76SLPC   H2X 6833   3.107   7.307   6.694  2.0983 -1.7796  5.4883
   76SLPC   H2Y 6834   3.095   7.133   6.651  0.6398  0.8934 -0.1029
   76SLPC   C23 6835   2.522   6.869   6.817  0.1090 -0.0634 -0.7256
   76SLPC   H3R 6836   2.520   6.796   6.733  0.4934 -4.6443  2.7981
   76SLPC   H3S 6837   2.434   6.845   6.880  1.3884 -0.5084  0.9612
   76SLPC   C24 6838   2.644   6.821   6.910 -0.0727 -0.3188 -0.1655
   76SLPC   H4R 6839   2.742   6.847   6.864 -1.4827 -0.7614 -3.7050
   76SLPC   H4S 6840   2.648   6.710   6.920  1.9866 -0.2781 -0.1931
   76SLPC   C25 6841   2.642   6.882   7.057  0.9360 -0.3336 -0.3024
   76SLPC   H5R 6842   2.545   6.866   7.108  0.8642  2.1357  0.4780
   76SLPC   H5S 6843   2.662   6.991   7.060 -1.9876  0.2962 -0.2616
   76SLPC   C26 6844   2.745   6.814   7.135  0.5714  0.2677 -0.0467
   76SLPC   H6R 6845   2.846   6.823   7.089  1.1287  0.7870  1.2496
   76SLPC   H6S 6846   2.710   6.709   7.143 -3.9891  1.6304  0.6981
   76SLPC   C27 6847   2.757   6.882   7.277 -0.0560  0.0104  0.6105
   76SLPC   H7R 6848   2.663   6.869   7.335  0.3568 -0.3214  1.2229
   76SLPC   H7S 6849   2.765   6.992   7.260 -2.0256  0.1438  0.3424
   76SLPC   C28 6850   2.874   6.829   7.353 -0.4811  0.1162  0.1683
   76SLPC   H8R 6851   2.960   6.811   7.285  1.0096  1.1541  1.6875
   76SLPC   H8S 6852   2.919   6.909   7.415 -1.3785 -0.6701  1.9171
   76SLPC   C29 6853   2.842   6.709   7.436 -0.5610  0.5044 -0.3161
   76SLPC   H9R 6854   2.808   6.620   7.382  3.2013 -1.0109 -0.5335
   76SLPC  C210 6855   2.848   6.694   7.572 -0.4726 -0.0080 -0.0832
   76SLPC  H10R 6856   2.810   6.601   7.615 -1.5639  0.8196  0.8208
   76SLPC  C211 6857   2.890   6.802   7.671 -0.3844  0.3485 -0.0456
   76SLPC  H11R 6858   2.894   6.900   7.620 -0.1388 -0.6145 -1.9587
   76SLPC  H11S 6859   2.992   6.794   7.713  0.0605 -1.8803 -1.4165
   76SLPC  C212 6860   2.787   6.805   7.778  0.2669 -0.8979 -0.2625
   76SLPC  H12R 6861   2.695   6.854   7.743 -0.0129 -2.5196 -1.9629
   76SLPC  C213 6862   2.792   6.768   7.908 -0.0091  0.7122  0.0323
   76SLPC  H13R 6863   2.702   6.754   7.969 -0.0200 -4.8696 -0.7727
   76SLPC  C214 6864   2.915   6.705   7.981  0.3932 -0.0210 -0.2746
   76SLPC  H14R 6865   3.007   6.760   7.953 -0.3170  0.6163 -1.4924
   76SLPC  H14S 6866   2.925   6.597   7.958  4.1093  0.4012 -1.1476
   76SLPC  C215 6867   2.897   6.729   8.132 -0.1768 -0.8318  0.2329
   76SLPC  H15R 6868   2.792   6.730   8.168 -0.1416 -1.3766  0.3651
   76SLPC  H15S 6869   2.935   6.831   8.151  2.2118 -1.3011 -1.5026
   76SLPC  C216 6870   2.983   6.631   8.218  0.3154  0.0949  0.8568
   76SLPC  H16R 6871   3.086   6.619   8.178  1.4836  1.6154  3.1566
   76SLPC  H16S 6872   2.935   6.531   8.216  0.0946  0.1459  2.2866
   76SLPC  C217 6873   2.987   6.678   8.359 -0.5525 -0.2278  0.6150
   76SLPC  H17R 6874   2.885   6.692   8.401  0.1143 -0.6212  2.4827
   76SLPC  H17S 6875   3.043   6.774   8.352 -1.0252  0.1709  2.0154
   76SLPC  C218 6876   3.069   6.573   8.438  0.2020  0.2630 -1.0362
   76SLPC  H18R 6877   3.170   6.554   8.396  1.5200 -1.6620  2.5270
   76SLPC  H18S 6878   3.035   6.468   8.456  1.2858  0.0878  0.1147
   76SLPC  H18T 6879   3.083   6.614   8.540  2.3830  1.1475 -1.6400
   76SLPC   C33 6880   2.976   7.192   6.822 -0.3271  0.2128  0.0613
   76SLPC   H3X 6881   2.917   7.098   6.828 -0.2688  0.1359 -0.5508
   76SLPC   H3Y 6882   2.908   7.270   6.862 -1.1287 -1.7237  2.7704
   76SLPC   C34 6883   3.085   7.152   6.925 -0.0301  0.2688 -0.1445
   76SLPC   H4X 6884   3.181   7.204   6.906  0.5673 -1.1665 -1.3357
   76SLPC   H4Y 6885   3.128   7.055   6.893  1.3612  0.9086 -0.2557
   76SLPC   C35 6886   3.032   7.124   7.071  0.5632  0.4670  0.4269
   76SLPC   H5X 6887   2.959   7.040   7.079  1.6181 -0.4118  1.0232
   76SLPC   H5Y 6888   2.976   7.212   7.111 -0.6307 -0.6720  1.3237
   76SLPC   C36 6889   3.156   7.083   7.150 -0.4043  0.1828 -0.2776
   76SLPC   H6X 6890   3.241   7.137   7.103  0.7729 -0.6455  0.8354
   76SLPC   H6Y 6891   3.164   6.974   7.128 -2.7274 -0.3068  0.9380
   76SLPC   C37 6892   3.153   7.109   7.303  0.1144 -0.3741  0.1424
   76SLPC   H7X 6893   3.058   7.064   7.339 -1.3328 -1.1629 -4.0226
   76SLPC   H7Y 6894   3.137   7.218   7.319  0.2276 -0.0414 -1.7652
   76SLPC   C38 6895   3.273   7.053   7.379  0.3467  0.1978  0.8130
   76SLPC   H8X 6896   3.368   7.105   7.353 -0.3634  0.6772 -0.9964
   76SLPC   H8Y 6897   3.294   6.945   7.363 -1.6442 -0.0623 -0.3568
   76SLPC   C39 6898   3.258   7.080   7.529  0.0138  0.8955 -0.0823
   76SLPC   H9X 6899   3.160   7.037   7.561  1.1266 -0.3828  1.8607
   76SLPC   H9Y 6900   3.245   7.189   7.548 -0.8976  1.2052 -2.2474
   76SLPC  C310 6901   3.354   7.034   7.635 -0.2239  0.1046 -1.0863
   76SLPC  H10X 6902   3.446   7.097   7.637 -0.3719  0.3177 -0.9640
   76SLPC  H10Y 6903   3.384   6.927   7.628 -0.9997 -0.0616 -2.0822
   76SLPC  C311 6904   3.286   7.046   7.779 -0.8647  0.0750  0.5051
   76SLPC  H11X 6905   3.197   6.979   7.772 -0.3614 -0.5373 -0.1868
   76SLPC  H11Y 6906   3.251   7.150   7.794  0.4485  0.6790 -0.4587
   76SLPC  C312 6907   3.379   7.025   7.901  0.1463 -0.9281  0.4105
   76SLPC  H12X 6908   3.321   7.064   7.987  0.6265 -0.7271  0.6498
   76SLPC  H12Y 6909   3.478   7.076   7.900 -0.3530  0.0631 -0.8691
   76SLPC  C313 6910   3.394   6.875   7.930  0.9500 -0.2303  0.5502
   76SLPC  H13X 6911   3.462   6.824   7.858  0.0187  0.6017 -0.9958
   76SLPC  H13Y 6912   3.291   6.835   7.920  1.0475 -0.4881  0.5643
   76SLPC  C314 6913   3.439   6.850   8.076 -0.3697 -0.3286  0.3757
   76SLPC  H14X 6914   3.465   6.743   8.089  1.9493  0.3026  1.4829
   76SLPC  H14Y 6915   3.368   6.881   8.156  2.2931  1.2058  2.2968
   76SLPC  C315 6916   3.576   6.914   8.115  1.0399 -0.1986 -0.0611
   76SLPC  H15X 6917   3.566   7.024   8.126 -1.8285 -0.5814  2.3983
   76SLPC  H15Y 6918   3.646   6.885   8.034 -0.3707 -0.9504 -1.0336
   76SLPC  C316 6919   3.624   6.860   8.246  0.1073 -1.2463 -0.7598
   76SLPC  H16X 6920   3.733   6.880   8.261  0.3920 -0.7468 -3.0523
   76SLPC  H16Y 6921   3.613   6.750   8.250 -1.3612 -1.0873 -0.0339
   76SLPC  C317 6922   3.551   6.919   8.378 -0.0788  0.3277  0.5134
   76SLPC  H17X 6923   3.440   6.909   8.376 -0.0888  0.4871  0.1445
   76SLPC  H17Y 6924   3.559   7.029   8.388 -0.4491  0.2871  1.3451
   76SLPC  C318 6925   3.608   6.856   8.506 -0.1468  0.7148  0.1748
   76SLPC  H18X 6926   3.713   6.888   8.522 -0.2132  2.2491 -1.9947
   76SLPC  H18Y 6927   3.610   6.746   8.518 -1.5523  0.4021 -1.9649
   76SLPC  H18Z 6928   3.552   6.896   8.593 -0.2698 -1.0388  0.9369
   77SLPC     N 6929   5.290   1.753   6.324 -1.1267 -1.0237 -0.8113
   77SLPC   C13 6930   5.146   1.765   6.283 -0.3529  0.0326  0.3269
   77SLPC  H13A 6931   5.130   1.706   6.193  0.1245  1.7075 -0.9043
   77SLPC  H13B 6932   5.088   1.723   6.363  1.4766  1.5321  2.5512
   77SLPC  H13C 6933   5.118   1.865   6.254  2.1308  0.8220  0.4160
   77SLPC   C14 6934   5.309   1.866   6.423 -0.4199 -0.3974 -0.3072
   77SLPC  H14A 6935   5.278   1.843   6.524 -0.5519  0.9745 -0.0192
   77SLPC  H14B 6936   5.412   1.895   6.434 -0.3749 -0.9623  0.9268
   77SLPC  H14C 6937   5.257   1.959   6.403  1.9877  0.5813 -2.7030
   77SLPC   C15 6938   5.373   1.792   6.207  0.4502 -0.0076  0.7093
   77SLPC  H15A 6939   5.475   1.797   6.242  0.8175  0.8868 -0.4386
   77SLPC  H15B 6940   5.369   1.716   6.132 -4.4229 -1.6801  2.2957
   77SLPC  H15C 6941   5.342   1.884   6.159 -0.9955 -0.1283  1.3491
   77SLPC   C12 6942   5.333   1.612   6.363  0.4919 -0.1281 -0.1916
   77SLPC  H12A 6943   5.440   1.598   6.361  0.8027  2.0001 -1.6387
   77SLPC  H12B 6944   5.299   1.542   6.287 -0.1469 -0.2440  0.1915
   77SLPC   C11 6945   5.282   1.551   6.495 -0.4319 -0.4174 -0.6057
   77SLPC  H11A 6946   5.317   1.617   6.578 -1.6271  1.0907 -1.2298
   77SLPC  H11B 6947   5.339   1.457   6.506  1.3339  0.7239  0.5944
   77SLPC     P 6948   5.081   1.396   6.451 -0.2370 -0.0113  0.2196
   77SLPC   O13 6949   4.931   1.408   6.472 -0.1986 -0.0567  0.4299
   77SLPC   O14 6950   5.120   1.348   6.319 -0.1743 -0.4095 -0.1766
   77SLPC   O12 6951   5.147   1.537   6.488 -0.1579  0.6613 -0.0173
   77SLPC   O11 6952   5.137   1.300   6.567 -0.1349 -0.3802 -0.1178
   77SLPC    C1 6953   5.112   1.352   6.700  0.2452 -0.0902 -0.2048
   77SLPC    HA 6954   5.155   1.451   6.726 -3.6958  1.3436  1.7010
   77SLPC    HB 6955   5.007   1.384   6.714  0.3831  0.0563  0.5631
   77SLPC    C2 6956   5.138   1.264   6.826  0.5682 -0.6358  0.9974
   77SLPC    HS 6957   5.249   1.253   6.830  0.8263  0.4146 -1.2917
   77SLPC   O21 6958   5.077   1.138   6.781  0.3149 -0.5675 -0.2328
   77SLPC   C21 6959   5.128   1.036   6.836  0.0469  0.4839 -0.8552
   77SLPC   O22 6960   5.218   1.035   6.918 -0.2224  0.0028 -0.3528
   77SLPC   C22 6961   5.031   0.916   6.808  0.5598 -0.1932  0.0345
   77SLPC   H2R 6962   4.930   0.963   6.810  0.4535 -0.4275  1.3170
   77SLPC   H2S 6963   5.039   0.871   6.707  2.3086  2.5824 -1.1784
   77SLPC    C3 6964   5.072   1.318   6.952  0.7669 -0.6520  0.3995
   77SLPC    HX 6965   4.963   1.327   6.930  0.7045 -0.1185  0.8990
   77SLPC    HY 6966   5.112   1.420   6.971  0.0981 -0.1126 -0.9804
   77SLPC   O31 6967   5.072   1.232   7.066  0.4132 -0.2552 -0.4701
   77SLPC   C31 6968   5.182   1.250   7.141 -0.1269  0.0725  0.5437
   77SLPC   O32 6969   5.268   1.336   7.114  0.7337 -0.5541 -0.1105
   77SLPC   C32 6970   5.197   1.149   7.259 -0.0707  0.8758  0.1310
   77SLPC   H2X 6971   5.278   1.080   7.226  0.5424  0.2005  2.8177
   77SLPC   H2Y 6972   5.102   1.091   7.257 -0.2727  1.1559  1.2428
   77SLPC   C23 6973   5.021   0.810   6.916 -0.1770 -0.1999 -0.4538
   77SLPC   H3R 6974   4.990   0.864   7.008 -1.3857 -1.2707 -0.2041
   77SLPC   H3S 6975   5.119   0.760   6.929 -0.4420 -1.7727 -3.4840
   77SLPC   C24 6976   4.915   0.698   6.880  0.5776 -0.3135 -0.0982
   77SLPC   H4R 6977   4.931   0.655   6.779 -2.3861  1.3486 -1.4111
   77SLPC   H4S 6978   4.815   0.746   6.869  1.2843  1.1582 -0.4164
   77SLPC   C25 6979   4.891   0.593   6.991  0.2753  0.5413  0.8039
   77SLPC   H5R 6980   4.800   0.538   6.958 -0.2610  2.8143 -1.9589
   77SLPC   H5S 6981   4.868   0.651   7.083 -2.4517  1.7795 -0.5448
   77SLPC   C26 6982   5.008   0.498   6.992  0.3655 -0.1054 -0.3298
   77SLPC   H6R 6983   5.109   0.543   7.007  0.9272 -1.4242  0.0003
   77SLPC   H6S 6984   5.001   0.464   6.886 -1.8178  1.2693 -0.6924
   77SLPC   C27 6985   4.981   0.388   7.092 -0.1405 -0.0528 -0.6648
   77SLPC   H7R 6986   4.875   0.355   7.096 -0.5077  1.1675  2.0828
   77SLPC   H7S 6987   4.999   0.438   7.189 -1.4833 -0.8840  0.0467
   77SLPC   C28 6988   5.072   0.268   7.083  0.4132 -0.4641 -0.3051
   77SLPC   H8R 6989   5.068   0.228   7.186 -0.4993 -1.1019 -0.5715
   77SLPC   H8S 6990   5.176   0.304   7.071 -0.1209  0.8415 -1.3280
   77SLPC   C29 6991   5.027   0.166   6.971 -0.0523  0.6341  0.1058
   77SLPC   H9R 6992   5.015   0.222   6.877  0.6329  0.8952  0.1680
   77SLPC  C210 6993   5.011   0.030   6.978  0.2176 -0.1923  1.0790
   77SLPC  H10R 6994   4.974  -0.032   6.895 -0.1166 -0.1798  1.2193
   77SLPC  C211 6995   5.038  -0.047   7.103  0.1535  0.2775  0.0719
   77SLPC  H11R 6996   4.948  -0.043   7.168  2.0404  2.6887  2.7631
   77SLPC  H11S 6997   5.112   0.009   7.163  0.9003 -2.7685  2.2291
   77SLPC  C212 6998   5.075  -0.192   7.083  0.1793 -0.5190 -0.2228
   77SLPC  H12R 6999   5.141  -0.211   6.997 -0.5406 -1.4179 -0.5932
   77SLPC  C213 7000   5.044  -0.291   7.161 -0.0666  0.6038 -0.7206
   77SLPC  H13R 7001   5.071  -0.388   7.115  0.6689 -0.0035  0.9023
   77SLPC  C214 7002   4.966  -0.299   7.292 -0.3722  0.2831 -0.5969
   77SLPC  H14R 7003   4.914  -0.208   7.330  1.3256  0.6355  1.0337
   77SLPC  H14S 7004   5.030  -0.329   7.377  0.9452  2.3382 -0.8052
   77SLPC  C215 7005   4.866  -0.415   7.264  0.5621  0.9620 -0.4604
   77SLPC  H15R 7006   4.851  -0.462   7.363  0.6576  3.4413  0.8120
   77SLPC  H15S 7007   4.918  -0.500   7.215  0.4381  1.0297 -0.7077
   77SLPC  C216 7008   4.736  -0.369   7.200  0.3887  0.5670  0.1575
   77SLPC  H16R 7009   4.760  -0.325   7.101  0.8313 -0.5544 -0.2479
   77SLPC  H16S 7010   4.699  -0.283   7.260  2.1098  0.8095  0.9332
   77SLPC  C217 7011   4.640  -0.483   7.189  1.0035 -0.2627  0.1772
   77SLPC  H17R 7012   4.684  -0.563   7.126  0.3076 -0.7752  0.3402
   77SLPC  H17S 7013   4.547  -0.453   7.137 -0.6729  0.6380  3.3864
   77SLPC  C218 7014   4.608  -0.554   7.325 -0.1539 -0.3196  0.1691
   77SLPC  H18R 7015   4.612  -0.483   7.411  0.6477 -0.3985  0.2016
   77SLPC  H18S 7016   4.682  -0.634   7.345  0.2653  0.5747  2.5605
   77SLPC  H18T 7017   4.505  -0.597   7.323  0.1743 -1.1017 -1.7912
   77SLPC   C33 7018   5.209   1.207   7.406  0.4909 -0.0429 -0.3183
   77SLPC   H3X 7019   5.145   1.297   7.406  1.6256  0.7826  0.2166
   77SLPC   H3Y 7020   5.314   1.231   7.432 -0.5434  1.7181  2.6446
   77SLPC   C34 7021   5.170   1.104   7.516  0.4959  0.9135 -0.1597
   77SLPC   H4X 7022   5.235   1.018   7.490  0.2544  0.3615  0.9895
   77SLPC   H4Y 7023   5.063   1.074   7.514  0.7446 -0.4026  2.5921
   77SLPC   C35 7024   5.205   1.149   7.656  0.5975 -0.1173 -0.0597
   77SLPC   H5X 7025   5.175   1.255   7.672  2.7719  0.6103 -0.5077
   77SLPC   H5Y 7026   5.315   1.145   7.668  0.7047  1.1218 -0.4264
   77SLPC   C36 7027   5.131   1.060   7.763 -0.6954 -0.2556  0.4331
   77SLPC   H6X 7028   5.138   0.953   7.735 -0.8876 -0.0878 -0.2719
   77SLPC   H6Y 7029   5.020   1.063   7.766 -0.7927 -0.6630 -1.4933
   77SLPC   C37 7030   5.191   1.085   7.905 -0.5374  0.1371 -0.1139
   77SLPC   H7X 7031   5.159   1.186   7.937 -0.0901  0.4215 -0.5441
   77SLPC   H7Y 7032   5.301   1.074   7.903 -0.1887  1.4563  3.5777
   77SLPC   C38 7033   5.134   0.968   7.989  0.3590 -0.2268  0.6148
   77SLPC   H8X 7034   5.157   0.870   7.943  0.9918  0.4776 -0.6147
   77SLPC   H8Y 7035   5.023   0.980   7.986  0.5600  1.8387 -0.3291
   77SLPC   C39 7036   5.179   0.950   8.132 -0.2576  0.0392 -0.0746
   77SLPC   H9X 7037   5.100   0.899   8.192 -0.7590  1.0418  0.1506
   77SLPC   H9Y 7038   5.195   1.046   8.186 -0.7625 -0.3857  0.8557
   77SLPC  C310 7039   5.312   0.863   8.140  0.3027 -0.4810 -0.8158
   77SLPC  H10X 7040   5.383   0.920   8.075 -0.7724  1.9964  0.0539
   77SLPC  H10Y 7041   5.292   0.765   8.092  1.6552 -0.7261 -0.9267
   77SLPC  C311 7042   5.365   0.844   8.280 -0.7617 -0.3443 -0.1324
   77SLPC  H11X 7043   5.308   0.772   8.343 -3.8056  0.7949 -1.3907
   77SLPC  H11Y 7044   5.359   0.943   8.331 -0.3897 -1.7713  2.9338
   77SLPC  C312 7045   5.511   0.797   8.288 -0.6412 -0.6955 -0.3866
   77SLPC  H12X 7046   5.555   0.810   8.389 -0.1797 -1.3128 -0.5034
   77SLPC  H12Y 7047   5.578   0.857   8.223  0.6598  0.6174  2.0347
   77SLPC  C313 7048   5.525   0.653   8.232  0.2401  0.0029 -0.8197
   77SLPC  H13X 7049   5.467   0.649   8.137  1.5644  0.5781 -1.6814
   77SLPC  H13Y 7050   5.486   0.579   8.306  2.4927  0.5252  1.0156
   77SLPC  C314 7051   5.665   0.606   8.190 -0.0584  0.1971 -0.9147
   77SLPC  H14X 7052   5.698   0.672   8.107  1.6410 -0.3692 -0.7281
   77SLPC  H14Y 7053   5.661   0.498   8.166  1.1652 -0.2928  0.8859
   77SLPC  C315 7054   5.782   0.611   8.294 -0.7075  0.8816 -0.8354
   77SLPC  H15X 7055   5.738   0.630   8.394 -1.3060 -1.2765 -0.6466
   77SLPC  H15Y 7056   5.845   0.701   8.273 -0.7387  1.4591  1.3196
   77SLPC  C316 7057   5.852   0.471   8.296  0.2227 -0.5618  0.0843
   77SLPC  H16X 7058   5.924   0.472   8.211 -1.2460 -0.6119 -1.1899
   77SLPC  H16Y 7059   5.775   0.392   8.288 -0.1162 -0.2515  0.2339
   77SLPC  C317 7060   5.926   0.460   8.428 -0.5790 -0.0167  0.1024
   77SLPC  H17X 7061   5.961   0.355   8.432  1.4836  0.6476  2.2756
   77SLPC  H17Y 7062   5.859   0.470   8.516  0.6250 -1.8809  1.3075
   77SLPC  C318 7063   6.054   0.535   8.453  0.3143 -0.2062  0.2493
   77SLPC  H18X 7064   6.028   0.643   8.442  3.0949  0.5106  0.0327
   77SLPC  H18Y 7065   6.140   0.508   8.389 -0.4005  0.2484 -0.9451
   77SLPC  H18Z 7066   6.091   0.532   8.558  1.1540  0.9868  0.0106
   78SLPC     N 7067   0.856   1.264   6.253 -0.2714  0.2089  0.0751
   78SLPC   C13 7068   0.929   1.269   6.124 -0.0265  0.6336  0.2152
   78SLPC  H13A 7069   1.024   1.220   6.135  0.4522  1.3659 -0.5545
   78SLPC  H13B 7070   0.871   1.208   6.056  1.7047  0.7240 -1.3880
   78SLPC  H13C 7071   0.941   1.363   6.072  0.9108  1.4118  1.7515
   78SLPC   C14 7072   0.719   1.321   6.225 -0.1405 -0.3864 -0.0450
   78SLPC  H14A 7073   0.660   1.341   6.314  1.6282  1.1321  0.8754
   78SLPC  H14B 7074   0.727   1.417   6.176  2.2633 -1.6798 -2.4368
   78SLPC  H14C 7075   0.666   1.270   6.147  1.0616  0.7013 -1.6326
   78SLPC   C15 7076   0.913   1.350   6.357 -0.8402 -0.3518 -0.8245
   78SLPC  H15A 7077   0.853   1.352   6.447 -2.3358 -0.8678 -1.7735
   78SLPC  H15B 7078   1.007   1.309   6.390 -1.4677  0.5357  2.4496
   78SLPC  H15C 7079   0.925   1.454   6.329 -0.1345 -0.7706 -2.1507
   78SLPC   C12 7080   0.848   1.119   6.300 -0.9227  0.0912  0.2383
   78SLPC  H12A 7081   0.813   1.052   6.222 -1.3556  0.4901  0.0812
   78SLPC  H12B 7082   0.780   1.124   6.384 -1.3461  1.3386 -0.1465
   78SLPC   C11 7083   0.980   1.040   6.335 -0.1184  0.3024  0.4246
   78SLPC  H11A 7084   0.951   0.940   6.375  1.7196 -0.4356  0.0047
   78SLPC  H11B 7085   1.020   1.088   6.427 -1.0144  1.6093  0.1645
   78SLPC     P 7086   1.219   1.049   6.233 -0.4079  0.1250  0.1174
   78SLPC   O13 7087   1.290   0.965   6.137  0.2772  0.2044  0.4261
   78SLPC   O14 7088   1.237   1.201   6.222 -0.1772  0.1561  0.2560
   78SLPC   O12 7089   1.064   1.018   6.225  0.8035 -0.1122  0.3103
   78SLPC   O11 7090   1.271   0.988   6.370  0.1044  1.0288 -0.0340
   78SLPC    C1 7091   1.239   0.849   6.395 -0.3782  0.3713  0.1257
   78SLPC    HA 7092   1.148   0.846   6.459  0.2992 -0.3165  1.0881
   78SLPC    HB 7093   1.229   0.797   6.298  2.1129  0.8913 -0.4972
   78SLPC    C2 7094   1.351   0.793   6.482 -0.0044  0.5018  0.8816
   78SLPC    HS 7095   1.334   0.686   6.504  0.8783  0.1218 -0.2237
   78SLPC   O21 7096   1.362   0.874   6.600 -0.3861  0.0468 -0.6910
   78SLPC   C21 7097   1.399   0.819   6.713 -0.1955  0.1284 -0.2020
   78SLPC   O22 7098   1.443   0.705   6.725 -1.0483 -0.0445 -0.1029
   78SLPC   C22 7099   1.374   0.920   6.820 -0.0383 -0.5677 -0.0804
   78SLPC   H2R 7100   1.459   0.991   6.830  1.2032 -2.0473  0.4583
   78SLPC   H2S 7101   1.289   0.987   6.795  1.1527  1.4532  1.0004
   78SLPC    C3 7102   1.485   0.802   6.409  0.0457  0.6763 -0.0866
   78SLPC    HX 7103   1.508   0.905   6.373  0.1068  1.0116  0.8716
   78SLPC    HY 7104   1.470   0.750   6.312  2.0798  0.4483 -0.3281
   78SLPC   O31 7105   1.601   0.762   6.487  0.1683  0.1134  0.6103
   78SLPC   C31 7106   1.620   0.632   6.477 -0.0342  0.3477  0.1845
   78SLPC   O32 7107   1.558   0.549   6.411  0.3153  0.6213 -0.2625
   78SLPC   C32 7108   1.732   0.579   6.570  0.7155  0.3232  0.2802
   78SLPC   H2X 7109   1.810   0.531   6.508  0.9219 -0.0240  0.8056
   78SLPC   H2Y 7110   1.673   0.503   6.626 -1.0263  0.6634 -1.0162
   78SLPC   C23 7111   1.351   0.859   6.959  0.5835 -0.0283  0.3586
   78SLPC   H3R 7112   1.265   0.788   6.958  0.8931 -0.4522  1.5186
   78SLPC   H3S 7113   1.319   0.948   7.018 -0.7832  3.4900 -4.9566
   78SLPC   C24 7114   1.467   0.801   7.035 -0.1657  0.5109 -0.5851
   78SLPC   H4R 7115   1.528   0.880   7.084 -1.7551  0.9746  0.7236
   78SLPC   H4S 7116   1.535   0.742   6.969 -0.8834 -1.5609  0.4611
   78SLPC   C25 7117   1.411   0.716   7.148 -0.2917 -0.2742 -0.2953
   78SLPC   H5R 7118   1.351   0.635   7.103 -0.0482 -0.6999  0.1387
   78SLPC   H5S 7119   1.340   0.770   7.215 -0.2233  0.1920 -0.5941
   78SLPC   C26 7120   1.514   0.640   7.240  0.8632 -0.3088  0.4120
   78SLPC   H6R 7121   1.594   0.711   7.270 -0.4429  1.6095 -0.4064
   78SLPC   H6S 7122   1.550   0.557   7.175  0.2052 -2.2582  2.4158
   78SLPC   C27 7123   1.459   0.580   7.371 -1.2310 -0.8247  0.4237
   78SLPC   H7R 7124   1.523   0.493   7.398  0.0031 -0.2393 -0.5163
   78SLPC   H7S 7125   1.357   0.538   7.356 -2.5868  2.4326 -0.3906
   78SLPC   C28 7126   1.446   0.683   7.488  0.0591 -0.1246  0.6473
   78SLPC   H8R 7127   1.401   0.772   7.439  2.6829  0.5803 -0.6782
   78SLPC   H8S 7128   1.553   0.703   7.515 -0.3421  0.1244  2.1905
   78SLPC   C29 7129   1.379   0.642   7.619 -1.0289  0.5140  0.2066
   78SLPC   H9R 7130   1.280   0.596   7.601  0.1476 -1.9247 -0.4683
   78SLPC  C210 7131   1.435   0.644   7.738  0.1979 -0.0656 -0.0093
   78SLPC  H10R 7132   1.373   0.603   7.819 -1.9190 -1.7690 -2.3086
   78SLPC  C211 7133   1.564   0.699   7.780  0.1158  0.2901  0.6214
   78SLPC  H11R 7134   1.625   0.749   7.701 -0.7845  3.3336  1.7130
   78SLPC  H11S 7135   1.630   0.615   7.811  0.5982  1.0818  1.8270
   78SLPC  C212 7136   1.537   0.788   7.897  0.4586  0.0769 -0.6171
   78SLPC  H12R 7137   1.470   0.871   7.871 -0.2585 -0.4485 -0.5014
   78SLPC  C213 7138   1.581   0.777   8.027 -1.2620 -0.3006  0.4325
   78SLPC  H13R 7139   1.536   0.850   8.095 -0.3340  2.2658 -1.5637
   78SLPC  C214 7140   1.668   0.669   8.092  0.5701 -0.4106 -0.0107
   78SLPC  H14R 7141   1.689   0.581   8.027  1.4721 -0.7001  0.6476
   78SLPC  H14S 7142   1.617   0.643   8.187 -0.5857  1.7803  0.0191
   78SLPC  C215 7143   1.811   0.735   8.108  0.8133  0.0944 -0.0899
   78SLPC  H15R 7144   1.847   0.784   8.015 -2.0257  1.0442 -0.8066
   78SLPC  H15S 7145   1.882   0.661   8.151  2.2929  0.7060 -1.3873
   78SLPC  C216 7146   1.812   0.851   8.210  0.1122  0.3780  0.0029
   78SLPC  H16R 7147   1.737   0.921   8.166  1.2518  1.5779 -0.0721
   78SLPC  H16S 7148   1.908   0.906   8.204 -0.0810  0.7687  0.4518
   78SLPC  C217 7149   1.781   0.802   8.351 -0.2082  0.0732 -0.9985
   78SLPC  H17R 7150   1.856   0.722   8.368 -1.7169 -1.4692 -1.4635
   78SLPC  H17S 7151   1.675   0.770   8.352 -0.1390 -0.4218  2.4943
   78SLPC  C218 7152   1.803   0.906   8.462  0.4028  0.1436  0.3751
   78SLPC  H18R 7153   1.754   1.003   8.436  0.3470 -0.4506 -1.8900
   78SLPC  H18S 7154   1.908   0.931   8.491  0.4415  0.1701  0.2111
   78SLPC  H18T 7155   1.745   0.880   8.553  0.7693 -0.4116  0.4502
   78SLPC   C33 7156   1.804   0.675   6.664  0.4659 -0.1237 -0.4352
   78SLPC   H3X 7157   1.734   0.751   6.706  2.6942  1.5511  0.4743
   78SLPC   H3Y 7158   1.879   0.730   6.603  0.7893  3.1882  2.6222
   78SLPC   C34 7159   1.872   0.596   6.781 -0.3514 -0.1792 -0.7631
   78SLPC   H4X 7160   1.923   0.671   6.845  1.1914  0.5733 -2.7686
   78SLPC   H4Y 7161   1.940   0.515   6.748  0.2498  0.7727 -1.9273
   78SLPC   C35 7162   1.769   0.526   6.871 -0.5841 -0.2073  0.0030
   78SLPC   H5X 7163   1.737   0.427   6.832 -0.2969 -0.3463  0.1160
   78SLPC   H5Y 7164   1.679   0.584   6.900 -0.9468 -0.9261  0.3401
   78SLPC   C36 7165   1.821   0.495   7.013 -0.2253 -0.3642 -0.1350
   78SLPC   H6X 7166   1.747   0.426   7.059  0.2486 -0.0165  1.2151
   78SLPC   H6Y 7167   1.811   0.583   7.081 -0.3286 -0.9316  0.6053
   78SLPC   C37 7168   1.964   0.427   7.044  0.6083 -0.1243  0.2871
   78SLPC   H7X 7169   2.032   0.515   7.052 -0.2249  0.4732  0.9763
   78SLPC   H7Y 7170   1.989   0.361   6.958  1.0701  0.0055  0.3211
   78SLPC   C38 7171   1.976   0.345   7.175  0.6346 -0.9034 -0.0474
   78SLPC   H8X 7172   2.082   0.312   7.185  0.5021 -1.1800  0.4859
   78SLPC   H8Y 7173   1.929   0.245   7.160 -3.0771  0.8592 -1.3866
   78SLPC   C39 7174   1.929   0.417   7.297 -0.4056 -0.1527 -0.0790
   78SLPC   H9X 7175   1.820   0.430   7.282  0.0633  1.1386 -2.9453
   78SLPC   H9Y 7176   1.988   0.511   7.293 -0.1432 -0.3537 -1.0643
   78SLPC  C310 7177   1.948   0.348   7.430  0.4685  0.5587  0.2521
   78SLPC  H10X 7178   2.058   0.333   7.443  0.4064  0.2428  0.4137
   78SLPC  H10Y 7179   1.896   0.250   7.421 -0.8244  1.2184  0.2929
   78SLPC  C311 7180   1.877   0.417   7.551 -0.1748  0.2181 -0.1483
   78SLPC  H11X 7181   1.771   0.437   7.522 -0.1289 -0.0229 -0.4873
   78SLPC  H11Y 7182   1.922   0.517   7.569  0.8538 -0.0781 -1.0303
   78SLPC  C312 7183   1.869   0.343   7.687  0.4909 -0.2179  0.3920
   78SLPC  H12X 7184   1.847   0.237   7.663 -2.2855  0.4640 -0.4629
   78SLPC  H12Y 7185   1.770   0.377   7.726  1.4097  3.6686 -0.2635
   78SLPC  C313 7186   1.988   0.370   7.772 -0.1548  0.3765  0.4845
   78SLPC  H13X 7187   1.997   0.477   7.798  3.0831  0.0167  1.3301
   78SLPC  H13Y 7188   2.078   0.356   7.708 -0.8217  1.7245 -0.7983
   78SLPC  C314 7189   2.006   0.284   7.900 -0.4027  0.7172 -0.7252
   78SLPC  H14X 7190   2.087   0.326   7.962  1.8095 -1.5201 -1.9231
   78SLPC  H14Y 7191   2.034   0.178   7.881  0.7076  0.5652  1.4966
   78SLPC  C315 7192   1.880   0.285   7.999 -0.6011 -0.3626 -0.0477
   78SLPC  H15X 7193   1.808   0.222   7.942  0.7603  1.7509 -4.5798
   78SLPC  H15Y 7194   1.840   0.389   8.006 -0.4735 -0.1994 -1.4177
   78SLPC  C316 7195   1.909   0.235   8.140  0.1365  0.2334  0.1540
   78SLPC  H16X 7196   1.950   0.314   8.207 -1.0208  0.8721  0.1508
   78SLPC  H16Y 7197   1.978   0.148   8.137 -0.8214 -0.5521  0.3989
   78SLPC  C317 7198   1.784   0.180   8.215 -0.6285  0.0724 -0.0069
   78SLPC  H17X 7199   1.744   0.103   8.146  0.1010 -1.2420  0.9821
   78SLPC  H17Y 7200   1.717   0.262   8.247 -1.4112 -1.6092  3.0475
   78SLPC  C318 7201   1.826   0.095   8.338  0.1308  0.6923  0.3143
   78SLPC  H18X 7202   1.869   0.149   8.425 -0.2668 -1.7959  2.1863
   78SLPC  H18Y 7203   1.907   0.021   8.321 -2.5117 -2.6736  1.2501
   78SLPC  H18Z 7204   1.734   0.050   8.380  0.4846 -0.6023 -0.2525
   79SLPC     N 7205   6.178   2.945   6.342 -0.1526 -0.3775 -0.3287
   79SLPC   C13 7206   6.262   2.950   6.456 -0.6235 -0.0744 -0.1097
   79SLPC  H13A 7207   6.341   2.878   6.450 -1.5085 -1.0305 -0.6714
   79SLPC  H13B 7208   6.297   3.049   6.484  0.0830 -1.2117  3.5515
   79SLPC  H13C 7209   6.209   2.908   6.540  1.6389 -1.7885  0.5443
   79SLPC   C14 7210   6.267   2.995   6.230 -0.5894 -0.4376  0.4998
   79SLPC  H14A 7211   6.219   2.997   6.133  0.1551  0.4144  0.1393
   79SLPC  H14B 7212   6.309   3.091   6.253  2.1480 -1.3251 -0.4693
   79SLPC  H14C 7213   6.361   2.944   6.215 -0.5108  0.3703 -2.2433
   79SLPC   C15 7214   6.053   3.028   6.369  0.1305 -0.1480 -0.3400
   79SLPC  H15A 7215   5.989   3.048   6.285 -2.5758 -1.1119  1.3405
   79SLPC  H15B 7216   5.988   2.981   6.442 -3.6486  0.0998 -3.2248
   79SLPC  H15C 7217   6.086   3.118   6.419 -0.7536  1.6035 -2.7133
   79SLPC   C12 7218   6.127   2.797   6.308 -0.1539  0.2693  0.1572
   79SLPC  H12A 7219   6.212   2.731   6.298  0.2853  0.8820 -0.2590
   79SLPC  H12B 7220   6.074   2.795   6.213 -0.9868 -0.6375  0.6300
   79SLPC   C11 7221   6.049   2.715   6.415 -0.7849  0.6946  0.8477
   79SLPC  H11A 7222   6.086   2.733   6.518  1.3254 -0.7906  0.4186
   79SLPC  H11B 7223   6.075   2.608   6.409 -1.8748  0.4688 -0.3231
   79SLPC     P 7224   5.831   2.658   6.286 -0.0579  0.2191 -0.0594
   79SLPC   O13 7225   5.709   2.736   6.245  0.0309  0.7727 -0.4069
   79SLPC   O14 7226   5.923   2.626   6.175 -0.6193  0.0444  0.3591
   79SLPC   O12 7227   5.917   2.737   6.406  0.1649  0.0037  0.2171
   79SLPC   O11 7228   5.797   2.519   6.346  0.0325 -0.3321  0.2946
   79SLPC    C1 7229   5.790   2.483   6.480  0.5080  0.6526 -0.6921
   79SLPC    HA 7230   5.808   2.374   6.491 -0.9127  0.5034  0.5266
   79SLPC    HB 7231   5.862   2.535   6.547  1.0408 -0.4480 -0.3775
   79SLPC    C2 7232   5.639   2.490   6.538 -0.4335 -0.5918 -0.4271
   79SLPC    HS 7233   5.585   2.423   6.468  1.6269  0.0224 -2.7590
   79SLPC   O21 7234   5.590   2.626   6.541 -1.0910 -0.3845  0.5815
   79SLPC   C21 7235   5.460   2.630   6.517 -0.3578  0.0309 -0.4464
   79SLPC   O22 7236   5.390   2.528   6.508  0.1542  0.0035 -0.2277
   79SLPC   C22 7237   5.411   2.777   6.525  0.0822 -0.0301  0.2266
   79SLPC   H2R 7238   5.497   2.822   6.579 -0.6617 -0.5225  1.9057
   79SLPC   H2S 7239   5.404   2.814   6.421  1.3863 -1.7931 -0.5494
   79SLPC    C3 7240   5.628   2.431   6.678 -0.5399 -0.0848 -0.3828
   79SLPC    HX 7241   5.636   2.321   6.669 -1.2729 -0.4321  2.2557
   79SLPC    HY 7242   5.522   2.450   6.706 -0.8263  0.2180 -1.6406
   79SLPC   O31 7243   5.703   2.495   6.780 -0.4930 -0.6755  0.3343
   79SLPC   C31 7244   5.811   2.424   6.824  0.0203 -0.4788 -0.3587
   79SLPC   O32 7245   5.852   2.327   6.765  0.4236  0.0151  0.3090
   79SLPC   C32 7246   5.872   2.487   6.956  0.4696 -0.3359 -0.2662
   79SLPC   H2X 7247   5.834   2.590   6.972 -0.2851 -0.9716  2.5996
   79SLPC   H2Y 7248   5.981   2.501   6.941  0.3161  1.6024  0.1693
   79SLPC   C23 7249   5.286   2.787   6.613  0.0659 -0.4176  0.0972
   79SLPC   H3R 7250   5.201   2.740   6.560 -0.5601  0.0784  0.6310
   79SLPC   H3S 7251   5.263   2.896   6.617  1.2885 -0.0845 -1.1174
   79SLPC   C24 7252   5.299   2.727   6.756 -0.7690  0.5567  0.2011
   79SLPC   H4R 7253   5.317   2.619   6.740  0.1226  0.4908  1.4960
   79SLPC   H4S 7254   5.205   2.741   6.813 -2.9251 -1.7337 -2.4988
   79SLPC   C25 7255   5.416   2.775   6.836 -0.2347 -0.6019  0.7146
   79SLPC   H5R 7256   5.410   2.886   6.829  0.3288 -0.6670 -1.1822
   79SLPC   H5S 7257   5.514   2.755   6.788 -0.4390 -0.2280  0.1264
   79SLPC   C26 7258   5.421   2.745   6.984  0.0387 -0.1023 -0.4092
   79SLPC   H6R 7259   5.313   2.737   7.010  0.1956  0.0438  0.3165
   79SLPC   H6S 7260   5.468   2.820   7.052  2.0316 -2.5873  1.1162
   79SLPC   C27 7261   5.486   2.615   7.021 -0.4870  0.1720  0.0954
   79SLPC   H7R 7262   5.594   2.623   6.996 -0.3761 -0.9546  0.1658
   79SLPC   H7S 7263   5.439   2.537   6.957 -2.3621  2.4284 -1.4391
   79SLPC   C28 7264   5.475   2.566   7.172  0.1576 -0.5659  0.3359
   79SLPC   H8R 7265   5.542   2.478   7.177  1.4201  0.3323 -0.0913
   79SLPC   H8S 7266   5.371   2.531   7.184 -0.2672  0.4324 -0.3080
   79SLPC   C29 7267   5.518   2.667   7.279  0.4705  0.0009 -0.3864
   79SLPC   H9R 7268   5.593   2.744   7.255  0.7868  0.2256  1.2151
   79SLPC  C210 7269   5.460   2.685   7.399  0.8851  0.2248  0.2940
   79SLPC  H10R 7270   5.498   2.766   7.463  3.4090 -1.7759  1.4913
   79SLPC  C211 7271   5.367   2.584   7.459 -0.0986 -0.1624  0.1807
   79SLPC  H11R 7272   5.407   2.481   7.447  0.4922  0.2276 -1.4553
   79SLPC  H11S 7273   5.277   2.589   7.395  0.6920  0.0478 -0.9385
   79SLPC  C212 7274   5.330   2.619   7.604 -0.7348 -0.2468  0.3271
   79SLPC  H12R 7275   5.232   2.666   7.621 -1.2648  0.4659 -3.6932
   79SLPC  C213 7276   5.411   2.612   7.711  0.4416  0.0089 -0.2006
   79SLPC  H13R 7277   5.364   2.634   7.808  2.8409  0.9334  0.8330
   79SLPC  C214 7278   5.556   2.563   7.709  0.0765 -0.1303  0.1945
   79SLPC  H14R 7279   5.625   2.645   7.736  1.0460 -0.1581 -2.0246
   79SLPC  H14S 7280   5.586   2.535   7.606 -0.7153  0.6062 -0.2594
   79SLPC  C215 7281   5.573   2.443   7.800  0.0825 -0.0112 -0.0118
   79SLPC  H15R 7282   5.677   2.409   7.785  0.7046  1.7253  0.2172
   79SLPC  H15S 7283   5.493   2.368   7.782  0.2234 -1.1425  3.3033
   79SLPC  C216 7284   5.559   2.492   7.950  0.2644 -0.9110  0.2400
   79SLPC  H16R 7285   5.455   2.518   7.978  0.4247  0.1764 -0.1070
   79SLPC  H16S 7286   5.630   2.577   7.961 -0.4111  0.0475 -2.1988
   79SLPC  C217 7287   5.613   2.388   8.049  0.0116 -0.0456  0.3579
   79SLPC  H17R 7288   5.722   2.377   8.031 -0.3942 -1.1807 -1.7877
   79SLPC  H17S 7289   5.564   2.293   8.016 -1.9974  1.5421 -1.5926
   79SLPC  C218 7290   5.588   2.421   8.194 -0.2867 -0.0346 -0.4117
   79SLPC  H18R 7291   5.641   2.516   8.217  0.2251 -0.4242  0.0424
   79SLPC  H18S 7292   5.630   2.346   8.265 -1.2990  0.7321  1.0385
   79SLPC  H18T 7293   5.482   2.426   8.225 -0.3148 -1.6053 -0.1735
   79SLPC   C33 7294   5.837   2.414   7.088 -0.2930 -0.7151 -0.0363
   79SLPC   H3X 7295   5.894   2.319   7.086 -1.0203 -1.1547 -0.5413
   79SLPC   H3Y 7296   5.728   2.396   7.097 -0.4317  0.2674  0.3680
   79SLPC   C34 7297   5.874   2.496   7.216 -0.4514  0.3250  0.0940
   79SLPC   H4X 7298   5.800   2.578   7.228 -1.7423 -0.8093  0.1055
   79SLPC   H4Y 7299   5.979   2.521   7.189 -0.2377 -0.5973  0.0229
   79SLPC   C35 7300   5.872   2.409   7.339 -0.6687  0.2995  0.1966
   79SLPC   H5X 7301   5.916   2.307   7.331 -1.1587  0.0469  0.5896
   79SLPC   H5Y 7302   5.761   2.402   7.351 -0.9065 -1.7031 -2.4055
   79SLPC   C36 7303   5.932   2.483   7.450 -0.0929 -0.2581  0.0138
   79SLPC   H6X 7304   5.908   2.592   7.446  0.2218 -0.2170 -1.0242
   79SLPC   H6Y 7305   6.042   2.473   7.442 -0.1622 -1.0961 -0.0034
   79SLPC   C37 7306   5.889   2.408   7.581 -0.8566  0.0038 -0.0017
   79SLPC   H7X 7307   5.931   2.306   7.574  1.1672  0.7925 -0.1291
   79SLPC   H7Y 7308   5.778   2.406   7.588 -1.0332  2.4062 -1.0204
   79SLPC   C38 7309   5.966   2.463   7.699  0.4903  0.0847 -0.2187
   79SLPC   H8X 7310   6.072   2.466   7.667  0.5142  0.2699 -0.1220
   79SLPC   H8Y 7311   5.963   2.386   7.780 -0.3913 -1.2802 -1.4819
   79SLPC   C39 7312   5.924   2.603   7.747 -0.0577  0.5837 -0.1403
   79SLPC   H9X 7313   5.824   2.589   7.792  1.0980 -0.6865  2.2409
   79SLPC   H9Y 7314   5.919   2.667   7.656  2.2835 -0.2874 -0.9755
   79SLPC  C310 7315   6.006   2.669   7.856 -0.2794 -0.6861  0.2601
   79SLPC  H10X 7316   5.994   2.780   7.860  0.0065 -0.5814 -1.2241
   79SLPC  H10Y 7317   6.112   2.652   7.826 -0.5754 -1.9455 -0.1376
   79SLPC  C311 7318   5.979   2.616   8.000 -0.5646  0.0098  0.8023
   79SLPC  H11X 7319   5.974   2.507   7.982  0.7251  0.0597  0.0276
   79SLPC  H11Y 7320   5.876   2.638   8.035 -1.2747 -1.8658  0.0099
   79SLPC  C312 7321   6.091   2.638   8.104  0.2628 -0.0283 -0.0621
   79SLPC  H12X 7322   6.127   2.742   8.094  2.7324 -0.8091 -0.0771
   79SLPC  H12Y 7323   6.172   2.569   8.071  0.9986  0.5082  0.6053
   79SLPC  C313 7324   6.043   2.614   8.246  0.1662 -0.2755 -0.1221
   79SLPC  H13X 7325   5.965   2.685   8.283  1.4249 -0.9329  4.3802
   79SLPC  H13Y 7326   6.130   2.644   8.308 -1.8596  2.2525  1.7690
   79SLPC  C314 7327   6.008   2.469   8.268  0.0329  0.0679  0.6364
   79SLPC  H14X 7328   6.087   2.399   8.235  0.6301  0.0373  2.0688
   79SLPC  H14Y 7329   5.919   2.451   8.203  1.2850 -0.2775 -1.0583
   79SLPC  C315 7330   5.975   2.439   8.421  1.0408  0.1926 -0.3165
   79SLPC  H15X 7331   5.884   2.492   8.457  1.1323 -0.4661  0.9478
   79SLPC  H15Y 7332   6.063   2.473   8.480  0.9135 -0.7331  0.4296
   79SLPC  C316 7333   5.944   2.288   8.440 -0.2669  0.4175  0.5491
   79SLPC  H16X 7334   6.023   2.217   8.408 -0.4432  0.0255  0.9795
   79SLPC  H16Y 7335   5.859   2.261   8.375  0.2280 -0.0866  0.0992
   79SLPC  C317 7336   5.903   2.252   8.585  0.3153  0.0294  0.2686
   79SLPC  H17X 7337   5.876   2.146   8.601 -0.5998  0.4497  1.7452
   79SLPC  H17Y 7338   5.806   2.306   8.598 -1.0464 -2.1759 -0.3170
   79SLPC  C318 7339   6.011   2.287   8.697 -0.4466 -0.3191  0.0435
   79SLPC  H18X 7340   6.111   2.254   8.662  0.1419  2.3509 -0.9961
   79SLPC  H18Y 7341   5.989   2.242   8.797 -0.1606  0.1090  0.3051
   79SLPC  H18Z 7342   6.027   2.396   8.711 -1.0882 -0.2583  0.3063
   80SLPC     N 7343   6.367   0.533   6.170  0.3250 -0.4944  0.5159
   80SLPC   C13 7344   6.367   0.660   6.243  0.4432 -0.4418  0.0485
   80SLPC  H13A 7345   6.377   0.742   6.174  1.0026 -0.3353  0.2483
   80SLPC  H13B 7346   6.275   0.684   6.296  1.2078  3.8630 -0.2075
   80SLPC  H13C 7347   6.445   0.656   6.318  0.9911 -2.4164 -0.5798
   80SLPC   C14 7348   6.502   0.515   6.110  0.1998  0.5651  0.6624
   80SLPC  H14A 7349   6.509   0.433   6.040  1.9879  1.5115 -0.3325
   80SLPC  H14B 7350   6.532   0.599   6.050 -1.3848  0.2623 -0.6037
   80SLPC  H14C 7351   6.575   0.502   6.189  0.7448  0.6070  0.1684
   80SLPC   C15 7352   6.252   0.529   6.062 -0.2977 -0.0702 -0.5202
   80SLPC  H15A 7353   6.256   0.431   6.017  2.0288 -0.1432 -0.2854
   80SLPC  H15B 7354   6.153   0.546   6.101  0.4037 -1.5057  2.2349
   80SLPC  H15C 7355   6.268   0.600   5.982 -2.4363  2.3728  1.0707
   80SLPC   C12 7356   6.348   0.415   6.265  0.7373 -0.1395  0.7221
   80SLPC  H12A 7357   6.384   0.320   6.227 -3.0938 -1.2256 -0.7527
   80SLPC  H12B 7358   6.243   0.400   6.286  0.1452  1.3479 -0.9251
   80SLPC   C11 7359   6.410   0.418   6.409  0.5114  0.1487  0.5334
   80SLPC  H11A 7360   6.349   0.350   6.472 -0.2174  1.4338  1.2691
   80SLPC  H11B 7361   6.385   0.516   6.457  0.6581 -0.5432  2.0840
   80SLPC     P 7362   6.603   0.245   6.398  0.1125 -0.2445 -0.5359
   80SLPC   O13 7363   6.533   0.183   6.286 -0.3078 -0.1981 -0.6165
   80SLPC   O14 7364   6.753   0.252   6.382  0.6088 -0.4436  0.1764
   80SLPC   O12 7365   6.549   0.389   6.415 -0.6702  0.4596 -0.3898
   80SLPC   O11 7366   6.573   0.161   6.531  0.2610 -0.2645  0.1907
   80SLPC    C1 7367   6.545   0.237   6.656 -0.2053 -0.4263  0.4109
   80SLPC    HA 7368   6.560   0.346   6.641  2.2602 -0.7823 -0.1666
   80SLPC    HB 7369   6.443   0.221   6.695 -0.5098 -0.3210 -0.3304
   80SLPC    C2 7370   6.644   0.180   6.758 -0.7762 -0.3361 -0.0689
   80SLPC    HS 7371   6.639   0.242   6.851 -0.0393  0.7543 -0.7289
   80SLPC   O21 7372   6.777   0.172   6.704  0.2215 -0.2600  0.2517
   80SLPC   C21 7373   6.838   0.287   6.694  0.6148  0.1668 -0.6227
   80SLPC   O22 7374   6.782   0.394   6.720 -0.4660  0.3806 -0.0749
   80SLPC   C22 7375   6.975   0.279   6.639 -1.2528  0.2728  0.0664
   80SLPC   H2R 7376   6.974   0.214   6.550  0.4680  0.9001 -0.4572
   80SLPC   H2S 7377   7.002   0.381   6.605 -3.8305  0.9089 -0.2799
   80SLPC    C3 7378   6.611   0.033   6.808  0.1039  0.0734  0.7300
   80SLPC    HX 7379   6.603  -0.028   6.715 -1.1256  0.8392  0.3086
   80SLPC    HY 7380   6.514   0.028   6.861  1.0474  0.6165  2.5873
   80SLPC   O31 7381   6.720  -0.025   6.885 -0.7164  0.7910 -0.0882
   80SLPC   C31 7382   6.736   0.027   7.011  0.4213  0.1318  0.0654
   80SLPC   O32 7383   6.663   0.111   7.057  0.2464 -0.0340  0.0681
   80SLPC   C32 7384   6.856  -0.028   7.072 -0.1953 -0.1379 -0.7630
   80SLPC   H2X 7385   6.946   0.002   7.014 -0.8830  3.5833 -0.1897
   80SLPC   H2Y 7386   6.859  -0.138   7.055  2.3335 -0.2647  0.1669
   80SLPC   C23 7387   7.071   0.226   6.749  0.5704 -0.2969  0.3821
   80SLPC   H3R 7388   7.165   0.203   6.694 -1.0042 -0.4936 -2.4247
   80SLPC   H3S 7389   7.023   0.133   6.788  0.6031 -0.2877  0.4447
   80SLPC   C24 7390   7.086   0.318   6.875  0.0753 -0.0035  0.0077
   80SLPC   H4R 7391   6.993   0.304   6.934  0.4622  1.4461  1.0073
   80SLPC   H4S 7392   7.107   0.424   6.850 -0.3728  0.7219  2.4977
   80SLPC   C25 7393   7.198   0.283   6.975 -0.0539 -0.3338  0.4902
   80SLPC   H5R 7394   7.290   0.308   6.917 -2.2324 -0.6350 -3.4038
   80SLPC   H5S 7395   7.204   0.173   6.986  1.0282 -0.4566 -1.0100
   80SLPC   C26 7396   7.188   0.349   7.108 -0.6009 -0.4186  0.2770
   80SLPC   H6R 7397   7.154   0.454   7.096  0.5962  0.3171  2.6706
   80SLPC   H6S 7398   7.291   0.355   7.150 -0.1337  2.2482 -1.0136
   80SLPC   C27 7399   7.078   0.283   7.196 -0.0451 -0.4674 -0.1643
   80SLPC   H7R 7400   7.118   0.185   7.230  0.9046 -0.3122 -0.8069
   80SLPC   H7S 7401   6.981   0.285   7.142 -1.2382  1.6555  1.8725
   80SLPC   C28 7402   7.054   0.369   7.320  0.0451  0.8968  0.7535
   80SLPC   H8R 7403   7.037   0.470   7.277  0.5409 -0.1102 -2.0076
   80SLPC   H8S 7404   7.141   0.383   7.387  1.2597  1.8296 -0.9383
   80SLPC   C29 7405   6.927   0.333   7.392  0.3870 -0.6230  0.3226
   80SLPC   H9R 7406   6.843   0.344   7.321  0.2956 -1.2889  0.3225
   80SLPC  C210 7407   6.908   0.316   7.528  0.0491  0.1266  0.3839
   80SLPC  H10R 7408   6.807   0.306   7.571 -0.3622 -2.2810 -1.0015
   80SLPC  C211 7409   7.014   0.330   7.636  0.0046 -0.2558  0.2137
   80SLPC  H11R 7410   7.118   0.314   7.600 -0.4572 -0.2764 -1.1593
   80SLPC  H11S 7411   6.998   0.248   7.709 -0.7575  2.1052  2.8894
   80SLPC  C212 7412   7.021   0.460   7.712 -0.7002  0.5739  0.1122
   80SLPC  H12R 7413   7.076   0.547   7.674  1.0393  0.3977  2.0937
   80SLPC  C213 7414   6.969   0.483   7.833 -0.4117 -0.5632  0.3650
   80SLPC  H13R 7415   7.007   0.578   7.873  2.3902 -1.2537 -0.4161
   80SLPC  C214 7416   6.897   0.386   7.921  0.5872  0.4206  0.0807
   80SLPC  H14R 7417   6.840   0.311   7.861  2.2480 -0.8537  0.0162
   80SLPC  H14S 7418   6.810   0.426   7.978 -0.0259 -0.1058 -0.4595
   80SLPC  C215 7419   6.972   0.305   8.030 -0.4178  0.4958  0.2064
   80SLPC  H15R 7420   7.041   0.237   7.976 -2.0422  0.9098 -2.5918
   80SLPC  H15S 7421   6.905   0.234   8.083  0.0502 -0.3176 -0.2735
   80SLPC  C216 7422   7.054   0.383   8.136  0.1436 -0.3456  0.9358
   80SLPC  H16R 7423   6.996   0.461   8.189  1.4514  1.6483 -0.4331
   80SLPC  H16S 7424   7.127   0.447   8.082  1.0338 -0.5139  1.9237
   80SLPC  C217 7425   7.124   0.282   8.217 -0.2009  0.5194 -0.4535
   80SLPC  H17R 7426   7.199   0.231   8.153 -1.6098  0.0985 -1.8439
   80SLPC  H17S 7427   7.051   0.207   8.253 -0.8370  2.3261  2.3252
   80SLPC  C218 7428   7.183   0.350   8.341  0.2280  0.2875 -0.3648
   80SLPC  H18R 7429   7.169   0.288   8.433 -0.0760 -1.4353 -1.5187
   80SLPC  H18S 7430   7.131   0.447   8.351 -0.0478  0.1886 -0.7993
   80SLPC  H18T 7431   7.290   0.372   8.323  0.0985  1.5660  0.3476
   80SLPC   C33 7432   6.864   0.005   7.223  0.2791 -0.1817 -0.3415
   80SLPC   H3X 7433   6.822   0.103   7.253 -0.5193 -0.6023 -0.0434
   80SLPC   H3Y 7434   6.973   0.009   7.247  0.7739 -0.9169 -2.2462
   80SLPC   C34 7435   6.816  -0.101   7.322 -0.0525 -0.1453  0.0855
   80SLPC   H4X 7436   6.881  -0.189   7.307 -0.3765 -1.1966  3.8247
   80SLPC   H4Y 7437   6.711  -0.129   7.298  0.8549 -3.4781 -0.4504
   80SLPC   C35 7438   6.839  -0.057   7.468 -0.3976 -0.0340  0.0055
   80SLPC   H5X 7439   6.809   0.042   7.507  1.2119  0.2864  0.5306
   80SLPC   H5Y 7440   6.950  -0.051   7.473 -0.3194 -1.6861  1.0499
   80SLPC   C36 7441   6.790  -0.162   7.573  0.4504  0.8456 -0.4130
   80SLPC   H6X 7442   6.845  -0.259   7.570 -0.3772  0.1879  2.4187
   80SLPC   H6Y 7443   6.686  -0.182   7.537  1.2986 -0.1629 -2.5042
   80SLPC   C37 7444   6.785  -0.106   7.713 -0.4599  0.0225 -0.9382
   80SLPC   H7X 7445   6.711  -0.172   7.761  1.0478 -0.0151  1.5145
   80SLPC   H7Y 7446   6.761   0.003   7.713 -1.5023 -0.2009 -0.8862
   80SLPC   C38 7447   6.920  -0.125   7.780 -0.3242  0.9677 -0.1792
   80SLPC   H8X 7448   6.991  -0.076   7.710  0.4837  2.2109  1.4412
   80SLPC   H8Y 7449   6.941  -0.234   7.776  1.1249  1.2707 -2.4293
   80SLPC   C39 7450   6.919  -0.066   7.923 -0.5548 -1.4128  0.7307
   80SLPC   H9X 7451   6.892   0.042   7.918 -0.1137 -1.3374 -0.4155
   80SLPC   H9Y 7452   7.022  -0.068   7.964 -0.6595  1.3894  1.3676
   80SLPC  C310 7453   6.822  -0.136   8.021  0.5434 -0.1217 -0.2095
   80SLPC  H10X 7454   6.725  -0.141   7.968  1.0763  1.2520 -1.3897
   80SLPC  H10Y 7455   6.797  -0.073   8.109 -2.5851 -1.1546 -0.2277
   80SLPC  C311 7456   6.867  -0.272   8.060  0.6068  0.7790 -0.7891
   80SLPC  H11X 7457   6.960  -0.263   8.119  0.3101  0.3572 -0.2480
   80SLPC  H11Y 7458   6.882  -0.338   7.971 -0.1271 -0.0955 -0.2814
   80SLPC  C312 7459   6.763  -0.341   8.157  0.3006 -0.1590  0.0746
   80SLPC  H12X 7460   6.748  -0.276   8.246 -1.2918 -0.3999  0.0050
   80SLPC  H12Y 7461   6.797  -0.439   8.197  1.1679  0.5319  1.1258
   80SLPC  C313 7462   6.631  -0.376   8.092 -0.3691  0.6162  0.0829
   80SLPC  H13X 7463   6.638  -0.475   8.041 -0.7817  0.4595  0.3234
   80SLPC  H13Y 7464   6.612  -0.306   8.008  0.4223 -0.4518 -1.0328
   80SLPC  C314 7465   6.512  -0.351   8.184  0.3432  0.2639  0.2763
   80SLPC  H14X 7466   6.413  -0.363   8.134 -0.4412  1.5355  1.4295
   80SLPC  H14Y 7467   6.525  -0.244   8.211 -0.2570  0.7221 -1.1181
   80SLPC  C315 7468   6.511  -0.434   8.309  0.1519  0.0205 -0.5372
   80SLPC  H15X 7469   6.427  -0.413   8.378 -0.6635  0.8844 -1.7698
   80SLPC  H15Y 7470   6.602  -0.421   8.372  1.2500 -1.8834 -1.6441
   80SLPC  C316 7471   6.493  -0.584   8.276 -0.9754 -0.3970 -0.3247
   80SLPC  H16X 7472   6.587  -0.613   8.225  0.4984 -0.0489  2.0077
   80SLPC  H16Y 7473   6.405  -0.595   8.209 -0.7540  1.0276 -0.8790
   80SLPC  C317 7474   6.475  -0.673   8.401 -0.1303 -0.3062 -0.2520
   80SLPC  H17X 7475   6.466  -0.777   8.363 -1.0019 -0.3252 -0.0205
   80SLPC  H17Y 7476   6.380  -0.638   8.448  0.7118 -0.0765  1.3678
   80SLPC  C318 7477   6.587  -0.671   8.500 -1.4152  0.6582  0.4925
   80SLPC  H18X 7478   6.680  -0.692   8.443  0.2606  1.9363  2.6098
   80SLPC  H18Y 7479   6.579  -0.737   8.589 -0.4520 -0.9621 -0.5633
   80SLPC  H18Z 7480   6.594  -0.569   8.543 -1.7662  0.3316  1.3381
   81SAPS     N 7481   0.487   1.266  11.237 -0.1416 -0.0492  0.6322
   81SAPS   HN1 7482   0.432   1.306  11.315 -1.0010  0.7262 -0.3501
   81SAPS   HN2 7483   0.539   1.342  11.189  0.6805 -0.1916  1.2563
   81SAPS   HN3 7484   0.419   1.239  11.164 -0.8361  1.1630  0.8032
   81SAPS   C12 7485   0.589   1.161  11.279 -0.2346  0.1294  0.3571
   81SAPS  H12A 7486   0.669   1.209  11.334  0.5638  1.2903 -1.7054
   81SAPS   C13 7487   0.536   1.048  11.373  0.8993 -0.2722 -0.1900
   81SAPS  O13A 7488   0.418   1.044  11.422 -0.5413 -0.2225 -0.2914
   81SAPS  O13B 7489   0.611   0.952  11.398  0.8284 -0.0307 -0.0066
   81SAPS   C11 7490   0.644   1.101  11.140  0.3123 -0.1710 -0.7179
   81SAPS  H11A 7491   0.567   1.044  11.085 -0.0795  0.0203 -0.3756
   81SAPS  H11B 7492   0.721   1.024  11.159  1.1097  0.9525  0.8949
   81SAPS     P 7493   0.783   1.176  10.931 -0.1891  0.1138 -0.1125
   81SAPS   O13 7494   0.925   1.191  10.966 -0.2514 -0.0406  0.1852
   81SAPS   O14 7495   0.744   1.051  10.862 -0.6388 -0.2940  0.6272
   81SAPS   O12 7496   0.701   1.202  11.063  0.5888 -0.0660  0.1479
   81SAPS   O11 7497   0.741   1.297  10.843  0.1773 -0.5494  0.2341
   81SAPS    C1 7498   0.656   1.286  10.727 -0.1633  0.3118  0.2123
   81SAPS    HA 7499   0.715   1.231  10.651  2.5617  1.2911  1.4680
   81SAPS    HB 7500   0.566   1.233  10.765  0.1422 -2.0384 -2.1217
   81SAPS    C2 7501   0.615   1.421  10.673  0.2987  0.1780  0.0235
   81SAPS    HS 7502   0.539   1.456  10.747  2.9260  0.6919  2.6491
   81SAPS   O21 7503   0.559   1.404  10.542 -1.0082 -0.0659 -0.1641
   81SAPS   C21 7504   0.483   1.502  10.498  0.7315  0.5339  0.1056
   81SAPS   O22 7505   0.458   1.605  10.560 -0.5933  0.3796  0.1017
   81SAPS   C22 7506   0.426   1.467  10.356 -0.2312  0.9148  0.8940
   81SAPS   H2R 7507   0.509   1.441  10.287  0.0878  0.5380  1.4103
   81SAPS   H2S 7508   0.355   1.383  10.366  0.7154  0.1618  1.4896
   81SAPS    C3 7509   0.735   1.523  10.678 -0.5304 -0.5233 -0.0442
   81SAPS    HX 7510   0.783   1.512  10.777  3.7792  0.2914 -1.8035
   81SAPS    HY 7511   0.699   1.628  10.672  0.9813 -0.0322 -1.3709
   81SAPS   O31 7512   0.832   1.496  10.576  0.5347  0.5164 -0.1104
   81SAPS   C31 7513   0.817   1.564  10.464  0.6853  0.1780  0.2189
   81SAPS   O32 7514   0.731   1.652  10.448 -0.6206 -0.6309 -0.3898
   81SAPS   C32 7515   0.935   1.531  10.374  0.6743 -0.2100  0.3521
   81SAPS   H2X 7516   1.002   1.449  10.405  0.1007 -1.5825 -1.8197
   81SAPS   H2Y 7517   0.999   1.621  10.360  0.6732 -0.2715 -0.0722
   81SAPS   C23 7518   0.350   1.583  10.301  0.3524 -0.4871  0.0632
   81SAPS   H3R 7519   0.408   1.678  10.288  2.5795 -1.9751 -1.5840
   81SAPS   H3S 7520   0.281   1.612  10.383  1.2546 -2.2176  1.4959
   81SAPS   C24 7521   0.278   1.564  10.168  0.0074 -0.0182  0.8463
   81SAPS   H4R 7522   0.208   1.649  10.150  0.7988  0.6736  0.9444
   81SAPS   H4S 7523   0.211   1.476  10.176 -0.9782  0.6022 -0.1125
   81SAPS   C25 7524   0.362   1.546  10.044  0.4363  0.2198  0.6293
   81SAPS   H5R 7525   0.470   1.528  10.054  0.3561  0.3169  1.7746
   81SAPS   C26 7526   0.304   1.547   9.920  0.8687 -0.0912  0.1813
   81SAPS   H6R 7527   0.361   1.535   9.826 -1.4392 -1.8703 -1.0900
   81SAPS   C27 7528   0.156   1.564   9.898 -0.3452 -0.2915  0.0452
   81SAPS   H7R 7529   0.155   1.644   9.820 -2.3414 -0.2603  0.0453
   81SAPS   H7S 7530   0.098   1.599   9.986  0.2190  0.0993  0.2646
   81SAPS   C28 7531   0.092   1.448   9.823  0.5232  0.2589  0.1415
   81SAPS   H8R 7532   0.037   1.380   9.890 -0.5507  0.8168 -0.1520
   81SAPS   C29 7533   0.111   1.403   9.695  0.1938  0.1931  0.5990
   81SAPS   H9R 7534   0.045   1.317   9.671  0.0217  0.5787 -0.3651
   81SAPS  C210 7535   0.196   1.466   9.588  1.1065  0.1498  0.2868
   81SAPS  H10R 7536   0.291   1.508   9.628  0.8753  1.2972 -0.3547
   81SAPS  H10S 7537   0.135   1.552   9.556  1.4538 -0.0343 -0.8953
   81SAPS  C211 7538   0.234   1.371   9.478 -0.5461 -0.4654 -0.0564
   81SAPS  H11R 7539   0.318   1.304   9.502 -2.1159 -2.4652  0.2067
   81SAPS  C212 7540   0.193   1.360   9.353 -0.0847  0.0347  0.1368
   81SAPS  H12R 7541   0.229   1.274   9.294  0.2062  0.9358 -1.0279
   81SAPS  C213 7542   0.097   1.453   9.290  0.1302  0.0948 -0.3116
   81SAPS  H13R 7543   0.153   1.549   9.283 -1.3156  1.1812  1.8422
   81SAPS  H13S 7544   0.019   1.481   9.364  1.5988  3.7173  0.1199
   81SAPS  C214 7545   0.045   1.419   9.153  0.4186  0.7995 -0.0386
   81SAPS  H14R 7546   0.115   1.463   9.081  1.6694 -1.2450 -0.1368
   81SAPS  C215 7547  -0.072   1.360   9.117  0.2030  0.3034 -0.2567
   81SAPS  H15R 7548  -0.102   1.348   9.012  1.2682  1.1425 -0.6728
   81SAPS  C216 7549  -0.169   1.307   9.220  0.2542 -0.8177 -0.2909
   81SAPS  H16R 7550  -0.127   1.319   9.322  0.1944 -0.5991 -0.2925
   81SAPS  H16S 7551  -0.186   1.197   9.214 -4.3729 -0.4526  1.5445
   81SAPS  C217 7552  -0.310   1.371   9.224 -0.1756  1.3773  1.1143
   81SAPS  H17R 7553  -0.309   1.479   9.246  0.0232  1.2888  1.5423
   81SAPS  H17S 7554  -0.366   1.316   9.303  1.6260 -0.9778  0.8839
   81SAPS  C218 7555  -0.382   1.359   9.084  0.1727  0.0025  0.3254
   81SAPS  H18R 7556  -0.375   1.257   9.042 -1.7771 -0.1568  0.3253
   81SAPS  H18S 7557  -0.320   1.417   9.012 -1.8973  0.1774 -1.3912
   81SAPS  C219 7558  -0.526   1.406   9.078  0.9063  0.4694  0.2246
   81SAPS  H19R 7559  -0.524   1.515   9.104  1.6218  0.6741 -0.6539
   81SAPS  H19S 7560  -0.590   1.360   9.156  2.7437 -0.7042  1.0934
   81SAPS  C220 7561  -0.603   1.411   8.940 -0.1964  0.3966 -0.3295
   81SAPS  H20R 7562  -0.526   1.447   8.869 -0.1197  1.6764  0.3862
   81SAPS  H20S 7563  -0.683   1.488   8.942 -3.0910 -2.4323  0.7394
   81SAPS  H20T 7564  -0.652   1.318   8.903  1.5459 -0.3127 -1.0124
   81SAPS   C33 7565   0.884   1.495  10.232  0.0526 -0.2397  0.2033
   81SAPS   H3X 7566   0.786   1.544  10.212  0.1085 -0.8766 -1.9348
   81SAPS   H3Y 7567   0.862   1.386  10.231 -2.2240  0.1592 -0.9111
   81SAPS   C34 7568   0.980   1.526  10.115 -0.0417  0.1863 -0.6378
   81SAPS   H4X 7569   1.074   1.474  10.142 -0.2097  0.3339  0.2559
   81SAPS   H4Y 7570   0.998   1.635  10.124  2.7333 -0.2022 -0.6251
   81SAPS   C35 7571   0.935   1.481   9.976  0.0125  0.7716  0.1005
   81SAPS   H5X 7572   0.833   1.512   9.947  0.4053  0.4035 -1.8375
   81SAPS   H5Y 7573   0.936   1.370   9.981 -1.3168  0.7730  0.6500
   81SAPS   C36 7574   1.032   1.535   9.880 -0.1588 -0.0624 -0.4056
   81SAPS   H6X 7575   1.127   1.476   9.887  0.4894  1.0713  0.9097
   81SAPS   H6Y 7576   1.062   1.640   9.898 -0.1343  0.1244 -1.4494
   81SAPS   C37 7577   0.994   1.518   9.735 -0.1222 -0.6981  0.0973
   81SAPS   H7X 7578   0.898   1.567   9.708  1.2148  1.1093 -1.7453
   81SAPS   H7Y 7579   0.974   1.411   9.711  1.2498 -1.1748  0.9496
   81SAPS   C38 7580   1.108   1.566   9.647 -0.8836  0.0075  0.2076
   81SAPS   H8X 7581   1.208   1.540   9.689 -0.6559 -0.2242 -0.4684
   81SAPS   H8Y 7582   1.110   1.677   9.644 -0.9380 -0.0041 -2.6562
   81SAPS   C39 7583   1.124   1.512   9.510 -0.1882 -0.1329  0.4549
   81SAPS   H9X 7584   1.139   1.402   9.508 -0.1683 -0.1650  1.8924
   81SAPS   H9Y 7585   1.211   1.557   9.459 -0.1491 -0.4881  0.1990
   81SAPS  C310 7586   1.006   1.529   9.418  0.1637 -0.9757  0.2055
   81SAPS  H10X 7587   0.983   1.636   9.440 -0.7699 -1.3752  1.2647
   81SAPS  H10Y 7588   0.910   1.479   9.444 -1.3500  1.3296 -0.6023
   81SAPS  C311 7589   1.029   1.509   9.275 -0.9436  0.7213 -0.0405
   81SAPS  H11X 7590   1.033   1.398   9.263 -1.5262  0.8375 -1.4280
   81SAPS  H11Y 7591   1.132   1.537   9.243 -0.6920  0.4505  0.5119
   81SAPS  C312 7592   0.923   1.583   9.195  0.1498 -0.5495  0.5358
   81SAPS  H12X 7593   0.932   1.690   9.224 -1.3182 -0.2031 -0.2176
   81SAPS  H12Y 7594   0.821   1.549   9.223 -0.7283  1.5232 -0.0340
   81SAPS  C313 7595   0.944   1.573   9.046  0.0327 -0.1418 -0.4290
   81SAPS  H13X 7596   0.976   1.469   9.023  0.2513 -0.1968  0.1022
   81SAPS  H13Y 7597   1.023   1.646   9.017  0.8974 -0.8262  0.1572
   81SAPS  C314 7598   0.817   1.603   8.968  0.7744 -0.2221 -0.4301
   81SAPS  H14X 7599   0.793   1.708   8.994  2.9323  0.6476 -1.6329
   81SAPS  H14Y 7600   0.740   1.526   8.992  1.6329 -0.4790  1.7104
   81SAPS  C315 7601   0.840   1.610   8.811  0.3403  0.4371 -0.1595
   81SAPS  H15X 7602   0.900   1.522   8.781 -0.6258 -0.0371 -0.7636
   81SAPS  H15Y 7603   0.900   1.700   8.789 -0.8497  1.3225  0.1195
   81SAPS  C316 7604   0.710   1.590   8.729  0.5267 -0.2242 -0.6503
   81SAPS  H16X 7605   0.672   1.693   8.713  1.4867  0.1010 -0.9308
   81SAPS  H16Y 7606   0.634   1.531   8.785 -0.5971  1.3983 -0.4089
   81SAPS  C317 7607   0.724   1.529   8.586 -0.5367 -0.2905  0.1606
   81SAPS  H17X 7608   0.621   1.541   8.548 -0.0027  1.2634 -0.9014
   81SAPS  H17Y 7609   0.751   1.421   8.590 -1.0923 -0.4126  1.0855
   81SAPS  C318 7610   0.809   1.604   8.479  0.1022 -0.1107  0.9383
   81SAPS  H18X 7611   0.799   1.544   8.387 -4.3586  0.6074  0.7382
   81SAPS  H18Y 7612   0.918   1.608   8.502  0.4958  3.1809 -0.8383
   81SAPS  H18Z 7613   0.768   1.706   8.464  0.2180 -0.0122  1.2729
   82SAPS     N 7614   6.473   0.998  11.071  0.5916  0.0075 -0.1010
   82SAPS   HN1 7615   6.555   1.029  11.016  1.2928  0.7305  1.2870
   82SAPS   HN2 7616   6.402   0.954  11.009  0.1287 -1.2134  1.2566
   82SAPS   HN3 7617   6.430   1.081  11.118 -2.0931 -1.6561  0.5703
   82SAPS   C12 7618   6.524   0.918  11.178  0.3294  0.2563  0.1195
   82SAPS  H12A 7619   6.560   0.982  11.257 -1.2040  3.3243 -1.5115
   82SAPS   C13 7620   6.425   0.824  11.242  0.6538  0.7100  0.2262
   82SAPS  O13A 7621   6.308   0.832  11.202 -0.8018  0.1809 -0.2013
   82SAPS  O13B 7622   6.456   0.777  11.357 -0.1473  0.6378 -0.3881
   82SAPS   C11 7623   6.638   0.822  11.128  0.0724  0.3188 -0.5344
   82SAPS  H11A 7624   6.685   0.765  11.210 -1.5172  0.7193  0.7151
   82SAPS  H11B 7625   6.714   0.892  11.088 -0.6113  2.4616  1.6876
   82SAPS     P 7626   6.679   0.624  10.958 -0.0565 -0.2304 -0.3308
   82SAPS   O13 7627   6.783   0.589  11.059 -0.4425 -0.2809  0.5062
   82SAPS   O14 7628   6.590   0.512  10.920 -0.3103  0.2594 -0.9797
   82SAPS   O12 7629   6.582   0.743  11.014  0.2203  0.2326  0.1435
   82SAPS   O11 7630   6.747   0.685  10.831 -0.6308  0.4214  0.5162
   82SAPS    C1 7631   6.648   0.732  10.735 -0.0851 -0.0112  0.3967
   82SAPS    HA 7632   6.590   0.651  10.687 -2.8089  1.7131  0.5615
   82SAPS    HB 7633   6.576   0.808  10.772 -0.1202  0.6975 -1.0667
   82SAPS    C2 7634   6.732   0.800  10.618 -0.7784  0.1176 -0.4367
   82SAPS    HS 7635   6.762   0.903  10.646 -1.8664  0.7166 -1.4014
   82SAPS   O21 7636   6.664   0.799  10.493 -0.1860  0.5585 -0.2064
   82SAPS   C21 7637   6.598   0.904  10.471  0.4205  0.4500 -0.4055
   82SAPS   O22 7638   6.583   1.004  10.546  0.1084 -0.0816  0.6780
   82SAPS   C22 7639   6.538   0.897  10.331 -0.4211  0.2355  0.2544
   82SAPS   H2R 7640   6.630   0.912  10.270 -0.0978 -0.4824  0.5571
   82SAPS   H2S 7641   6.488   0.799  10.317  1.3597 -0.7274  0.3976
   82SAPS    C3 7642   6.869   0.723  10.596 -0.7202 -0.0154 -0.9646
   82SAPS    HX 7643   6.942   0.722  10.679  2.3527 -1.7495 -3.4976
   82SAPS    HY 7644   6.932   0.775  10.520 -0.7889  0.5534 -0.6409
   82SAPS   O31 7645   6.849   0.584  10.557  0.3133  0.4743 -0.1570
   82SAPS   C31 7646   6.831   0.570  10.428 -0.2700 -0.3886 -0.1743
   82SAPS   O32 7647   6.841   0.655  10.342  0.4515  0.2300 -0.2658
   82SAPS   C32 7648   6.805   0.422  10.407 -0.0370  0.2216  0.4151
   82SAPS   H2X 7649   6.724   0.393  10.478  0.7744 -1.5120  0.6764
   82SAPS   H2Y 7650   6.891   0.370  10.453  2.1116  1.6558 -1.7251
   82SAPS   C23 7651   6.442   1.010  10.320  0.4633 -0.7418  0.5456
   82SAPS   H3R 7652   6.491   1.109  10.337  0.3661  0.0275 -2.9554
   82SAPS   H3S 7653   6.357   1.000  10.390  0.9320 -0.1900  1.2170
   82SAPS   C24 7654   6.382   1.014  10.185 -0.0361 -0.4700  0.3094
   82SAPS   H4R 7655   6.332   0.918  10.160 -1.0448  0.2357 -0.4530
   82SAPS   H4S 7656   6.462   1.032  10.110 -1.8136  0.1352 -1.5405
   82SAPS   C25 7657   6.300   1.130  10.154  0.6238 -0.6291 -0.2843
   82SAPS   H5R 7658   6.350   1.226  10.172 -0.3699 -0.1739  0.1047
   82SAPS   C26 7659   6.172   1.115  10.107 -0.9179  0.2279  0.2505
   82SAPS   H6R 7660   6.117   1.202  10.069 -3.1811 -1.1009  0.3169
   82SAPS   C27 7661   6.095   0.989  10.076  0.2278 -0.5532  0.2053
   82SAPS   H7R 7662   6.157   0.936  10.001 -0.4458 -0.4944 -0.4104
   82SAPS   H7S 7663   6.004   1.012  10.016 -1.2926  0.1991  2.6628
   82SAPS   C28 7664   6.055   0.902  10.195 -0.1159  0.2114  0.3216
   82SAPS   H8R 7665   6.067   0.956  10.290  4.3888  2.1231 -1.0873
   82SAPS   C29 7666   6.030   0.767  10.182  0.2013 -0.1804 -0.1555
   82SAPS   H9R 7667   6.016   0.709  10.274 -0.3116  1.2985  0.7417
   82SAPS  C210 7668   6.025   0.681  10.056 -0.6494 -0.0042  0.1963
   82SAPS  H10R 7669   6.054   0.577  10.084  0.1249  0.6453  2.0028
   82SAPS  H10S 7670   6.099   0.723   9.986 -1.5615  1.2155 -0.0630
   82SAPS  C211 7671   5.888   0.677   9.991 -0.4316  0.5156 -0.1201
   82SAPS  H11R 7672   5.796   0.668  10.052 -1.6319 -0.6455 -2.0140
   82SAPS  C212 7673   5.876   0.666   9.858 -0.6330 -0.5722  0.1930
   82SAPS  H12R 7674   5.772   0.666   9.820 -1.0510  1.2727  1.2215
   82SAPS  C213 7675   5.989   0.664   9.756 -0.0994  0.5587 -0.6112
   82SAPS  H13R 7676   5.971   0.585   9.680 -2.2406 -1.4762  1.7788
   82SAPS  H13S 7677   6.087   0.628   9.796 -0.5601  0.6692  0.6744
   82SAPS  C214 7678   6.010   0.791   9.690 -0.0564 -0.5175 -0.1193
   82SAPS  H14R 7679   6.065   0.858   9.758 -1.6832 -0.8261  1.5937
   82SAPS  C215 7680   5.980   0.832   9.569  0.6498  0.2057 -0.7459
   82SAPS  H15R 7681   6.016   0.932   9.538  1.9003 -0.6984 -2.3397
   82SAPS  C216 7682   5.895   0.753   9.469 -0.4448 -0.2798 -0.0458
   82SAPS  H16R 7683   5.818   0.823   9.429  0.6795  0.8659 -0.2477
   82SAPS  H16S 7684   5.845   0.674   9.528 -0.6117  0.8618  1.3790
   82SAPS  C217 7685   5.975   0.707   9.345  0.6367  0.8684 -0.0953
   82SAPS  H17R 7686   6.057   0.643   9.385 -0.4557 -1.2312 -1.0213
   82SAPS  H17S 7687   6.031   0.777   9.280  0.8943 -1.1347 -2.1534
   82SAPS  C218 7688   5.878   0.617   9.256 -0.5724 -0.1704  0.4873
   82SAPS  H18R 7689   5.793   0.675   9.214 -0.3043  1.7188  2.4141
   82SAPS  H18S 7690   5.841   0.531   9.316  1.0321 -0.1223  1.6141
   82SAPS  C219 7691   5.945   0.542   9.136  0.2453 -0.3326  0.0028
   82SAPS  H19R 7692   5.883   0.455   9.105 -0.5063 -0.0580  0.6985
   82SAPS  H19S 7693   6.035   0.497   9.182  0.1421 -1.6425 -1.0322
   82SAPS  C220 7694   5.964   0.632   9.010  0.3883  0.1447 -0.7561
   82SAPS  H20R 7695   5.869   0.664   8.963  1.8006  0.9946 -3.2480
   82SAPS  H20S 7696   6.012   0.566   8.934  1.7034 -0.9423  0.9438
   82SAPS  H20T 7697   6.031   0.718   9.035  2.0233 -1.3474  0.2523
   82SAPS   C33 7698   6.778   0.388  10.259 -0.2156 -0.0233 -0.2507
   82SAPS   H3X 7699   6.713   0.463  10.208  1.1277  0.7655 -0.8704
   82SAPS   H3Y 7700   6.733   0.287  10.259  0.1809 -0.2034 -0.5208
   82SAPS   C34 7701   6.907   0.371  10.170  0.0243  0.2847 -0.5575
   82SAPS   H4X 7702   6.978   0.302  10.221  1.1301  1.3545 -0.5830
   82SAPS   H4Y 7703   6.962   0.466  10.150  0.6907  0.1605  0.6009
   82SAPS   C35 7704   6.886   0.320  10.030 -0.0917  0.2416  1.1870
   82SAPS   H5X 7705   6.856   0.399   9.957  2.9788  1.3370  0.9732
   82SAPS   H5Y 7706   6.812   0.237  10.037  1.2426 -1.3599 -1.8500
   82SAPS   C36 7707   7.019   0.277   9.959 -0.6103 -0.0965  0.0919
   82SAPS   H6X 7708   7.074   0.213  10.031  0.9357  0.5744 -0.4517
   82SAPS   H6Y 7709   7.083   0.362   9.928 -0.7273 -0.4423 -1.1518
   82SAPS   C37 7710   7.003   0.192   9.830 -0.3863  0.4773  0.0267
   82SAPS   H7X 7711   6.930   0.114   9.860 -1.4063  2.3406  2.8056
   82SAPS   H7Y 7712   7.099   0.141   9.807 -1.0493 -2.6926  3.4755
   82SAPS   C38 7713   6.967   0.271   9.704  0.2264  0.0991  0.1882
   82SAPS   H8X 7714   7.050   0.344   9.690 -0.2971  0.8008  0.6739
   82SAPS   H8Y 7715   6.878   0.336   9.712  1.1178  2.0260 -3.3369
   82SAPS   C39 7716   6.970   0.180   9.577 -0.4984  0.8256 -0.4995
   82SAPS   H9X 7717   6.886   0.109   9.590 -2.1347  2.5855 -1.0368
   82SAPS   H9Y 7718   7.064   0.121   9.584 -1.2866 -0.2109  2.8771
   82SAPS  C310 7719   6.946   0.255   9.444  0.1501 -0.0460  0.4153
   82SAPS  H10X 7720   7.022   0.335   9.435 -1.7151  1.6546 -1.0577
   82SAPS  H10Y 7721   6.847   0.305   9.450  0.5655  1.0924 -1.3818
   82SAPS  C311 7722   6.948   0.160   9.334 -0.1833  0.5728  0.7238
   82SAPS  H11X 7723   6.870   0.083   9.351 -0.2637  0.7375  1.0985
   82SAPS  H11Y 7724   7.046   0.109   9.322  0.2469  1.2566  1.2695
   82SAPS  C312 7725   6.892   0.225   9.204 -0.7247 -0.0504  0.1651
   82SAPS  H12X 7726   6.825   0.309   9.233 -0.0018 -0.1180  2.2714
   82SAPS  H12Y 7727   6.849   0.141   9.146  0.8132  0.3037 -1.5823
   82SAPS  C313 7728   7.009   0.288   9.120  0.4552  0.4005 -0.2512
   82SAPS  H13X 7729   7.109   0.243   9.139 -0.2221 -0.5209  1.3241
   82SAPS  H13Y 7730   7.012   0.395   9.149 -2.6000  0.4494  0.2119
   82SAPS  C314 7731   6.994   0.274   8.962  0.1221  0.8028  0.0547
   82SAPS  H14X 7732   6.885   0.284   8.939 -0.3288 -0.9935  1.2042
   82SAPS  H14Y 7733   7.038   0.175   8.938  0.2115  0.8649 -0.0342
   82SAPS  C315 7734   7.076   0.376   8.883  0.3859 -0.4808  0.2011
   82SAPS  H15X 7735   7.183   0.370   8.912  0.4182 -1.0182  0.0006
   82SAPS  H15Y 7736   7.045   0.476   8.920  0.3588 -0.7177  0.8357
   82SAPS  C316 7737   7.066   0.378   8.727  0.1157  0.3901  0.2234
   82SAPS  H16X 7738   7.132   0.302   8.679  0.7616  1.2124 -0.2303
   82SAPS  H16Y 7739   7.118   0.472   8.697  1.1890  0.2774  1.6088
   82SAPS  C317 7740   6.926   0.377   8.664 -0.5636 -0.3579 -0.1898
   82SAPS  H17X 7741   6.927   0.441   8.574 -3.5228  0.6393  0.3684
   82SAPS  H17Y 7742   6.855   0.420   8.738  0.5454  0.3122  0.5221
   82SAPS  C318 7743   6.886   0.231   8.637 -0.2024 -0.2481  0.2094
   82SAPS  H18X 7744   6.876   0.183   8.736  0.6631  2.7890  1.9154
   82SAPS  H18Y 7745   6.962   0.191   8.566  0.0455  1.1544 -0.3518
   82SAPS  H18Z 7746   6.784   0.234   8.593 -0.2816 -1.1499  0.3274
   83SAPS     N 7747   2.016   2.357  11.026 -0.1856  0.9017 -0.1181
   83SAPS   HN1 7748   2.089   2.284  11.042 -0.5171  0.9530  1.7992
   83SAPS   HN2 7749   1.925   2.309  11.012 -1.0625  2.4108  0.1728
   83SAPS   HN3 7750   2.034   2.409  10.937  1.4586  2.0615  0.8234
   83SAPS   C12 7751   2.015   2.446  11.144  0.0016  0.2020  0.3489
   83SAPS  H12A 7752   1.934   2.515  11.133  0.8593  1.1045 -0.4800
   83SAPS   C13 7753   1.994   2.365  11.276 -0.8265 -0.3186 -0.4245
   83SAPS  O13A 7754   2.004   2.239  11.281 -0.0171 -0.1359  0.4646
   83SAPS  O13B 7755   2.001   2.439  11.381  0.2280 -0.1501 -0.9519
   83SAPS   C11 7756   2.149   2.523  11.145  0.3112  0.1986 -0.1704
   83SAPS  H11A 7757   2.230   2.450  11.169 -2.3393 -2.3502  1.7097
   83SAPS  H11B 7758   2.149   2.589  11.235 -2.8754 -0.0046  0.0751
   83SAPS     P 7759   2.282   2.713  11.022  0.1978  0.0784  0.3252
   83SAPS   O13 7760   2.404   2.688  11.114 -0.3385  0.0991  0.1439
   83SAPS   O14 7761   2.309   2.739  10.881  0.1900 -0.1820 -0.3454
   83SAPS   O12 7762   2.177   2.594  11.025  0.2301  0.2733  0.0300
   83SAPS   O11 7763   2.203   2.844  11.060 -0.0867  0.7764 -0.0133
   83SAPS    C1 7764   2.072   2.853  10.998  0.3677  0.3239 -0.8167
   83SAPS    HA 7765   2.034   2.758  10.956  1.2621 -0.3560 -0.1340
   83SAPS    HB 7766   1.996   2.869  11.078  1.3584  1.0529  0.0162
   83SAPS    C2 7767   2.064   2.965  10.885  0.1496  0.4059 -0.3827
   83SAPS    HS 7768   1.955   2.988  10.877 -0.0751  1.8475  4.1590
   83SAPS   O21 7769   2.121   2.904  10.773  0.0567 -0.3966 -0.3447
   83SAPS   C21 7770   2.040   2.851  10.687  0.1126  0.1435 -0.1827
   83SAPS   O22 7771   1.920   2.868  10.690 -0.3056  0.0653 -0.1181
   83SAPS   C22 7772   2.122   2.785  10.582  0.4024  0.1617 -0.0036
   83SAPS   H2R 7773   2.212   2.749  10.636  0.2924 -1.8544 -1.0324
   83SAPS   H2S 7774   2.057   2.701  10.549 -2.7867  1.4614  2.4885
   83SAPS    C3 7775   2.144   3.087  10.920  0.0921 -0.0998  0.1245
   83SAPS    HX 7776   2.244   3.050  10.951  1.4691  1.2321 -2.3746
   83SAPS    HY 7777   2.086   3.133  11.003 -0.1786  2.1196 -1.1969
   83SAPS   O31 7778   2.149   3.187  10.811 -0.3637  0.4580 -0.0743
   83SAPS   C31 7779   2.263   3.184  10.735  0.4043 -0.4507 -0.9916
   83SAPS   O32 7780   2.355   3.100  10.747  0.1567  0.3916  0.4300
   83SAPS   C32 7781   2.256   3.295  10.630 -0.4748  0.3648  0.4333
   83SAPS   H2X 7782   2.349   3.353  10.648  0.0442  0.3045 -1.7724
   83SAPS   H2Y 7783   2.162   3.352  10.639 -1.7738 -1.7631  1.2877
   83SAPS   C23 7784   2.149   2.868  10.449  0.0135 -0.0150 -0.2478
   83SAPS   H3R 7785   2.232   2.941  10.459  0.4844 -0.4089 -1.2152
   83SAPS   H3S 7786   2.058   2.929  10.429 -1.1079 -0.8193  1.9968
   83SAPS   C24 7787   2.153   2.782  10.315 -0.5995  0.4475 -0.1446
   83SAPS   H4R 7788   2.115   2.837  10.226  2.1416  0.9194 -1.1203
   83SAPS   H4S 7789   2.076   2.703  10.324  0.9915 -1.1289  0.2378
   83SAPS   C25 7790   2.291   2.728  10.284 -0.1285 -0.2177 -0.1575
   83SAPS   H5R 7791   2.345   2.696  10.375 -1.7350 -3.1700 -0.1224
   83SAPS   C26 7792   2.348   2.718  10.165  0.3620  0.2685  0.0826
   83SAPS   H6R 7793   2.454   2.687  10.162  0.7351  1.5889 -1.3834
   83SAPS   C27 7794   2.296   2.773  10.036  0.0379  0.6471  0.1319
   83SAPS   H7R 7795   2.186   2.766  10.049  0.0815  1.4988  1.0821
   83SAPS   H7S 7796   2.335   2.722   9.945  2.6584 -0.0410  1.5132
   83SAPS   C28 7797   2.330   2.917  10.022  1.6123  0.5658 -0.7639
   83SAPS   H8R 7798   2.310   2.971  10.116 -1.3715  1.6090 -1.8652
   83SAPS   C29 7799   2.374   2.990   9.918 -0.3203 -0.4129  0.5350
   83SAPS   H9R 7800   2.398   3.096   9.934  0.1557 -0.1532 -1.5268
   83SAPS  C210 7801   2.399   2.939   9.773 -0.0999 -0.6411 -0.0560
   83SAPS  H10R 7802   2.396   2.827   9.774  1.3965 -0.8057  3.8493
   83SAPS  H10S 7803   2.498   2.971   9.735 -0.1071  0.0594  0.4974
   83SAPS  C211 7804   2.292   2.995   9.683  0.2170 -0.1296  0.1733
   83SAPS  H11R 7805   2.186   2.983   9.710  0.1921  0.0069  0.1385
   83SAPS  C212 7806   2.312   3.055   9.563 -0.4728  0.1875 -0.0327
   83SAPS  H12R 7807   2.227   3.116   9.529 -0.0972  0.2617 -0.8662
   83SAPS  C213 7808   2.449   3.064   9.496  1.1682 -0.2227 -0.4905
   83SAPS  H13R 7809   2.434   3.057   9.386 -0.6982  1.3102 -0.3879
   83SAPS  H13S 7810   2.508   2.977   9.533 -0.1313 -0.0419  2.2113
   83SAPS  C214 7811   2.516   3.198   9.522  0.0487  1.3284  0.0476
   83SAPS  H14R 7812   2.577   3.195   9.614  0.3924 -1.1950 -0.2011
   83SAPS  C215 7813   2.490   3.313   9.461  0.1932  0.2851  0.1743
   83SAPS  H15R 7814   2.550   3.402   9.483  1.8483 -1.0116  1.1307
   83SAPS  C216 7815   2.394   3.325   9.343 -1.0121 -0.4058  1.5828
   83SAPS  H16R 7816   2.296   3.366   9.376 -1.8246  0.8964 -1.9742
   83SAPS  H16S 7817   2.359   3.234   9.289 -0.5603  1.3260 -1.9538
   83SAPS  C217 7818   2.457   3.417   9.232 -0.8195  0.0413 -0.4888
   83SAPS  H17R 7819   2.553   3.373   9.197 -1.7351 -0.1564 -2.9470
   83SAPS  H17S 7820   2.470   3.518   9.278 -0.4135 -0.0532 -0.3929
   83SAPS  C218 7821   2.372   3.446   9.102  0.1032  0.4037 -0.4918
   83SAPS  H18R 7822   2.283   3.504   9.137 -0.5430  0.0495 -1.5078
   83SAPS  H18S 7823   2.332   3.352   9.059 -2.3469  1.1647 -0.0645
   83SAPS  C219 7824   2.447   3.517   8.995  0.8864  0.2939 -0.3287
   83SAPS  H19R 7825   2.465   3.620   9.033 -1.0684  0.4310  0.3279
   83SAPS  H19S 7826   2.386   3.534   8.904  1.5073  2.0923 -0.4385
   83SAPS  C220 7827   2.568   3.436   8.943  0.6432  0.7943 -0.0900
   83SAPS  H20R 7828   2.619   3.514   8.883  0.4730 -0.3144 -1.7335
   83SAPS  H20S 7829   2.536   3.353   8.876  0.5860  1.5964 -1.0768
   83SAPS  H20T 7830   2.638   3.415   9.026  0.0307  0.6007  0.3888
   83SAPS   C33 7831   2.278   3.237  10.481  0.2873 -0.0335  0.7893
   83SAPS   H3X 7832   2.185   3.187  10.447 -0.3474  0.6853  1.4233
   83SAPS   H3Y 7833   2.359   3.162  10.487  0.6094  0.2213 -0.1103
   83SAPS   C34 7834   2.309   3.345  10.377  0.2266 -0.9644  0.9251
   83SAPS   H4X 7835   2.411   3.386  10.388 -0.1215  0.8922 -1.6955
   83SAPS   H4Y 7836   2.230   3.420  10.396  1.5639 -0.0721  3.3024
   83SAPS   C35 7837   2.282   3.298  10.229 -0.1618  0.2904  0.2322
   83SAPS   H5X 7838   2.188   3.239  10.221  0.6937 -1.3155  1.4624
   83SAPS   H5Y 7839   2.360   3.223  10.206  0.3509  0.8019  0.2700
   83SAPS   C36 7840   2.305   3.409  10.124  0.7500 -0.2915 -0.4155
   83SAPS   H6X 7841   2.412   3.434  10.115  0.8604 -0.8557 -0.7364
   83SAPS   H6Y 7842   2.254   3.505  10.148 -0.0349 -1.1288  1.5581
   83SAPS   C37 7843   2.247   3.360   9.990  0.3693 -1.0030  0.1801
   83SAPS   H7X 7844   2.137   3.355  10.001  0.2969 -1.7677 -0.7521
   83SAPS   H7Y 7845   2.289   3.262   9.959  1.4855 -0.7242  0.7425
   83SAPS   C38 7846   2.278   3.465   9.877  0.7947  0.2866 -0.3872
   83SAPS   H8X 7847   2.389   3.465   9.883  0.8077 -1.4703  0.0388
   83SAPS   H8Y 7848   2.233   3.563   9.904 -0.5471 -0.6671  1.0041
   83SAPS   C39 7849   2.231   3.426   9.735  0.3667 -0.3127  0.7297
   83SAPS   H9X 7850   2.244   3.318   9.713 -0.2564  0.0241 -1.5573
   83SAPS   H9Y 7851   2.286   3.484   9.658 -1.6309 -0.0758 -0.5975
   83SAPS  C310 7852   2.072   3.434   9.712  0.2118 -0.0781  0.1860
   83SAPS  H10X 7853   2.036   3.539   9.712 -1.3601 -0.5884  0.9888
   83SAPS  H10Y 7854   2.028   3.378   9.797  2.0126  0.1344  1.3293
   83SAPS  C311 7855   2.041   3.368   9.583  0.4283 -0.3622 -0.0244
   83SAPS  H11X 7856   2.078   3.263   9.594  2.0525  0.2210  0.4241
   83SAPS  H11Y 7857   2.111   3.417   9.512  0.7102 -0.2889  0.3011
   83SAPS  C312 7858   1.898   3.382   9.542 -0.1152  0.1459  0.0088
   83SAPS  H12X 7859   1.869   3.487   9.564  0.2263  0.9445 -2.9644
   83SAPS  H12Y 7860   1.833   3.312   9.599 -0.4049  0.8674  0.5865
   83SAPS  C313 7861   1.888   3.342   9.388  0.5686  0.1734 -0.1181
   83SAPS  H13X 7862   1.782   3.336   9.356  0.5943 -0.8310 -0.0346
   83SAPS  H13Y 7863   1.915   3.234   9.392 -1.3696 -0.3298  0.0696
   83SAPS  C314 7864   1.973   3.424   9.292 -0.1639  0.4809 -0.6935
   83SAPS  H14X 7865   2.079   3.406   9.318  0.7755  3.3914 -2.0722
   83SAPS  H14Y 7866   1.945   3.531   9.297 -0.7721  0.3140  3.5558
   83SAPS  C315 7867   1.948   3.379   9.153 -0.0474 -0.1631  0.1482
   83SAPS  H15X 7868   1.843   3.347   9.137  0.0945 -1.2077  1.2382
   83SAPS  H15Y 7869   2.010   3.288   9.146 -2.4751 -1.8993  0.0855
   83SAPS  C316 7870   1.996   3.477   9.046  0.1182  1.1122 -0.6855
   83SAPS  H16X 7871   2.079   3.535   9.091 -0.4704  0.1301  1.8650
   83SAPS  H16Y 7872   1.913   3.548   9.027  0.1743  1.2698 -0.3549
   83SAPS  C317 7873   2.045   3.418   8.922  0.6955 -0.6817  0.0242
   83SAPS  H17X 7874   1.954   3.375   8.874 -0.3606  1.1286  0.3039
   83SAPS  H17Y 7875   2.118   3.339   8.950  3.2391  1.1434 -1.0242
   83SAPS  C318 7876   2.098   3.520   8.824  0.1506  0.0061  0.0951
   83SAPS  H18X 7877   2.175   3.579   8.877  0.0981 -0.2759  0.4845
   83SAPS  H18Y 7878   2.024   3.592   8.783  0.0211 -0.2368 -0.1030
   83SAPS  H18Z 7879   2.160   3.465   8.749 -0.4803 -1.0605  0.3400
   84SAPS     N 7880   3.915   1.486  11.083 -0.0215 -0.2206 -0.4846
   84SAPS   HN1 7881   3.831   1.466  11.025 -0.3310  1.2654 -0.5781
   84SAPS   HN2 7882   3.992   1.503  11.014  0.4343 -0.2004  0.0249
   84SAPS   HN3 7883   3.940   1.395  11.127  0.9817  0.1905 -0.1650
   84SAPS   C12 7884   3.906   1.589  11.190  0.0474 -0.5572 -0.5307
   84SAPS  H12A 7885   3.836   1.558  11.266  0.5144 -0.8764 -0.2235
   84SAPS   C13 7886   4.043   1.612  11.264  0.2709  0.6560  0.0672
   84SAPS  O13A 7887   4.153   1.569  11.209  0.2337 -0.0409  0.1673
   84SAPS  O13B 7888   4.054   1.680  11.366  0.4826  0.1554  0.5781
   84SAPS   C11 7889   3.859   1.728  11.124 -0.1941  0.2462 -0.0681
   84SAPS  H11A 7890   3.847   1.793  11.213 -1.5558 -1.2342  0.8836
   84SAPS  H11B 7891   3.763   1.715  11.069 -1.2967 -1.4916  2.1089
   84SAPS     P 7892   3.999   1.919  11.006 -0.0371  0.0104  0.4551
   84SAPS   O13 7893   3.923   2.009  11.095 -0.2000 -0.2162  0.0965
   84SAPS   O14 7894   4.150   1.933  11.012 -0.1870 -0.2116  0.0469
   84SAPS   O12 7895   3.957   1.775  11.033  0.2106  0.7568 -0.1510
   84SAPS   O11 7896   3.958   1.943  10.846  0.5096 -0.1421 -0.1219
   84SAPS    C1 7897   3.921   1.826  10.767 -0.6345  0.0965  0.0183
   84SAPS    HA 7898   3.862   1.750  10.822 -0.9441 -0.1342 -0.6146
   84SAPS    HB 7899   3.869   1.854  10.673  0.9162  4.8755  0.3253
   84SAPS    C2 7900   4.054   1.755  10.713  0.0936 -0.5212  0.2488
   84SAPS    HS 7901   4.106   1.716  10.803 -1.4785 -1.3840  0.8170
   84SAPS   O21 7902   4.131   1.861  10.653  0.2943  0.3995  0.4466
   84SAPS   C21 7903   4.251   1.828  10.617 -0.1061 -0.3600 -0.3584
   84SAPS   O22 7904   4.321   1.740  10.655  0.3902  0.8210  0.4343
   84SAPS   C22 7905   4.286   1.928  10.512 -0.6354 -0.2579 -0.2992
   84SAPS   H2R 7906   4.197   1.959  10.453 -1.4329 -1.2001  0.3797
   84SAPS   H2S 7907   4.328   2.014  10.569  0.4303 -0.6569 -0.4569
   84SAPS    C3 7908   4.031   1.639  10.610 -0.5052 -0.2634 -0.8126
   84SAPS    HX 7909   3.973   1.555  10.654  0.0527 -1.1669 -1.7486
   84SAPS    HY 7910   4.131   1.597  10.583 -0.3220 -0.3902  0.0193
   84SAPS   O31 7911   3.977   1.691  10.489  0.0738 -0.2227  0.2472
   84SAPS   C31 7912   3.869   1.632  10.448  0.0068  0.1184  0.3608
   84SAPS   O32 7913   3.797   1.553  10.511 -0.3070  0.0914 -0.3671
   84SAPS   C32 7914   3.840   1.684  10.304 -0.5799 -0.2579 -0.0827
   84SAPS   H2X 7915   3.849   1.604  10.227  0.4399  0.5298 -0.7956
   84SAPS   H2Y 7916   3.916   1.764  10.299 -1.3104  0.6406  2.0635
   84SAPS   C23 7917   4.399   1.889  10.423  0.9009  0.2947  0.3423
   84SAPS   H3R 7918   4.495   1.882  10.478  1.6673  2.8536 -0.5616
   84SAPS   H3S 7919   4.422   1.967  10.348 -1.3799 -0.2411 -1.0305
   84SAPS   C24 7920   4.380   1.762  10.335 -0.0484 -0.3450  0.3893
   84SAPS   H4R 7921   4.374   1.677  10.406  0.2415  0.8547  1.9236
   84SAPS   H4S 7922   4.465   1.738  10.268 -0.9748 -1.7907 -0.3127
   84SAPS   C25 7923   4.258   1.791  10.259 -0.2472  0.2109 -0.1701
   84SAPS   H5R 7924   4.169   1.757  10.315  2.1852 -2.9401  2.1820
   84SAPS   C26 7925   4.251   1.843  10.135  0.4895 -0.9136 -0.8092
   84SAPS   H6R 7926   4.154   1.872  10.092 -0.1400  0.6414  1.4726
   84SAPS   C27 7927   4.376   1.888  10.056  0.0189  0.5173 -0.4766
   84SAPS   H7R 7928   4.459   1.909  10.127 -3.4705  4.1279  3.0449
   84SAPS   H7S 7929   4.346   1.993  10.037  1.0895  1.5931  3.0630
   84SAPS   C28 7930   4.398   1.798   9.938 -0.3293  0.3149  0.2136
   84SAPS   H8R 7931   4.452   1.706   9.967 -0.6359 -0.0558 -0.3775
   84SAPS   C29 7932   4.371   1.827   9.808 -0.4291  0.5285 -0.3149
   84SAPS   H9R 7933   4.401   1.753   9.732  0.4356 -1.8053  2.1544
   84SAPS  C210 7934   4.318   1.951   9.730  0.0144  0.4604  0.5763
   84SAPS  H10R 7935   4.396   1.980   9.656 -0.2864  1.2934  0.5821
   84SAPS  H10S 7936   4.318   2.035   9.803  2.5807  0.8845  0.1840
   84SAPS  C211 7937   4.183   1.937   9.657  0.3159  0.5690 -0.1540
   84SAPS  H11R 7938   4.098   1.953   9.723 -0.4934  1.8491 -1.4478
   84SAPS  C212 7939   4.160   1.922   9.522  0.1729  0.3686 -1.1762
   84SAPS  H12R 7940   4.055   1.916   9.490  0.2510 -0.5968 -1.2699
   84SAPS  C213 7941   4.267   1.915   9.421 -0.3636  0.0401  1.1079
   84SAPS  H13R 7942   4.274   1.809   9.388  3.9313 -0.2645  2.3820
   84SAPS  H13S 7943   4.363   1.937   9.472 -1.0045  1.4169  1.7764
   84SAPS  C214 7944   4.249   2.014   9.309  0.4278  0.8191  0.3941
   84SAPS  H14R 7945   4.147   2.048   9.287  0.8832  1.1507 -1.4429
   84SAPS  C215 7946   4.342   2.060   9.226 -0.7461 -0.2065  0.4029
   84SAPS  H15R 7947   4.313   2.134   9.150 -1.8773  1.3009  2.2106
   84SAPS  C216 7948   4.492   2.029   9.214  0.7307  0.3838  0.5238
   84SAPS  H16R 7949   4.517   1.942   9.278 -0.0174 -0.3729 -0.1776
   84SAPS  H16S 7950   4.551   2.117   9.246  0.1272  1.3013 -0.7943
   84SAPS  C217 7951   4.522   1.991   9.067  0.2865 -0.2610  0.6004
   84SAPS  H17R 7952   4.444   1.921   9.032  0.7329 -0.3519 -0.2289
   84SAPS  H17S 7953   4.611   1.925   9.067 -0.0813 -0.8066 -1.1110
   84SAPS  C218 7954   4.533   2.107   8.971  0.6774 -0.2922 -0.1285
   84SAPS  H18R 7955   4.598   2.182   9.022 -1.1844  2.3670 -1.4082
   84SAPS  H18S 7956   4.438   2.164   8.967  0.1535 -1.1580 -0.2887
   84SAPS  C219 7957   4.573   2.064   8.832 -0.1118 -0.5437 -0.6158
   84SAPS  H19R 7958   4.521   1.968   8.810  0.5695 -1.2050  0.5865
   84SAPS  H19S 7959   4.677   2.025   8.838  1.0487  2.4715  1.2224
   84SAPS  C220 7960   4.563   2.154   8.705 -0.1809  0.2889  0.3314
   84SAPS  H20R 7961   4.622   2.106   8.624 -0.4799 -0.5442  0.6008
   84SAPS  H20S 7962   4.606   2.253   8.730 -0.1076  0.2297  0.4396
   84SAPS  H20T 7963   4.462   2.168   8.660  1.5766 -0.6891 -4.4871
   84SAPS   C33 7964   3.701   1.741  10.283 -0.1313 -1.2136  0.5257
   84SAPS   H3X 7965   3.695   1.843  10.327  0.1628 -0.9103 -0.1133
   84SAPS   H3Y 7966   3.622   1.671  10.317 -0.5902 -2.4797 -2.7195
   84SAPS   C34 7967   3.677   1.767  10.136 -0.2890 -0.1064  0.4366
   84SAPS   H4X 7968   3.576   1.811  10.122  0.5114  1.3424 -1.2224
   84SAPS   H4Y 7969   3.679   1.668  10.085 -0.6331  0.8537 -1.5450
   84SAPS   C35 7970   3.774   1.862  10.062 -0.4683 -0.3811  0.3275
   84SAPS   H5X 7971   3.868   1.802  10.063  0.3627  0.7337 -2.8103
   84SAPS   H5Y 7972   3.790   1.960  10.111 -2.9815  0.2358  0.0463
   84SAPS   C36 7973   3.726   1.886   9.913 -0.1673  0.7450  0.7128
   84SAPS   H6X 7974   3.615   1.887   9.920 -0.2589  2.0684 -0.5021
   84SAPS   H6Y 7975   3.761   1.797   9.856 -0.8138 -1.4154  3.4245
   84SAPS   C37 7976   3.775   2.010   9.840 -0.1778 -0.2065 -0.6233
   84SAPS   H7X 7977   3.884   1.994   9.850 -0.0296  1.7316  2.1886
   84SAPS   H7Y 7978   3.751   2.105   9.893  1.5022  0.8926 -1.7691
   84SAPS   C38 7979   3.724   2.030   9.693 -0.0900 -0.3298 -0.3256
   84SAPS   H8X 7980   3.750   2.129   9.649 -4.6858  0.9854 -0.5729
   84SAPS   H8Y 7981   3.615   2.030   9.712  0.4434  1.7420  4.0636
   84SAPS   C39 7982   3.773   1.922   9.598  0.2198 -0.5031  0.2988
   84SAPS   H9X 7983   3.715   1.830   9.621  1.1492 -1.1167  0.2563
   84SAPS   H9Y 7984   3.878   1.905   9.631  0.0805  1.4652  1.8881
   84SAPS  C310 7985   3.749   1.939   9.451 -0.5893  0.1478 -0.7403
   84SAPS  H10X 7986   3.805   2.028   9.416 -2.1985  1.2871 -0.5068
   84SAPS  H10Y 7987   3.640   1.957   9.441 -1.2927 -1.9218  2.0831
   84SAPS  C311 7988   3.799   1.811   9.374  0.1888  0.3157  0.1322
   84SAPS  H11X 7989   3.767   1.725   9.436 -0.5959 -1.2479 -2.2870
   84SAPS  H11Y 7990   3.909   1.809   9.359  0.2565 -0.8657  0.6386
   84SAPS  C312 7991   3.726   1.797   9.242  0.1655 -1.0021 -0.3945
   84SAPS  H12X 7992   3.617   1.816   9.246  0.4092  0.4403  0.3216
   84SAPS  H12Y 7993   3.741   1.691   9.214  0.2717 -0.7325 -1.4044
   84SAPS  C313 7994   3.797   1.874   9.127  0.4759  0.0962 -0.2450
   84SAPS  H13X 7995   3.803   1.978   9.165  0.1501 -0.0546  0.2274
   84SAPS  H13Y 7996   3.736   1.879   9.034  0.6449 -1.1497 -0.4479
   84SAPS  C314 7997   3.935   1.820   9.085  0.1657 -0.1100 -1.1397
   84SAPS  H14X 7998   3.920   1.713   9.061 -2.6734 -0.5461  1.8121
   84SAPS  H14Y 7999   3.999   1.816   9.176 -1.3028  0.0920 -0.0424
   84SAPS  C315 8000   4.004   1.897   8.969 -0.3627 -0.4281  0.1286
   84SAPS  H15X 8001   4.016   2.006   8.988 -0.7139 -0.5637  1.1923
   84SAPS  H15Y 8002   3.939   1.876   8.881 -1.5558 -3.4300  1.5748
   84SAPS  C316 8003   4.148   1.848   8.949  0.5888 -0.4604 -0.1018
   84SAPS  H16X 8004   4.146   1.742   8.916 -0.0394 -0.5884  0.3216
   84SAPS  H16Y 8005   4.206   1.857   9.044  0.2900 -1.5396  0.1981
   84SAPS  C317 8006   4.219   1.929   8.842 -1.2168  0.0780 -0.3284
   84SAPS  H17X 8007   4.321   1.887   8.832 -1.0111  0.9151 -2.2282
   84SAPS  H17Y 8008   4.235   2.034   8.871  2.1988 -0.2286 -0.7552
   84SAPS  C318 8009   4.166   1.934   8.706 -0.2727 -0.5040  0.7818
   84SAPS  H18X 8010   4.142   1.829   8.680 -3.2511 -0.0637  1.3367
   84SAPS  H18Y 8011   4.247   1.968   8.638  0.5592 -1.0027  1.5074
   84SAPS  H18Z 8012   4.087   2.012   8.716 -0.3661 -0.6353  1.0890
   85SAPS     N 8013   0.471   3.222  11.076  0.6405  0.0386  0.2007
   85SAPS   HN1 8014   0.556   3.219  11.017 -0.3137 -0.2359 -1.2284
   85SAPS   HN2 8015   0.444   3.124  11.099 -0.0454  0.6337  2.1106
   85SAPS   HN3 8016   0.388   3.267  11.031 -0.2215  1.3061  2.8273
   85SAPS   C12 8017   0.485   3.306  11.196 -0.2319  0.3601  0.6812
   85SAPS  H12A 8018   0.391   3.353  11.222 -0.6708  0.0087 -0.2407
   85SAPS   C13 8019   0.524   3.222  11.321 -0.7548  0.1812 -0.1916
   85SAPS  O13A 8020   0.545   3.098  11.307  0.3468  0.0632 -0.0414
   85SAPS  O13B 8021   0.530   3.277  11.434 -0.8774  0.4030  0.0854
   85SAPS   C11 8022   0.595   3.416  11.171  0.6734  0.3711 -0.3630
   85SAPS  H11A 8023   0.692   3.371  11.139  1.1043 -1.8172  3.4726
   85SAPS  H11B 8024   0.611   3.464  11.270  0.5600  0.3084 -0.3149
   85SAPS     P 8025   0.580   3.535  10.931  0.1352  0.3168 -0.1861
   85SAPS   O13 8026   0.483   3.640  10.884 -0.1691 -0.1145  0.1136
   85SAPS   O14 8027   0.722   3.565  10.922  0.0881 -0.4739 -0.0228
   85SAPS   O12 8028   0.541   3.509  11.082  0.2659 -0.2484  0.3488
   85SAPS   O11 8029   0.545   3.388  10.867 -0.2447  0.4277  0.2218
   85SAPS    C1 8030   0.493   3.384  10.733 -0.7558  0.1156  0.4592
   85SAPS    HA 8031   0.420   3.300  10.736 -0.9664  0.1671 -1.6579
   85SAPS    HB 8032   0.428   3.470  10.708 -0.6407  0.5916  1.7574
   85SAPS    C2 8033   0.604   3.343  10.626  0.0876 -0.0308 -0.9248
   85SAPS    HS 8034   0.656   3.255  10.669  3.1041  1.1684 -1.8307
   85SAPS   O21 8035   0.698   3.452  10.611 -0.2661  0.6279  0.6694
   85SAPS   C21 8036   0.818   3.434  10.670  0.5248  0.0311 -0.2760
   85SAPS   O22 8037   0.858   3.333  10.725 -0.1392  0.1320 -0.4011
   85SAPS   C22 8038   0.896   3.566  10.658  0.7109 -0.2169 -0.2703
   85SAPS   H2R 8039   0.827   3.643  10.617 -0.1439 -0.8444 -0.0369
   85SAPS   H2S 8040   0.913   3.594  10.764 -2.2305 -0.8778  0.4452
   85SAPS    C3 8041   0.541   3.283  10.496 -0.0265  0.9420  0.2911
   85SAPS    HX 8042   0.480   3.362  10.447 -1.0006 -0.2046 -0.3786
   85SAPS    HY 8043   0.472   3.209  10.540  0.8798  0.4622  0.9488
   85SAPS   O31 8044   0.643   3.224  10.418 -0.2148 -0.3306 -0.3642
   85SAPS   C31 8045   0.648   3.085  10.419 -0.3799 -0.6212  0.4907
   85SAPS   O32 8046   0.569   3.017  10.475 -0.5769 -0.3918  0.8595
   85SAPS   C32 8047   0.775   3.043  10.354  0.8351 -0.2696  0.7233
   85SAPS   H2X 8048   0.823   2.965  10.417  2.3499  1.0938  1.3396
   85SAPS   H2Y 8049   0.844   3.130  10.362  1.0430 -0.5331  2.1955
   85SAPS   C23 8050   1.021   3.552  10.567  0.6124  0.3761 -0.3033
   85SAPS   H3R 8051   1.093   3.483  10.616  0.2014  1.7399  2.4403
   85SAPS   H3S 8052   1.064   3.655  10.564 -0.7325  0.9966  0.7106
   85SAPS   C24 8053   0.984   3.512  10.422  0.3192  0.4802 -0.3384
   85SAPS   H4R 8054   0.927   3.417  10.432  4.4895 -2.2261  0.1570
   85SAPS   H4S 8055   1.075   3.490  10.362  0.7128  2.1497 -0.3989
   85SAPS   C25 8056   0.908   3.602  10.334 -0.2035  0.0107  0.0013
   85SAPS   H5R 8057   0.813   3.633  10.380  0.4070  0.3163  1.0949
   85SAPS   C26 8058   0.931   3.654  10.212 -0.9850  0.3903  0.1396
   85SAPS   H6R 8059   0.853   3.709  10.157 -0.1126  2.7975  1.1670
   85SAPS   C27 8060   1.047   3.613  10.122  0.8630 -0.2238 -1.0047
   85SAPS   H7R 8061   1.133   3.623  10.192  0.1258  0.4542 -0.1686
   85SAPS   H7S 8062   1.059   3.696  10.049 -0.7641  0.6125 -0.3595
   85SAPS   C28 8063   1.050   3.476  10.052 -0.0791 -0.2183  0.2681
   85SAPS   H8R 8064   1.044   3.382  10.108  1.2187 -1.0781 -0.9574
   85SAPS   C29 8065   1.090   3.460   9.923 -0.0294  0.9665  0.1783
   85SAPS   H9R 8066   1.082   3.358   9.883  0.3981  0.7028  0.7548
   85SAPS  C210 8067   1.140   3.564   9.826 -0.2682 -0.2603  1.3514
   85SAPS  H10R 8068   1.228   3.536   9.764 -0.1476 -0.0312  1.4169
   85SAPS  H10S 8069   1.184   3.646   9.887  1.2665 -0.1453  0.1656
   85SAPS  C211 8070   1.022   3.614   9.747  0.3767  0.0248 -0.2368
   85SAPS  H11R 8071   0.978   3.702   9.795  0.4448 -0.0367 -0.0625
   85SAPS  C212 8072   0.971   3.575   9.628 -0.9717 -0.4499  0.8678
   85SAPS  H12R 8073   0.883   3.625   9.584  0.6578  0.8049 -1.1499
   85SAPS  C213 8074   1.026   3.476   9.531  0.2995  0.4054  0.1294
   85SAPS  H13R 8075   0.958   3.393   9.501  4.4163 -2.4183 -2.5802
   85SAPS  H13S 8076   1.108   3.421   9.583 -0.2207  0.1271  0.6579
   85SAPS  C214 8077   1.112   3.525   9.418 -0.4945  0.0013 -0.5066
   85SAPS  H14R 8078   1.175   3.609   9.450 -1.1859 -0.1826  1.4250
   85SAPS  C215 8079   1.107   3.481   9.291  0.2351  0.8141 -0.0954
   85SAPS  H15R 8080   1.173   3.531   9.218 -1.1014  0.1039 -1.8886
   85SAPS  C216 8081   1.017   3.382   9.230  0.0571 -0.3886  0.0690
   85SAPS  H16R 8082   0.914   3.423   9.240  0.3392  0.2308  0.4760
   85SAPS  H16S 8083   1.013   3.289   9.290  3.1298 -1.4606 -1.2115
   85SAPS  C217 8084   1.053   3.341   9.087 -0.2569 -0.1073 -0.3112
   85SAPS  H17R 8085   1.147   3.282   9.095  0.8772  1.8035  1.8421
   85SAPS  H17S 8086   1.080   3.434   9.031  1.3660 -0.2230  0.2144
   85SAPS  C218 8087   0.947   3.270   9.009 -0.7730 -0.5940 -1.6677
   85SAPS  H18R 8088   0.863   3.339   8.989 -2.4543 -1.8538  0.5965
   85SAPS  H18S 8089   0.901   3.187   9.067 -0.4887  0.5632  0.3135
   85SAPS  C219 8090   0.996   3.220   8.877 -0.1394 -0.7013 -0.4295
   85SAPS  H19R 8091   1.064   3.134   8.891  1.3937  0.7307  1.5598
   85SAPS  H19S 8092   1.047   3.300   8.819 -0.9605  0.6072  0.5954
   85SAPS  C220 8093   0.871   3.177   8.798 -0.0718  0.1561  0.0771
   85SAPS  H20R 8094   0.801   3.262   8.787 -1.3793 -1.0134 -1.0043
   85SAPS  H20S 8095   0.818   3.096   8.852 -1.9576  1.3631  0.1054
   85SAPS  H20T 8096   0.902   3.152   8.694  0.3458  0.1092  0.2124
   85SAPS   C33 8097   0.741   3.011  10.202 -0.4279 -0.2035  0.6324
   85SAPS   H3X 8098   0.662   2.933  10.191 -1.0826  0.7671 -3.1664
   85SAPS   H3Y 8099   0.835   2.958  10.175 -0.1289 -0.1578  1.5441
   85SAPS   C34 8100   0.706   3.126  10.111 -0.1575  0.5429  0.2929
   85SAPS   H4X 8101   0.764   3.215  10.143  1.1173 -0.1906  0.0927
   85SAPS   H4Y 8102   0.599   3.153  10.123 -0.3048 -0.2279  0.7718
   85SAPS   C35 8103   0.742   3.087   9.967  0.0433 -0.1404 -0.1663
   85SAPS   H5X 8104   0.681   3.152   9.901  1.3260 -0.3438 -1.6015
   85SAPS   H5Y 8105   0.709   2.981   9.959  0.4789 -0.7594  3.8240
   85SAPS   C36 8106   0.889   3.096   9.944  0.2101 -0.3536  0.7684
   85SAPS   H6X 8107   0.943   3.009   9.988  2.1106 -0.0743 -0.8532
   85SAPS   H6Y 8108   0.926   3.182  10.004 -0.7038  1.0114 -0.5627
   85SAPS   C37 8109   0.933   3.125   9.798  0.0260 -0.2961  0.8945
   85SAPS   H7X 8110   1.043   3.127   9.787  0.0197  1.9584  0.6630
   85SAPS   H7Y 8111   0.899   3.225   9.761  0.1766 -0.3385  0.6433
   85SAPS   C38 8112   0.883   3.022   9.701  0.4973  0.7300  0.4492
   85SAPS   H8X 8113   0.774   3.044   9.697  0.6013  1.1293 -2.2937
   85SAPS   H8Y 8114   0.885   2.914   9.726  0.9964  0.6729  0.1791
   85SAPS   C39 8115   0.945   3.030   9.561 -0.5346 -0.6030  0.4337
   85SAPS   H9X 8116   1.055   3.038   9.578 -0.5240  0.5292 -0.1217
   85SAPS   H9Y 8117   0.919   3.126   9.512  0.2818  1.6146  3.9930
   85SAPS  C310 8118   0.893   2.926   9.463 -0.1299  0.0806  0.1609
   85SAPS  H10X 8119   0.782   2.924   9.458 -0.1663 -2.7197  0.6981
   85SAPS  H10Y 8120   0.938   2.832   9.500 -2.9624 -0.5338  2.3363
   85SAPS  C311 8121   0.940   2.960   9.330  0.1285  0.4718 -0.1742
   85SAPS  H11X 8122   1.042   3.004   9.329  0.7233 -0.8571  0.0571
   85SAPS  H11Y 8123   0.880   3.041   9.283  1.1313  1.2998 -0.0622
   85SAPS  C312 8124   0.934   2.839   9.240 -0.3846  0.1306  0.5614
   85SAPS  H12X 8125   0.832   2.796   9.241 -0.5925  0.4708 -1.2957
   85SAPS  H12Y 8126   1.013   2.770   9.274  1.6891  1.4006 -1.3825
   85SAPS  C313 8127   0.959   2.867   9.087 -0.4733  0.9008  0.0245
   85SAPS  H13X 8128   1.051   2.925   9.064 -1.6793  3.0527  0.3244
   85SAPS  H13Y 8129   0.888   2.949   9.064 -1.1236  0.6581  1.1018
   85SAPS  C314 8130   0.917   2.757   8.991  0.2936 -0.2531 -0.4592
   85SAPS  H14X 8131   0.860   2.684   9.051  0.2032  1.3911  1.5514
   85SAPS  H14Y 8132   1.013   2.710   8.958 -0.8798 -2.3446 -1.0551
   85SAPS  C315 8133   0.838   2.804   8.869 -0.0385  0.0824  0.6132
   85SAPS  H15X 8134   0.888   2.888   8.816  0.1284 -1.7520 -2.4102
   85SAPS  H15Y 8135   0.741   2.846   8.903 -0.4200  2.9285 -3.2957
   85SAPS  C316 8136   0.816   2.692   8.759  0.4055 -0.2512 -0.8739
   85SAPS  H16X 8137   0.903   2.646   8.708 -0.7797  0.1853 -3.4552
   85SAPS  H16Y 8138   0.759   2.753   8.687  1.9073  2.7067  0.2936
   85SAPS  C317 8139   0.736   2.571   8.805  0.0642  0.0619  0.4154
   85SAPS  H17X 8140   0.649   2.607   8.865  0.0443  0.4692  0.1470
   85SAPS  H17Y 8141   0.796   2.504   8.870  0.2114 -0.3106 -0.1048
   85SAPS  C318 8142   0.678   2.487   8.686 -0.2460  0.3005 -0.1807
   85SAPS  H18X 8143   0.590   2.423   8.712  0.2102 -0.6370 -0.9052
   85SAPS  H18Y 8144   0.761   2.427   8.643  0.2094  1.3991 -0.8645
   85SAPS  H18Z 8145   0.631   2.550   8.608 -2.5403 -1.7458 -0.5819
   86SAPS     N 8146   2.105   4.386  11.162  0.2115  0.5297  0.0240
   86SAPS   HN1 8147   2.124   4.368  11.263 -3.0508 -1.1390  0.4805
   86SAPS   HN2 8148   2.045   4.468  11.140 -2.3217 -1.7856 -2.5727
   86SAPS   HN3 8149   2.055   4.305  11.120  0.3542  0.3626  0.1792
   86SAPS   C12 8150   2.240   4.428  11.102  0.5104  0.4549 -0.4430
   86SAPS  H12A 8151   2.269   4.520  11.151  1.7262 -1.3759  2.5494
   86SAPS   C13 8152   2.354   4.334  11.123  0.0018  0.0928  0.5553
   86SAPS  O13A 8153   2.339   4.216  11.173  0.0241 -0.3620  0.2168
   86SAPS  O13B 8154   2.466   4.349  11.061  0.2254 -0.5166 -0.4748
   86SAPS   C11 8155   2.209   4.466  10.955 -0.1729 -0.1447  0.4807
   86SAPS  H11A 8156   2.185   4.373  10.898 -2.8398  0.2746  0.7822
   86SAPS  H11B 8157   2.307   4.506  10.922 -1.0194  0.2775 -1.6895
   86SAPS     P 8158   2.089   4.660  10.837  0.4864  0.2150 -0.6691
   86SAPS   O13 8159   1.945   4.704  10.828  0.0440  0.0776  0.3563
   86SAPS   O14 8160   2.195   4.753  10.881 -0.6152  0.1045 -0.0559
   86SAPS   O12 8161   2.093   4.546  10.936  0.2406 -0.1817  0.4584
   86SAPS   O11 8162   2.131   4.593  10.700 -0.1987 -0.5220 -0.0785
   86SAPS    C1 8163   2.067   4.475  10.657  0.7171  0.0693 -0.1384
   86SAPS    HA 8164   2.138   4.390  10.648 -0.9357 -1.3025 -1.0438
   86SAPS    HB 8165   1.984   4.431  10.716  0.7578  0.4665  0.2134
   86SAPS    C2 8166   2.005   4.496  10.514 -0.6582 -0.5815 -0.3862
   86SAPS    HS 8167   1.960   4.400  10.484 -2.1263  0.4595 -1.6747
   86SAPS   O21 8168   2.096   4.542  10.415 -0.0200  0.4514 -0.0167
   86SAPS   C21 8169   2.194   4.461  10.387 -1.2415 -0.2471 -0.1701
   86SAPS   O22 8170   2.218   4.352  10.433 -0.7074 -0.3949 -0.1962
   86SAPS   C22 8171   2.285   4.540  10.290 -0.1035  0.8694  0.4664
   86SAPS   H2R 8172   2.228   4.612  10.228 -0.2496  0.6295  0.3195
   86SAPS   H2S 8173   2.360   4.595  10.350 -1.0797  0.4729  2.1399
   86SAPS    C3 8174   1.878   4.594  10.519  0.1397 -0.4695 -0.2134
   86SAPS    HX 8175   1.926   4.692  10.536  0.6368 -1.0060  1.7145
   86SAPS    HY 8176   1.820   4.578  10.613  0.3478 -1.1538 -0.1925
   86SAPS   O31 8177   1.806   4.575  10.394  0.5241 -0.4847 -0.2679
   86SAPS   C31 8178   1.705   4.487  10.410 -1.0059  0.7504 -0.3220
   86SAPS   O32 8179   1.685   4.416  10.510 -0.0242 -0.5155 -0.5821
   86SAPS   C32 8180   1.610   4.502  10.300 -0.4307 -0.2776  0.1148
   86SAPS   H2X 8181   1.529   4.574  10.324  1.9972  2.2270  1.2301
   86SAPS   H2Y 8182   1.568   4.399  10.290 -1.7410  0.2370  0.1485
   86SAPS   C23 8183   2.357   4.441  10.195 -1.4601  0.0536  0.2831
   86SAPS   H3R 8184   2.296   4.354  10.162  0.4446 -0.2171 -2.9812
   86SAPS   H3S 8185   2.453   4.402  10.234 -1.3611 -0.1122 -0.1213
   86SAPS   C24 8186   2.392   4.499  10.053  0.1137  0.0258 -0.1209
   86SAPS   H4R 8187   2.466   4.426  10.013 -0.1136  0.1878 -0.8504
   86SAPS   H4S 8188   2.448   4.593  10.065 -0.2723  0.4373 -1.3757
   86SAPS   C25 8189   2.270   4.519   9.960  0.4495 -0.2779  0.3354
   86SAPS   H5R 8190   2.200   4.598   9.992 -0.4662 -0.6755 -0.6299
   86SAPS   C26 8191   2.231   4.457   9.848  0.0348  0.3530  0.3931
   86SAPS   H6R 8192   2.138   4.493   9.801  1.7273  2.4219 -1.5738
   86SAPS   C27 8193   2.311   4.339   9.799  0.0128 -0.7511 -0.0657
   86SAPS   H7R 8194   2.244   4.271   9.744 -1.0532 -0.7005  1.1093
   86SAPS   H7S 8195   2.344   4.272   9.881  2.3310  1.7061  1.1932
   86SAPS   C28 8196   2.433   4.394   9.720  0.4300  0.2194  0.5170
   86SAPS   H8R 8197   2.498   4.460   9.780 -0.4117 -1.4300  3.4700
   86SAPS   C29 8198   2.455   4.384   9.587  0.3390 -0.2382  0.6410
   86SAPS   H9R 8199   2.553   4.412   9.547  0.5659 -1.6171  0.1916
   86SAPS  C210 8200   2.363   4.314   9.487 -1.1288  0.7159 -0.0413
   86SAPS  H10R 8201   2.299   4.234   9.531  0.2703 -0.0088  0.7253
   86SAPS  H10S 8202   2.424   4.266   9.408  0.5957 -0.1937  1.7687
   86SAPS  C211 8203   2.260   4.410   9.429  0.4357  0.2270 -0.4732
   86SAPS  H11R 8204   2.204   4.461   9.509 -0.6225 -2.2645  0.4763
   86SAPS  C212 8205   2.246   4.453   9.297 -0.6584 -0.4070 -0.0003
   86SAPS  H12R 8206   2.166   4.526   9.275  0.7171  1.1953  0.1395
   86SAPS  C213 8207   2.326   4.407   9.178 -0.2962 -0.5406 -0.5900
   86SAPS  H13R 8208   2.418   4.348   9.203  0.6835  1.0037 -0.4376
   86SAPS  H13S 8209   2.377   4.500   9.146 -0.1672 -0.9966 -1.7435
   86SAPS  C214 8210   2.234   4.359   9.070 -0.8637  0.1276  0.1901
   86SAPS  H14R 8211   2.213   4.251   9.069 -0.9008  0.1305 -1.2760
   86SAPS  C215 8212   2.174   4.434   8.975  0.5948 -0.0822 -0.6080
   86SAPS  H15R 8213   2.100   4.383   8.911  0.6138 -0.7021 -0.1531
   86SAPS  C216 8214   2.174   4.582   8.950 -0.1813  0.1255  0.2226
   86SAPS  H16R 8215   2.228   4.626   9.037  2.3810 -1.9727 -0.1726
   86SAPS  H16S 8216   2.070   4.623   8.948 -0.1693  0.1538  0.1795
   86SAPS  C217 8217   2.243   4.640   8.829 -0.3501  0.4505  0.0378
   86SAPS  H17R 8218   2.351   4.617   8.839 -0.1508  0.2556 -2.0263
   86SAPS  H17S 8219   2.232   4.748   8.851 -2.0344  0.8489 -2.3426
   86SAPS  C218 8220   2.187   4.593   8.699  0.8696 -0.1251  0.0451
   86SAPS  H18R 8221   2.079   4.617   8.699  0.5453 -1.5073  0.4703
   86SAPS  H18S 8222   2.194   4.482   8.695 -1.4715 -0.5141  3.1488
   86SAPS  C219 8223   2.238   4.668   8.585 -0.5160 -0.7928 -0.3790
   86SAPS  H19R 8224   2.348   4.668   8.572 -0.5673  0.9097 -1.1383
   86SAPS  H19S 8225   2.222   4.774   8.612  0.5409 -1.1038  1.6274
   86SAPS  C220 8226   2.184   4.628   8.442 -0.3129 -0.6447 -0.0766
   86SAPS  H20R 8227   2.077   4.656   8.432 -0.3420 -0.4140  0.7888
   86SAPS  H20S 8228   2.192   4.519   8.424  1.9794 -0.6124  0.3976
   86SAPS  H20T 8229   2.241   4.683   8.363  2.6402 -2.6340  0.5125
   86SAPS   C33 8230   1.672   4.531  10.160 -0.0421  0.3283 -0.0076
   86SAPS   H3X 8231   1.757   4.461  10.141 -2.3332 -1.9093 -2.9479
   86SAPS   H3Y 8232   1.711   4.635  10.152  0.4226  0.1112 -0.7234
   86SAPS   C34 8233   1.566   4.533  10.053  0.2695 -0.4219  0.0777
   86SAPS   H4X 8234   1.499   4.610  10.097  1.2156 -0.9375  2.6092
   86SAPS   H4Y 8235   1.512   4.436  10.043 -0.7593  0.3019 -1.9195
   86SAPS   C35 8236   1.628   4.574   9.918  0.2037  0.3392 -0.1502
   86SAPS   H5X 8237   1.691   4.489   9.884 -1.9682 -0.2036 -3.3098
   86SAPS   H5Y 8238   1.687   4.665   9.942 -3.2329  1.9378  3.2655
   86SAPS   C36 8239   1.524   4.588   9.809  0.1502 -0.0406  0.4728
   86SAPS   H6X 8240   1.460   4.678   9.820  1.1367  0.8112 -0.6444
   86SAPS   H6Y 8241   1.461   4.496   9.808 -1.1127  0.7273  2.5686
   86SAPS   C37 8242   1.575   4.591   9.664  0.0758  0.1313 -0.8283
   86SAPS   H7X 8243   1.630   4.497   9.640 -0.4411 -0.1910 -0.7774
   86SAPS   H7Y 8244   1.642   4.678   9.645  1.7693 -0.7754  0.5915
   86SAPS   C38 8245   1.454   4.600   9.566 -0.6168 -0.1039  0.9347
   86SAPS   H8X 8246   1.394   4.694   9.576  0.2374  0.3925  1.5411
   86SAPS   H8Y 8247   1.382   4.520   9.592  0.7703 -1.0296  2.1333
   86SAPS   C39 8248   1.503   4.596   9.420 -0.1364 -0.5881  0.5948
   86SAPS   H9X 8249   1.560   4.503   9.398 -0.0265  0.1228 -2.4967
   86SAPS   H9Y 8250   1.571   4.682   9.401 -1.0991 -0.4988 -3.1371
   86SAPS  C310 8251   1.385   4.597   9.314 -0.1184  0.2556 -0.5097
   86SAPS  H10X 8252   1.317   4.680   9.344 -1.9892 -0.7790 -1.6863
   86SAPS  H10Y 8253   1.321   4.507   9.323  1.5238 -0.7848  1.4673
   86SAPS  C311 8254   1.445   4.626   9.163  0.3815  1.1223 -0.3525
   86SAPS  H11X 8255   1.356   4.606   9.100 -1.3019  2.9685  1.3156
   86SAPS  H11Y 8256   1.526   4.552   9.150 -0.8835 -0.5873  0.9792
   86SAPS  C312 8257   1.499   4.764   9.136 -0.4560 -0.2065  0.5969
   86SAPS  H12X 8258   1.561   4.790   9.224 -3.2689 -1.1293  3.0243
   86SAPS  H12Y 8259   1.408   4.827   9.136 -0.2486  0.0978  1.2937
   86SAPS  C313 8260   1.588   4.766   9.002  0.3368 -0.0757 -0.3217
   86SAPS  H13X 8261   1.538   4.701   8.927  1.8648  0.8511 -2.2201
   86SAPS  H13Y 8262   1.689   4.723   9.013  0.2215  0.3141  3.4593
   86SAPS  C314 8263   1.608   4.908   8.942  0.6767 -0.3363 -0.9436
   86SAPS  H14X 8264   1.689   4.952   9.003 -0.2545  1.6005 -1.0389
   86SAPS  H14Y 8265   1.510   4.960   8.949  0.6118 -0.6656  1.1087
   86SAPS  C315 8266   1.644   4.909   8.795  0.0645 -0.0272  1.0198
   86SAPS  H15X 8267   1.625   5.010   8.752 -0.4669 -0.3648  0.4341
   86SAPS  H15Y 8268   1.585   4.829   8.745  0.2075  0.3180  0.2838
   86SAPS  C316 8269   1.793   4.872   8.767  0.1339  0.1565  0.4067
   86SAPS  H16X 8270   1.811   4.775   8.817  0.0384 -1.5123 -2.5860
   86SAPS  H16Y 8271   1.828   4.956   8.831 -0.3766 -0.7748  1.9375
   86SAPS  C317 8272   1.854   4.871   8.627 -0.6317  0.2587 -0.4483
   86SAPS  H17X 8273   1.786   4.836   8.546  0.3782  0.3364 -1.3529
   86SAPS  H17Y 8274   1.949   4.816   8.611 -1.4486 -1.5350  0.5470
   86SAPS  C318 8275   1.883   5.010   8.575  0.3345  0.0060  0.6290
   86SAPS  H18X 8276   1.916   5.005   8.469 -0.5772 -1.1781  0.3907
   86SAPS  H18Y 8277   1.950   5.074   8.637 -0.4358  0.8660  0.5916
   86SAPS  H18Z 8278   1.784   5.059   8.563 -0.0659 -0.8709  0.2641
   87SAPS     N 8279   2.627   4.483  11.231  0.2288  0.9149  0.0876
   87SAPS   HN1 8280   2.553   4.474  11.159  0.3858  0.9024 -0.0725
   87SAPS   HN2 8281   2.707   4.432  11.190 -0.1194 -1.7750  2.4396
   87SAPS   HN3 8282   2.597   4.428  11.314 -0.2607 -1.2422 -1.4444
   87SAPS   C12 8283   2.635   4.632  11.256  0.3158  0.5878 -0.2105
   87SAPS  H12A 8284   2.535   4.674  11.252 -0.3442 -0.7575  0.9389
   87SAPS   C13 8285   2.699   4.655  11.395 -0.5049  0.2417  1.0582
   87SAPS  O13A 8286   2.763   4.562  11.454  0.5542 -0.3847 -0.1168
   87SAPS  O13B 8287   2.704   4.773  11.435 -0.1465  0.3374  0.6253
   87SAPS   C11 8288   2.713   4.690  11.146  0.0800  0.4796 -0.5085
   87SAPS  H11A 8289   2.816   4.649  11.153  0.1416  0.7129 -0.0004
   87SAPS  H11B 8290   2.728   4.799  11.161  2.2117 -0.0992  2.4153
   87SAPS     P 8291   2.729   4.664  10.895  0.0679 -0.2628  0.2494
   87SAPS   O13 8292   2.778   4.805  10.889 -0.1660  0.2932  0.1740
   87SAPS   O14 8293   2.831   4.557  10.908 -0.0281  0.1606  0.0212
   87SAPS   O12 8294   2.646   4.658  11.027  0.2246 -0.9123 -0.2299
   87SAPS   O11 8295   2.623   4.627  10.780 -0.3300 -0.7428 -0.2511
   87SAPS    C1 8296   2.515   4.723  10.760  0.2878  0.4015  0.2971
   87SAPS    HA 8297   2.418   4.670  10.772  0.6364 -0.1025  0.9784
   87SAPS    HB 8298   2.511   4.809  10.830 -1.9442  0.1528  0.5364
   87SAPS    C2 8299   2.522   4.767  10.611  1.2350 -0.2091  0.5044
   87SAPS    HS 8300   2.564   4.870  10.604  3.6839 -1.1850 -0.1194
   87SAPS   O21 8301   2.390   4.764  10.543 -0.1667 -0.3410 -0.0613
   87SAPS   C21 8302   2.324   4.889  10.566  0.0076  0.5798  0.0058
   87SAPS   O22 8303   2.366   4.968  10.646 -0.0227  0.1263  0.0899
   87SAPS   C22 8304   2.182   4.894  10.503 -0.1814 -0.3133 -0.4581
   87SAPS   H2R 8305   2.146   4.790  10.484  0.1108 -0.6184  0.5821
   87SAPS   H2S 8306   2.110   4.930  10.580 -1.0657  1.5164 -2.0489
   87SAPS    C3 8307   2.613   4.675  10.522  0.3572 -0.2460 -0.1486
   87SAPS    HX 8308   2.578   4.569  10.527 -1.8887  0.3884 -1.2858
   87SAPS    HY 8309   2.714   4.672  10.569 -0.0548 -2.1838  0.7183
   87SAPS   O31 8310   2.611   4.727  10.393 -0.3072  0.4306  0.4088
   87SAPS   C31 8311   2.704   4.817  10.358 -0.4234  0.3094  0.0449
   87SAPS   O32 8312   2.788   4.862  10.430 -0.5458 -0.2590 -0.2741
   87SAPS   C32 8313   2.675   4.863  10.217 -0.3165  0.4059  0.2231
   87SAPS   H2X 8314   2.686   4.973  10.204  0.0681  0.3903  0.3867
   87SAPS   H2Y 8315   2.570   4.843  10.187 -0.0237  2.2326 -2.4542
   87SAPS   C23 8316   2.178   4.994  10.388  0.2020  0.2320  0.1105
   87SAPS   H3R 8317   2.258   4.972  10.315  0.0895  1.8062 -0.5399
   87SAPS   H3S 8318   2.187   5.101  10.418  0.9393  0.5564 -1.1664
   87SAPS   C24 8319   2.036   4.983  10.317 -0.0974  0.3350  0.3064
   87SAPS   H4R 8320   2.029   5.055  10.233  0.6642  0.5618  0.4358
   87SAPS   H4S 8321   1.963   5.007  10.397 -2.0806 -2.5100 -0.4854
   87SAPS   C25 8322   2.004   4.853  10.244 -0.7677  0.4308  0.0642
   87SAPS   H5R 8323   1.954   4.782  10.312  0.1091 -0.5069 -0.2432
   87SAPS   C26 8324   2.053   4.812  10.128 -0.2312 -0.3768 -0.2372
   87SAPS   H6R 8325   2.021   4.719  10.077 -0.8308  0.1847 -0.9089
   87SAPS   C27 8326   2.131   4.910  10.037  0.6164  0.4883  0.4357
   87SAPS   H7R 8327   2.125   5.015  10.072  0.8097  0.2055  1.3434
   87SAPS   H7S 8328   2.082   4.914   9.937 -2.1167  0.2334  1.6739
   87SAPS   C28 8329   2.275   4.872  10.031  0.2979  0.5181 -0.4660
   87SAPS   H8R 8330   2.310   4.858  10.134 -4.2063  0.1721  1.2236
   87SAPS   C29 8331   2.348   4.855   9.918 -0.5340 -0.2100 -0.2578
   87SAPS   H9R 8332   2.454   4.828   9.928 -0.5527 -0.7219 -1.2325
   87SAPS  C210 8333   2.313   4.882   9.776  0.2923  0.2715 -0.1366
   87SAPS  H10R 8334   2.361   4.978   9.745 -0.5764  1.0431  0.8438
   87SAPS  H10S 8335   2.204   4.902   9.765  0.1617  1.2454  2.2618
   87SAPS  C211 8336   2.353   4.763   9.686 -0.4644  0.1079  0.0013
   87SAPS  H11R 8337   2.347   4.662   9.729  4.9478 -0.0923  0.9934
   87SAPS  C212 8338   2.406   4.779   9.566 -0.4201  0.0767  0.1680
   87SAPS  H12R 8339   2.427   4.686   9.512 -0.8751  0.0389  0.0481
   87SAPS  C213 8340   2.429   4.916   9.497  0.0762 -0.3947 -0.5530
   87SAPS  H13R 8341   2.505   4.980   9.547 -0.5200  0.5229 -0.8054
   87SAPS  H13S 8342   2.334   4.973   9.504 -0.1731 -0.9179  0.8313
   87SAPS  C214 8343   2.459   4.897   9.348 -0.9553 -0.2958  0.8687
   87SAPS  H14R 8344   2.561   4.857   9.342 -0.3198  1.0865  1.7132
   87SAPS  C215 8345   2.390   4.943   9.245 -0.1694 -0.6519  0.2758
   87SAPS  H15R 8346   2.427   4.921   9.143  3.5765 -0.6332  1.4741
   87SAPS  C216 8347   2.262   5.020   9.254  0.0514 -0.9323  0.1020
   87SAPS  H16R 8348   2.267   5.101   9.178 -1.8102 -2.5321 -1.8274
   87SAPS  H16S 8349   2.265   5.069   9.354  0.5068 -0.4697 -0.1325
   87SAPS  C217 8350   2.138   4.925   9.227  0.0869 -0.8071  0.7190
   87SAPS  H17R 8351   2.144   4.889   9.122 -2.1868  1.6065 -0.3495
   87SAPS  H17S 8352   2.043   4.983   9.229 -1.5277 -3.1754 -1.2613
   87SAPS  C218 8353   2.113   4.817   9.325  0.2201  0.2856  0.0020
   87SAPS  H18R 8354   2.145   4.851   9.426 -0.2607  1.2683 -0.1716
   87SAPS  H18S 8355   2.176   4.729   9.299  0.1404 -0.2261  1.4643
   87SAPS  C219 8356   1.960   4.787   9.335  0.0519  0.0107  0.1006
   87SAPS  H19R 8357   1.930   4.720   9.252  1.7264 -3.8456  2.3250
   87SAPS  H19S 8358   1.893   4.876   9.333  0.4537  0.3320 -2.9706
   87SAPS  C220 8359   1.925   4.694   9.461 -0.4489  0.2674 -0.3318
   87SAPS  H20R 8360   1.828   4.644   9.439 -2.7190  2.6567  3.1986
   87SAPS  H20S 8361   1.930   4.751   9.556 -0.8959  1.5723 -1.0715
   87SAPS  H20T 8362   2.002   4.615   9.469 -0.6510  0.1033  0.0539
   87SAPS   C33 8363   2.769   4.787  10.118  0.2414 -1.3684 -0.2201
   87SAPS   H3X 8364   2.741   4.679  10.123  0.2075 -1.3269  0.5873
   87SAPS   H3Y 8365   2.873   4.806  10.153  0.4529  0.1497 -1.5374
   87SAPS   C34 8366   2.771   4.846   9.975  0.4532 -0.4822  0.0288
   87SAPS   H4X 8367   2.848   4.927   9.974  0.1142 -0.1566  0.2889
   87SAPS   H4Y 8368   2.674   4.893   9.949  0.7105  1.0892  1.7055
   87SAPS   C35 8369   2.815   4.744   9.864  0.2889  0.4491  0.6921
   87SAPS   H5X 8370   2.737   4.666   9.852 -0.4369  1.4799 -2.2594
   87SAPS   H5Y 8371   2.914   4.699   9.886  0.9470  1.5853  0.1285
   87SAPS   C36 8372   2.814   4.816   9.724 -0.4818  0.3343 -0.2601
   87SAPS   H6X 8373   2.724   4.881   9.718 -0.3484  0.3617 -3.7804
   87SAPS   H6Y 8374   2.811   4.736   9.647  0.2107 -1.8401  1.8260
   87SAPS   C37 8375   2.925   4.916   9.696  0.6084 -0.1229  0.6721
   87SAPS   H7X 8376   3.016   4.857   9.672  0.1065  0.2517 -2.6574
   87SAPS   H7Y 8377   2.940   4.983   9.783  1.2034  0.8723 -0.1644
   87SAPS   C38 8378   2.900   4.996   9.568 -0.0301 -0.6322 -0.3338
   87SAPS   H8X 8379   2.917   5.100   9.602  0.1272 -0.0503 -2.0996
   87SAPS   H8Y 8380   2.794   4.991   9.535 -0.1359  0.0982 -0.1160
   87SAPS   C39 8381   3.000   4.962   9.452 -0.2064 -0.5386 -0.1863
   87SAPS   H9X 8382   3.013   4.851   9.455  0.7671 -0.4254  1.3817
   87SAPS   H9Y 8383   3.099   5.012   9.459 -1.0509  1.2912 -0.9651
   87SAPS  C310 8384   2.936   5.016   9.322  0.0494 -0.5851  0.0295
   87SAPS  H10X 8385   2.886   5.114   9.330  0.6737  0.0496 -2.7597
   87SAPS  H10Y 8386   2.851   4.952   9.290 -0.6841  0.7037 -0.6708
   87SAPS  C311 8387   3.038   5.034   9.204 -0.2890 -0.0650 -0.4772
   87SAPS  H11X 8388   3.067   4.929   9.185 -1.0930 -0.3527 -0.1784
   87SAPS  H11Y 8389   3.123   5.092   9.246 -3.1405  3.1957  1.3387
   87SAPS  C312 8390   2.975   5.095   9.080  0.9836 -0.2546 -0.2688
   87SAPS  H12X 8391   2.910   5.181   9.106 -0.8717 -1.8550  0.6362
   87SAPS  H12Y 8392   2.908   5.019   9.034  0.1930 -0.4361  1.1515
   87SAPS  C313 8393   3.074   5.136   8.964  0.4680  0.0349  0.2847
   87SAPS  H13X 8394   3.131   5.048   8.927 -0.6597 -0.7873  0.4256
   87SAPS  H13Y 8395   3.147   5.205   9.013  0.9258 -0.7301  0.7066
   87SAPS  C314 8396   3.004   5.222   8.856 -0.7613 -0.2959 -0.3922
   87SAPS  H14X 8397   3.078   5.248   8.777  0.8030 -1.8385  0.4907
   87SAPS  H14Y 8398   2.966   5.316   8.900  0.7998  1.3029 -2.2801
   87SAPS  C315 8399   2.886   5.153   8.777  0.0204  0.4264  0.2582
   87SAPS  H15X 8400   2.813   5.121   8.854 -0.3285 -2.7088 -1.2480
   87SAPS  H15Y 8401   2.933   5.064   8.731 -0.0541  1.4319 -1.8556
   87SAPS  C316 8402   2.820   5.240   8.674 -1.0126  0.2401  0.0536
   87SAPS  H16X 8403   2.794   5.333   8.730 -0.4769  0.2534  0.2850
   87SAPS  H16Y 8404   2.735   5.182   8.633 -1.4748  0.7811  0.2377
   87SAPS  C317 8405   2.903   5.303   8.565  0.1006  0.3100 -0.2391
   87SAPS  H17X 8406   3.007   5.325   8.598  0.1024  0.5005 -0.3755
   87SAPS  H17Y 8407   2.848   5.393   8.530 -0.0979  0.6172  0.8212
   87SAPS  C318 8408   2.909   5.198   8.448  0.0795 -0.0401 -0.4976
   87SAPS  H18X 8409   2.816   5.153   8.408  0.1092  0.2076 -0.8548
   87SAPS  H18Y 8410   2.986   5.124   8.476  0.1550  0.3813  0.4698
   87SAPS  H18Z 8411   2.946   5.254   8.359 -3.7956  0.1134 -2.2424
   88SAPS     N 8412   4.614   4.241  10.898 -0.1996  0.4810  0.2284
   88SAPS   HN1 8413   4.537   4.174  10.913  0.7010 -0.0827  2.7038
   88SAPS   HN2 8414   4.703   4.205  10.857  0.2393  0.2496  1.3694
   88SAPS   HN3 8415   4.649   4.264  10.993  1.3338  0.2213 -0.2436
   88SAPS   C12 8416   4.562   4.373  10.847  0.3604 -0.8868  0.2236
   88SAPS  H12A 8417   4.500   4.355  10.760 -1.0043  1.3872  0.6548
   88SAPS   C13 8418   4.468   4.460  10.940 -0.2929  0.2201 -0.8248
   88SAPS  O13A 8419   4.458   4.439  11.066  0.3927  0.1320  0.1904
   88SAPS  O13B 8420   4.409   4.558  10.894  0.3642  0.3996  0.5794
   88SAPS   C11 8421   4.690   4.453  10.801 -0.2920 -0.0588 -0.1155
   88SAPS  H11A 8422   4.753   4.451  10.893 -1.3970  0.6487  0.6898
   88SAPS  H11B 8423   4.658   4.554  10.767 -1.0607  0.2386  1.4329
   88SAPS     P 8424   4.898   4.329  10.706 -0.2033  0.0195 -0.3924
   88SAPS   O13 8425   4.998   4.429  10.741  0.0091  0.5342 -0.1360
   88SAPS   O14 8426   4.889   4.217  10.805  0.1564 -0.4872 -0.3894
   88SAPS   O12 8427   4.755   4.395  10.694  0.0874  0.0282 -0.0155
   88SAPS   O11 8428   4.920   4.268  10.567 -0.3574 -0.2769  0.5895
   88SAPS    C1 8429   4.841   4.151  10.530  0.1564  0.2568 -0.1036
   88SAPS    HA 8430   4.904   4.060  10.523 -2.7756 -2.1480  1.8522
   88SAPS    HB 8431   4.762   4.129  10.604  0.4321 -0.4086 -0.0037
   88SAPS    C2 8432   4.769   4.169  10.396  0.0954 -0.2014  0.3497
   88SAPS    HS 8433   4.706   4.082  10.366  2.5744 -1.1002 -2.8385
   88SAPS   O21 8434   4.864   4.168  10.288 -0.4207  0.2950  0.5011
   88SAPS   C21 8435   4.929   4.063  10.254  0.1849  0.7865 -0.4148
   88SAPS   O22 8436   4.914   3.951  10.305  0.0677 -0.2096  0.1710
   88SAPS   C22 8437   5.031   4.090  10.139 -0.0638  0.7994 -0.4319
   88SAPS   H2R 8438   5.079   4.186  10.164 -1.4963  1.4462 -0.0497
   88SAPS   H2S 8439   5.105   4.009  10.154 -1.1164  0.0548  1.0420
   88SAPS    C3 8440   4.689   4.296  10.383 -0.2776  0.3019 -0.6799
   88SAPS    HX 8441   4.755   4.384  10.399  2.1640 -0.6775 -4.1098
   88SAPS    HY 8442   4.611   4.300  10.462 -0.2828  0.9645 -0.7095
   88SAPS   O31 8443   4.637   4.309  10.249 -0.3889 -0.4099  0.1595
   88SAPS   C31 8444   4.522   4.254  10.227 -0.3956  0.2208  0.3095
   88SAPS   O32 8445   4.455   4.197  10.306  0.5445  0.1341 -0.1876
   88SAPS   C32 8446   4.493   4.268  10.080  0.4006 -0.1572 -0.2587
   88SAPS   H2X 8447   4.569   4.204  10.029  1.0750 -1.5156  2.2590
   88SAPS   H2Y 8448   4.507   4.376  10.063 -1.8642  0.0787 -0.9434
   88SAPS   C23 8449   4.969   4.078  10.000 -0.2705 -0.2386  0.5134
   88SAPS   H3R 8450   4.878   4.140   9.980  0.9655  2.0830  1.6775
   88SAPS   H3S 8451   4.940   3.971   9.994  1.1780 -0.5604 -1.6841
   88SAPS   C24 8452   5.078   4.108   9.899 -0.2413  0.6722  0.9903
   88SAPS   H4R 8453   5.166   4.041   9.913  1.9954  3.1181 -0.4788
   88SAPS   H4S 8454   5.122   4.207   9.924  0.1734  0.6196  0.4886
   88SAPS   C25 8455   5.031   4.103   9.748 -0.0045 -0.8066 -0.0658
   88SAPS   H5R 8456   4.929   4.138   9.727  1.2270  2.3159 -1.5711
   88SAPS   C26 8457   5.103   4.056   9.641 -0.5662  0.1420 -0.7323
   88SAPS   H6R 8458   5.059   4.062   9.541 -2.4160 -0.3699  0.0148
   88SAPS   C27 8459   5.238   3.992   9.656 -0.3888  0.3937 -0.2059
   88SAPS   H7R 8460   5.250   3.894   9.605  1.1384 -0.0070  0.8564
   88SAPS   H7S 8461   5.260   3.964   9.761 -0.4402  0.2038 -0.2461
   88SAPS   C28 8462   5.348   4.091   9.605  0.2856 -0.3180 -0.0518
   88SAPS   H8R 8463   5.400   4.137   9.691 -0.0528 -0.4099  0.2024
   88SAPS   C29 8464   5.368   4.118   9.472  0.0175 -0.1305 -0.2452
   88SAPS   H9R 8465   5.442   4.198   9.455  0.5673  0.1169  2.6676
   88SAPS  C210 8466   5.297   4.061   9.354 -0.1483 -0.1808  0.0617
   88SAPS  H10R 8467   5.208   4.000   9.381  0.5163 -2.2427 -2.0687
   88SAPS  H10S 8468   5.359   3.995   9.290  0.1952  1.0819 -0.9494
   88SAPS  C211 8469   5.243   4.176   9.275 -0.0957  0.2428 -0.2926
   88SAPS  H11R 8470   5.215   4.267   9.330 -0.0543 -0.0332  0.1889
   88SAPS  C212 8471   5.237   4.185   9.140 -0.5047  0.3445 -0.3478
   88SAPS  H12R 8472   5.200   4.280   9.099 -0.2465  0.6446  0.1045
   88SAPS  C213 8473   5.269   4.084   9.035  0.2913 -0.5546 -0.2562
   88SAPS  H13R 8474   5.224   4.119   8.939 -1.1918  1.2291  1.0178
   88SAPS  H13S 8475   5.222   3.986   9.057 -1.9424  0.5561  0.2634
   88SAPS  C214 8476   5.417   4.068   9.005 -0.1884  0.2568  0.1718
   88SAPS  H14R 8477   5.476   4.031   9.090  1.1950  1.7709 -0.0840
   88SAPS  C215 8478   5.491   4.091   8.894  0.2027 -0.1936 -0.0510
   88SAPS  H15R 8479   5.600   4.079   8.890  0.9640  3.4846  3.1553
   88SAPS  C216 8480   5.420   4.151   8.770  0.1136 -0.3076 -0.1934
   88SAPS  H16R 8481   5.338   4.219   8.802 -0.0944  0.4419 -2.1894
   88SAPS  H16S 8482   5.366   4.069   8.718 -0.7023  0.3719 -0.4223
   88SAPS  C217 8483   5.503   4.222   8.660  0.4860  0.0376  0.4732
   88SAPS  H17R 8484   5.420   4.251   8.592 -0.1818  0.9481  1.6417
   88SAPS  H17S 8485   5.570   4.142   8.622 -1.6470 -1.3107 -0.6733
   88SAPS  C218 8486   5.581   4.344   8.711  0.3322 -0.6833  0.8733
   88SAPS  H18R 8487   5.651   4.297   8.784 -2.6923 -3.4912  2.2821
   88SAPS  H18S 8488   5.522   4.411   8.777  2.6159  0.8486  1.4628
   88SAPS  C219 8489   5.649   4.414   8.596 -0.5105 -0.0379 -0.5602
   88SAPS  H19R 8490   5.574   4.475   8.540 -0.7145  1.9387  1.7395
   88SAPS  H19S 8491   5.699   4.331   8.542  2.1093 -0.4886  2.3173
   88SAPS  C220 8492   5.755   4.515   8.646  0.4663  0.2455 -0.5423
   88SAPS  H20R 8493   5.820   4.447   8.705 -2.1118 -0.8535  1.2113
   88SAPS  H20S 8494   5.693   4.584   8.707  0.0844 -0.2291 -0.3863
   88SAPS  H20T 8495   5.818   4.573   8.575  1.5925 -0.6455 -0.2799
   88SAPS   C33 8496   4.354   4.227  10.028 -0.3377 -0.1451 -0.3528
   88SAPS   H3X 8497   4.287   4.311  10.059  1.5789  1.0604  0.7543
   88SAPS   H3Y 8498   4.303   4.140  10.075 -0.1734  0.3164  0.7150
   88SAPS   C34 8499   4.347   4.214   9.875 -0.1593  0.1517  0.4310
   88SAPS   H4X 8500   4.249   4.176   9.839 -0.0441  0.6773 -0.4626
   88SAPS   H4Y 8501   4.426   4.142   9.843 -0.0846 -0.0428  1.0273
   88SAPS   C35 8502   4.380   4.351   9.809 -0.5400  0.0770  0.3690
   88SAPS   H5X 8503   4.488   4.372   9.824 -0.5024  0.8520 -0.8439
   88SAPS   H5Y 8504   4.312   4.432   9.843  0.4206  0.7176  0.8169
   88SAPS   C36 8505   4.372   4.346   9.658  0.2436  0.1116  0.4128
   88SAPS   H6X 8506   4.269   4.316   9.627  1.4640 -2.4125 -1.5879
   88SAPS   H6Y 8507   4.429   4.264   9.611 -0.1944 -0.4001  0.7492
   88SAPS   C37 8508   4.409   4.478   9.595 -0.4294  0.3377 -0.0797
   88SAPS   H7X 8509   4.517   4.500   9.607 -0.3395 -0.8469  1.6209
   88SAPS   H7Y 8510   4.355   4.562   9.643  0.3242  0.6596  0.2233
   88SAPS   C38 8511   4.387   4.485   9.444 -0.2154 -0.4866  0.4402
   88SAPS   H8X 8512   4.284   4.451   9.420  0.2094 -1.5498  0.0441
   88SAPS   H8Y 8513   4.444   4.408   9.387 -2.1237 -0.9273 -0.9694
   88SAPS   C39 8514   4.436   4.616   9.389  0.1250  0.0793 -0.1304
   88SAPS   H9X 8515   4.546   4.627   9.392  0.3299 -1.6236 -0.3135
   88SAPS   H9Y 8516   4.391   4.702   9.443 -2.4964 -2.0790  1.3751
   88SAPS  C310 8517   4.408   4.633   9.240 -0.7705 -0.4047  0.3874
   88SAPS  H10X 8518   4.300   4.611   9.227 -0.7573 -0.6719  0.7246
   88SAPS  H10Y 8519   4.467   4.559   9.183 -0.1375 -0.1276  0.6769
   88SAPS  C311 8520   4.449   4.773   9.185  0.6153  0.5579 -0.1942
   88SAPS  H11X 8521   4.556   4.787   9.157  0.7772 -1.6224 -0.8661
   88SAPS  H11Y 8522   4.415   4.848   9.260 -4.3386 -1.4163 -0.1165
   88SAPS  C312 8523   4.385   4.805   9.051 -1.0118 -0.5272  0.0626
   88SAPS  H12X 8524   4.275   4.802   9.066 -0.7263  0.6482  2.9768
   88SAPS  H12Y 8525   4.411   4.727   8.976 -1.9989  1.1437 -2.1200
   88SAPS  C313 8526   4.444   4.935   8.991 -0.3461  0.2169  0.2235
   88SAPS  H13X 8527   4.554   4.931   8.975 -0.3419 -0.8968  0.4429
   88SAPS  H13Y 8528   4.424   5.017   9.063 -2.2876 -1.8502  2.2201
   88SAPS  C314 8529   4.379   4.958   8.862  0.9023  0.4065  0.1872
   88SAPS  H14X 8530   4.272   4.973   8.886  0.2276 -0.6779 -1.9186
   88SAPS  H14Y 8531   4.395   4.863   8.805  1.5110  0.6484 -0.0488
   88SAPS  C315 8532   4.433   5.074   8.776  0.5635 -0.2995 -0.1288
   88SAPS  H15X 8533   4.543   5.060   8.763  0.9668 -1.1055  3.2345
   88SAPS  H15Y 8534   4.424   5.168   8.835 -0.9885 -1.3538  1.3989
   88SAPS  C316 8535   4.355   5.091   8.645 -0.3516 -0.6528 -0.1402
   88SAPS  H16X 8536   4.248   5.091   8.674  0.2974  0.0960  2.6675
   88SAPS  H16Y 8537   4.377   5.004   8.581 -0.5578 -1.6763  1.1311
   88SAPS  C317 8538   4.390   5.227   8.570  0.0862 -0.4388 -0.2801
   88SAPS  H17X 8539   4.364   5.305   8.645 -0.7636 -1.2728  0.3354
   88SAPS  H17Y 8540   4.324   5.241   8.482  0.2582  3.1032  0.0279
   88SAPS  C318 8541   4.540   5.236   8.537 -0.1273 -1.0191  0.0132
   88SAPS  H18X 8542   4.562   5.154   8.466 -0.0421 -0.9806 -0.0041
   88SAPS  H18Y 8543   4.603   5.233   8.629 -0.3518  0.7747  0.2753
   88SAPS  H18Z 8544   4.548   5.340   8.497 -3.0460 -0.1376  1.4079
   89SAPS     N 8545   5.210   0.174  11.033 -0.7686 -0.0570  0.2327
   89SAPS   HN1 8546   5.218   0.076  10.999 -0.9301  0.1307 -0.3561
   89SAPS   HN2 8547   5.225   0.183  11.135 -2.7824 -1.7665  0.7561
   89SAPS   HN3 8548   5.112   0.204  11.019 -0.7779 -0.1646  0.0614
   89SAPS   C12 8549   5.291   0.270  10.945 -0.0412  0.5677 -0.0568
   89SAPS  H12A 8550   5.255   0.371  10.952  1.7726  1.4271 -2.0005
   89SAPS   C13 8551   5.440   0.275  10.986 -0.5009  0.3164  0.0052
   89SAPS  O13A 8552   5.495   0.177  11.044  0.0846 -0.2082  0.0591
   89SAPS  O13B 8553   5.503   0.377  10.950  0.0951 -0.7948  0.2489
   89SAPS   C11 8554   5.297   0.220  10.797  0.4267  0.2660  0.1376
   89SAPS  H11A 8555   5.340   0.117  10.799 -1.3616 -0.5187  0.7708
   89SAPS  H11B 8556   5.366   0.281  10.735  0.1077  0.1227 -0.3729
   89SAPS     P 8557   5.149   0.160  10.592 -0.1461 -0.3604 -0.2516
   89SAPS   O13 8558   5.186   0.018  10.603 -0.6846  0.1302 -0.1726
   89SAPS   O14 8559   5.010   0.190  10.556  0.0785 -0.4104  0.6535
   89SAPS   O12 8560   5.171   0.232  10.733  0.1033  0.1478  0.7757
   89SAPS   O11 8561   5.250   0.229  10.490 -0.1062  0.1257  0.3446
   89SAPS    C1 8562   5.297   0.154  10.374  0.0851 -0.3354 -0.0865
   89SAPS    HA 8563   5.404   0.177  10.355 -0.1675  0.9222 -0.0687
   89SAPS    HB 8564   5.291   0.044  10.389 -0.6600  0.0006  2.8340
   89SAPS    C2 8565   5.225   0.203  10.253  0.6272 -0.1678  0.3157
   89SAPS    HS 8566   5.127   0.152  10.264  0.8968 -0.8836 -0.4686
   89SAPS   O21 8567   5.286   0.143  10.134 -0.0144 -0.3906 -0.5542
   89SAPS   C21 8568   5.257   0.016  10.112  0.6912 -0.1046 -0.2394
   89SAPS   O22 8569   5.180  -0.050  10.177  0.0356  0.3934 -0.9147
   89SAPS   C22 8570   5.301  -0.026   9.977  0.4659  0.5854 -0.3343
   89SAPS   H2R 8571   5.238   0.027   9.903  0.5724 -2.7026 -3.0411
   89SAPS   H2S 8572   5.408   0.005   9.979  0.6172  0.0415  0.3801
   89SAPS    C3 8573   5.207   0.354  10.236  0.4015  0.1972  0.1272
   89SAPS    HX 8574   5.308   0.398  10.221  0.2791 -0.0616 -1.7995
   89SAPS    HY 8575   5.166   0.403  10.326  0.4480  1.2325 -0.3956
   89SAPS   O31 8576   5.116   0.379  10.131 -0.0071  0.2315  0.3009
   89SAPS   C31 8577   5.149   0.477  10.049 -0.2984 -0.0075 -0.9646
   89SAPS   O32 8578   5.245   0.550  10.063 -0.0677 -0.3963 -0.0540
   89SAPS   C32 8579   5.039   0.482   9.942 -0.2877 -0.0097 -0.2087
   89SAPS   H2X 8580   5.012   0.589   9.934 -0.3897 -0.0280 -0.1058
   89SAPS   H2Y 8581   4.952   0.427   9.983  0.5127  0.1765  1.8620
   89SAPS   C23 8582   5.301  -0.179   9.955 -0.1377 -0.4485 -0.0084
   89SAPS   H3R 8583   5.195  -0.211   9.966 -0.0216 -1.0802 -0.6762
   89SAPS   H3S 8584   5.356  -0.222  10.041 -0.6269 -0.2548  0.4032
   89SAPS   C24 8585   5.362  -0.225   9.822  0.9102 -0.6946  0.3025
   89SAPS   H4R 8586   5.367  -0.336   9.819 -0.1193 -0.7796 -3.4073
   89SAPS   H4S 8587   5.470  -0.198   9.828  0.7610 -0.3582  1.9013
   89SAPS   C25 8588   5.285  -0.170   9.701  0.4476 -0.4007 -0.3279
   89SAPS   H5R 8589   5.177  -0.195   9.706  0.2587  0.6355  1.6059
   89SAPS   C26 8590   5.334  -0.108   9.595  0.2234  0.9499 -0.5672
   89SAPS   H6R 8591   5.268  -0.090   9.509  0.3482 -0.5872 -1.0166
   89SAPS   C27 8592   5.475  -0.079   9.570 -0.2086  0.3001  1.0644
   89SAPS   H7R 8593   5.538  -0.073   9.662  0.8059 -0.4315  0.4416
   89SAPS   H7S 8594   5.493   0.016   9.516 -0.1080  0.0978  0.7375
   89SAPS   C28 8595   5.512  -0.193   9.479  0.2206 -0.4886  0.7465
   89SAPS   H8R 8596   5.545  -0.284   9.533 -0.7522 -0.7252  0.9637
   89SAPS   C29 8597   5.515  -0.190   9.345 -0.3083  0.1440  0.0868
   89SAPS   H9R 8598   5.538  -0.284   9.293 -0.7825  1.7546 -3.2890
   89SAPS  C210 8599   5.481  -0.073   9.254  0.4605 -1.2694  0.0903
   89SAPS  H10R 8600   5.410  -0.008   9.309  1.2338  1.3851 -1.8296
   89SAPS  H10S 8601   5.436  -0.113   9.161  0.1630 -0.1479 -0.2573
   89SAPS  C211 8602   5.598   0.015   9.228 -0.2246  0.0937 -0.1809
   89SAPS  H11R 8603   5.663   0.031   9.315  1.1978  1.8969 -1.5000
   89SAPS  C212 8604   5.630   0.072   9.114 -0.0838 -0.8075 -0.6345
   89SAPS  H12R 8605   5.728   0.122   9.108 -0.9602  1.0274 -0.0911
   89SAPS  C213 8606   5.561   0.042   8.986  0.2478 -0.0027 -0.4618
   89SAPS  H13R 8607   5.476   0.114   8.983  1.0709  1.0748  0.7878
   89SAPS  H13S 8608   5.522  -0.062   8.991  0.0383  0.1272  1.2741
   89SAPS  C214 8609   5.651   0.063   8.870 -0.3976  0.0377 -0.6462
   89SAPS  H14R 8610   5.674  -0.029   8.814  3.0776 -0.3565  1.1554
   89SAPS  C215 8611   5.706   0.180   8.827 -0.5260  0.2663 -0.4111
   89SAPS  H15R 8612   5.783   0.179   8.748 -2.0614  1.5755 -2.0108
   89SAPS  C216 8613   5.684   0.315   8.889 -0.1593  0.5262  0.6261
   89SAPS  H16R 8614   5.788   0.356   8.892  0.1035 -0.1548  1.2556
   89SAPS  H16S 8615   5.626   0.311   8.984  1.1285  1.1947  1.4800
   89SAPS  C217 8616   5.604   0.408   8.789 -0.3186 -0.0067 -0.1254
   89SAPS  H17R 8617   5.515   0.349   8.758  0.3944 -0.1942 -1.9755
   89SAPS  H17S 8618   5.658   0.421   8.693 -0.2091 -0.4601 -0.1245
   89SAPS  C218 8619   5.580   0.532   8.859  0.2872  0.0154 -0.0281
   89SAPS  H18R 8620   5.676   0.570   8.901  1.3478  0.1672 -2.4249
   89SAPS  H18S 8621   5.504   0.516   8.939  0.4275 -0.6928 -0.0321
   89SAPS  C219 8622   5.530   0.648   8.773 -0.1118  0.6600  0.0128
   89SAPS  H19R 8623   5.469   0.729   8.818  0.5593  0.4120  1.4075
   89SAPS  H19S 8624   5.459   0.607   8.698 -0.6355 -0.5199  1.1141
   89SAPS  C220 8625   5.649   0.728   8.707  0.3260 -0.4667  0.1728
   89SAPS  H20R 8626   5.601   0.801   8.638 -2.0412 -1.5440  0.5706
   89SAPS  H20S 8627   5.695   0.648   8.646 -1.9177 -1.8197  0.1399
   89SAPS  H20T 8628   5.713   0.772   8.787 -1.3604  2.6978 -0.0609
   89SAPS   C33 8629   5.091   0.430   9.809  0.0294  0.1160 -0.1058
   89SAPS   H3X 8630   5.008   0.387   9.749 -0.2552  0.4215  0.0652
   89SAPS   H3Y 8631   5.152   0.341   9.839 -1.4562 -0.6751  0.7022
   89SAPS   C34 8632   5.153   0.540   9.721  0.2282  0.0668  0.0711
   89SAPS   H4X 8633   5.262   0.543   9.745 -0.1490  0.3139  1.8495
   89SAPS   H4Y 8634   5.114   0.640   9.750  4.6284  1.3491  2.5700
   89SAPS   C35 8635   5.133   0.512   9.569  0.2495 -0.0176 -0.6600
   89SAPS   H5X 8636   5.190   0.579   9.502  1.9803 -1.6880 -0.9421
   89SAPS   H5Y 8637   5.025   0.533   9.560  0.3468  1.0327  0.3055
   89SAPS   C36 8638   5.175   0.366   9.525  0.2177 -0.3671 -1.0503
   89SAPS   H6X 8639   5.118   0.300   9.593 -0.1573  1.4241  0.4491
   89SAPS   H6Y 8640   5.285   0.350   9.537  0.7391  2.6807 -0.8355
   89SAPS   C37 8641   5.143   0.359   9.369 -0.3933  0.3143 -0.0988
   89SAPS   H7X 8642   5.176   0.452   9.317 -1.5993  0.8605  0.0834
   89SAPS   H7Y 8643   5.032   0.359   9.366 -0.3757  0.3075 -1.3375
   89SAPS   C38 8644   5.204   0.237   9.302 -0.1975  0.6754 -0.1963
   89SAPS   H8X 8645   5.180   0.148   9.365  0.2684 -0.8189 -2.0576
   89SAPS   H8Y 8646   5.313   0.257   9.300 -0.1789  0.5570 -0.3781
   89SAPS   C39 8647   5.148   0.226   9.158 -0.3066  0.4958 -1.2592
   89SAPS   H9X 8648   5.039   0.206   9.155  0.1682 -2.5201 -1.8782
   89SAPS   H9Y 8649   5.200   0.141   9.108  0.3987 -0.2105  0.5809
   89SAPS  C310 8650   5.183   0.336   9.061 -0.7577  0.0733  0.5679
   89SAPS  H10X 8651   5.292   0.354   9.059 -1.2108  3.4532  0.5710
   89SAPS  H10Y 8652   5.130   0.431   9.084 -0.5696 -0.0056  1.3465
   89SAPS  C311 8653   5.120   0.307   8.915  0.7907 -0.1444 -0.7904
   89SAPS  H11X 8654   5.014   0.274   8.920  0.4122  1.1639  0.7374
   89SAPS  H11Y 8655   5.172   0.221   8.868  1.6786  0.2500 -0.5434
   89SAPS  C312 8656   5.140   0.430   8.820  0.4635 -0.1371  0.3458
   89SAPS  H12X 8657   5.246   0.463   8.825  0.4819 -0.0617 -0.5127
   89SAPS  H12Y 8658   5.087   0.519   8.861  0.2988  0.4526 -1.0865
   89SAPS  C313 8659   5.097   0.391   8.677  0.5923 -1.3584 -0.0124
   89SAPS  H13X 8660   4.991   0.360   8.676  0.4250 -0.7943  0.0000
   89SAPS  H13Y 8661   5.167   0.312   8.641  1.8935  0.1418 -0.9134
   89SAPS  C314 8662   5.105   0.511   8.577 -0.8407  0.2218 -0.3383
   89SAPS  H14X 8663   5.085   0.462   8.480 -2.3171 -2.5047  1.2061
   89SAPS  H14Y 8664   5.208   0.551   8.583  0.4046 -2.7585  0.2473
   89SAPS  C315 8665   4.998   0.615   8.601 -0.8122  0.7426 -0.3487
   89SAPS  H15X 8666   4.994   0.649   8.706 -0.2152 -0.4576  0.0858
   89SAPS  H15Y 8667   4.897   0.575   8.578 -0.2346 -1.7089  1.0352
   89SAPS  C316 8668   5.020   0.740   8.509  0.5698 -0.3342 -0.5098
   89SAPS  H16X 8669   5.041   0.697   8.408  0.8923 -1.1178 -0.1203
   89SAPS  H16Y 8670   5.114   0.786   8.546  0.7934  0.0061 -1.4699
   89SAPS  C317 8671   4.904   0.829   8.479 -0.2754 -0.7029  0.0900
   89SAPS  H17X 8672   4.945   0.902   8.405 -0.7797 -1.4079 -0.9116
   89SAPS  H17Y 8673   4.874   0.886   8.569 -3.1178 -0.9451 -0.6141
   89SAPS  C318 8674   4.788   0.771   8.401 -1.3281 -0.1927 -0.2226
   89SAPS  H18X 8675   4.801   0.795   8.293  0.3744  0.1941  0.0487
   89SAPS  H18Y 8676   4.698   0.833   8.425 -0.3335  1.2297 -0.0595
   89SAPS  H18Z 8677   4.758   0.667   8.428  0.0271 -1.1452 -2.1460
   90SAPS     N 8678   0.057   4.144  10.612  0.0896  0.9191 -0.0005
   90SAPS   HN1 8679   0.122   4.096  10.547 -1.5127  0.0133 -0.9916
   90SAPS   HN2 8680   0.093   4.230  10.659 -0.1705 -0.1291  2.2589
   90SAPS   HN3 8681   0.021   4.077  10.683 -0.6617  0.0803 -1.1451
   90SAPS   C12 8682  -0.069   4.186  10.541  0.4528  0.0371 -0.7039
   90SAPS  H12A 8683  -0.085   4.104  10.471 -1.1005 -1.2704  1.0815
   90SAPS   C13 8684  -0.189   4.208  10.631  0.6345  0.1270 -0.6688
   90SAPS  O13A 8685  -0.179   4.188  10.759 -0.5054 -0.0424  0.0899
   90SAPS  O13B 8686  -0.294   4.244  10.580 -0.0821 -0.2398 -0.0536
   90SAPS   C11 8687  -0.047   4.320  10.470  0.1396 -0.4254 -0.0818
   90SAPS  H11A 8688  -0.137   4.355  10.416  1.1730  1.4562 -0.6800
   90SAPS  H11B 8689   0.034   4.300  10.396  0.8238  0.4029  0.4297
   90SAPS     P 8690   0.113   4.506  10.573 -0.2833 -0.0053  0.4349
   90SAPS   O13 8691   0.101   4.644  10.621 -0.1553  0.5454 -0.1928
   90SAPS   O14 8692   0.203   4.413  10.651  0.3733  0.3250 -0.1950
   90SAPS   O12 8693  -0.019   4.431  10.561  0.5944  0.4602  0.0958
   90SAPS   O11 8694   0.145   4.507  10.412 -0.3553 -0.0397  0.3219
   90SAPS    C1 8695   0.120   4.626  10.331  0.1128 -0.4281 -0.1233
   90SAPS    HA 8696   0.014   4.654  10.345  0.7205  1.9909  0.1933
   90SAPS    HB 8697   0.181   4.714  10.363  0.3932 -0.5055 -0.4279
   90SAPS    C2 8698   0.154   4.604  10.181  0.9728  0.1997  0.5152
   90SAPS    HS 8699   0.128   4.699  10.129  0.4454  0.8201  1.8651
   90SAPS   O21 8700   0.091   4.488  10.129 -0.2927  0.4158  0.3372
   90SAPS   C21 8701  -0.036   4.470  10.131  0.1041  0.2377 -0.3192
   90SAPS   O22 8702  -0.128   4.545  10.162 -0.7274 -0.4212 -0.2481
   90SAPS   C22 8703  -0.061   4.326  10.076  0.8207 -0.0444 -0.1646
   90SAPS   H2R 8704   0.006   4.317   9.988  0.7331 -0.7344 -0.1619
   90SAPS   H2S 8705  -0.026   4.255  10.154  0.4494  0.3335  0.3576
   90SAPS    C3 8706   0.301   4.574  10.148  0.4592  0.3252  0.0410
   90SAPS    HX 8707   0.320   4.470  10.181  0.0209  0.4980  0.8785
   90SAPS    HY 8708   0.358   4.638  10.220 -1.2456  1.3157  0.5659
   90SAPS   O31 8709   0.335   4.611  10.013 -0.2277  0.4858 -0.1224
   90SAPS   C31 8710   0.345   4.508   9.925 -0.0772  0.3024  0.5517
   90SAPS   O32 8711   0.328   4.390   9.956 -1.0401  0.1585 -0.2326
   90SAPS   C32 8712   0.375   4.569   9.785  0.0040 -0.2361 -0.2243
   90SAPS   H2X 8713   0.469   4.628   9.787 -0.3433  0.4987 -2.6592
   90SAPS   H2Y 8714   0.285   4.625   9.754  0.4089 -0.1550 -1.2714
   90SAPS   C23 8715  -0.213   4.302  10.045 -0.2729 -0.3894 -0.5728
   90SAPS   H3R 8716  -0.292   4.352  10.106  0.9878  1.6207 -0.5138
   90SAPS   H3S 8717  -0.225   4.196  10.074  1.3253 -0.1121  1.2809
   90SAPS   C24 8718  -0.241   4.303   9.888  0.6151 -0.3246  0.8706
   90SAPS   H4R 8719  -0.351   4.286   9.883  0.4521  0.1423  2.5660
   90SAPS   H4S 8720  -0.184   4.230   9.827  2.3127  2.4681 -1.1306
   90SAPS   C25 8721  -0.215   4.442   9.832 -0.0185  0.1865 -0.1450
   90SAPS   H5R 8722  -0.287   4.514   9.874 -1.2404 -0.7269 -0.6030
   90SAPS   C26 8723  -0.115   4.479   9.755 -0.1491 -0.6710  0.7884
   90SAPS   H6R 8724  -0.112   4.586   9.733 -0.9376 -0.0867  3.2467
   90SAPS   C27 8725  -0.008   4.401   9.694 -0.5631  0.0267 -0.2467
   90SAPS   H7R 8726  -0.023   4.292   9.711 -3.8121  0.5225  0.6423
   90SAPS   H7S 8727   0.081   4.437   9.751 -0.9335 -0.5871  0.7347
   90SAPS   C28 8728   0.016   4.430   9.548 -0.2854 -0.8192 -0.0298
   90SAPS   H8R 8729  -0.015   4.529   9.514 -1.8259 -1.1820  0.2605
   90SAPS   C29 8730   0.066   4.343   9.458  0.4536 -0.2047  0.4262
   90SAPS   H9R 8731   0.074   4.380   9.355  0.8677 -0.6600  0.2923
   90SAPS  C210 8732   0.100   4.192   9.481 -1.0871 -0.8032  0.7963
   90SAPS  H10R 8733   0.024   4.121   9.442  0.1114 -1.2451 -0.8597
   90SAPS  H10S 8734   0.103   4.171   9.590 -1.5160  0.1996  1.0230
   90SAPS  C211 8735   0.240   4.155   9.427  0.4334 -0.3774 -1.0912
   90SAPS  H11R 8736   0.320   4.167   9.500  0.2192  1.9588 -1.1591
   90SAPS  C212 8737   0.269   4.125   9.297  0.5473 -0.4701 -0.2171
   90SAPS  H12R 8738   0.370   4.091   9.269  1.5173  2.4231 -0.4861
   90SAPS  C213 8739   0.172   4.125   9.182  0.1426  0.4932 -0.2736
   90SAPS  H13R 8740   0.086   4.188   9.212  1.0467 -0.1014  4.3041
   90SAPS  H13S 8741   0.135   4.021   9.172 -0.4814  0.4177  2.2145
   90SAPS  C214 8742   0.222   4.169   9.043  0.1185  0.6198  0.2135
   90SAPS  H14R 8743   0.229   4.277   9.029  1.3391  0.3219 -1.8833
   90SAPS  C215 8744   0.246   4.090   8.941  0.0668  0.2063 -0.3770
   90SAPS  H15R 8745   0.268   4.129   8.840  1.1968 -2.0849 -1.0887
   90SAPS  C216 8746   0.241   3.935   8.925  0.8860 -0.3586  0.1017
   90SAPS  H16R 8747   0.216   3.878   9.017 -0.3944  1.5850  1.0068
   90SAPS  H16S 8748   0.337   3.889   8.890  0.1475 -0.5073 -1.8805
   90SAPS  C217 8749   0.128   3.892   8.821 -0.0760  1.3074 -0.3134
   90SAPS  H17R 8750   0.032   3.931   8.862  0.8591  1.1866  2.1330
   90SAPS  H17S 8751   0.111   3.782   8.823 -1.4459  1.5027  1.2631
   90SAPS  C218 8752   0.163   3.937   8.679 -0.1408  0.0547  0.1678
   90SAPS  H18R 8753   0.216   3.857   8.625 -0.7858 -0.8905  0.8989
   90SAPS  H18S 8754   0.232   4.024   8.678 -0.4709  0.3208 -1.4061
   90SAPS  C219 8755   0.033   3.966   8.589 -0.5217  0.1191 -0.5938
   90SAPS  H19R 8756  -0.015   4.060   8.624 -0.7935 -0.4314  0.5421
   90SAPS  H19S 8757  -0.036   3.880   8.605  0.2577 -0.6082 -1.0781
   90SAPS  C220 8758   0.046   3.996   8.438  0.3443 -0.2792  0.4114
   90SAPS  H20R 8759   0.087   4.096   8.416 -1.8119  0.1975 -1.8905
   90SAPS  H20S 8760  -0.054   4.000   8.389  0.0627  1.5784  1.0898
   90SAPS  H20T 8761   0.100   3.913   8.386  0.8312  2.1067 -3.2806
   90SAPS   C33 8762   0.411   4.457   9.691  0.4306 -0.3651 -0.1381
   90SAPS   H3X 8763   0.333   4.378   9.699 -1.7095  1.4977 -1.2240
   90SAPS   H3Y 8764   0.512   4.420   9.714  1.3962  1.3162 -1.4140
   90SAPS   C34 8765   0.415   4.513   9.547  0.5641 -0.6251  0.2428
   90SAPS   H4X 8766   0.461   4.614   9.550  0.6891 -0.6997  1.2370
   90SAPS   H4Y 8767   0.312   4.517   9.506  0.7773 -1.0590 -0.3492
   90SAPS   C35 8768   0.510   4.421   9.462  0.9764  0.1732 -0.0789
   90SAPS   H5X 8769   0.474   4.317   9.475 -2.2718  1.3427  1.3762
   90SAPS   H5Y 8770   0.613   4.423   9.504  0.8107 -0.7105  0.3941
   90SAPS   C36 8771   0.502   4.475   9.319 -0.0639  0.6308  0.1550
   90SAPS   H6X 8772   0.531   4.581   9.306  1.1769  0.0057 -3.0524
   90SAPS   H6Y 8773   0.398   4.450   9.287  0.0375  1.3313 -0.7251
   90SAPS   C37 8774   0.583   4.389   9.221  0.0592 -0.9941 -0.2634
   90SAPS   H7X 8775   0.563   4.280   9.226  0.6720 -1.0716  0.7584
   90SAPS   H7Y 8776   0.693   4.402   9.233  0.0408  0.1700 -1.1310
   90SAPS   C38 8777   0.550   4.432   9.076 -0.2272  0.0664  0.4080
   90SAPS   H8X 8778   0.571   4.540   9.060 -1.2808  0.1179 -0.7843
   90SAPS   H8Y 8779   0.441   4.412   9.069 -0.4632  0.5726  2.0334
   90SAPS   C39 8780   0.620   4.357   8.960 -1.4202  0.0848 -0.6107
   90SAPS   H9X 8781   0.604   4.249   8.980  0.5119  0.0199  0.9339
   90SAPS   H9Y 8782   0.725   4.389   8.975 -1.4445  0.5676 -1.4040
   90SAPS  C310 8783   0.589   4.400   8.821 -0.2376 -0.7183  0.1915
   90SAPS  H10X 8784   0.665   4.381   8.742  0.1530  0.6320  0.2056
   90SAPS  H10Y 8785   0.580   4.511   8.814  1.7330 -0.6035 -2.5030
   90SAPS  C311 8786   0.455   4.355   8.766  0.0531 -0.0763  0.5302
   90SAPS  H11X 8787   0.429   4.261   8.817  0.4869  0.1931  1.2549
   90SAPS  H11Y 8788   0.464   4.320   8.661 -0.8489 -0.3527  0.5347
   90SAPS  C312 8789   0.342   4.459   8.773  0.9476 -0.0307  0.1525
   90SAPS  H12X 8790   0.376   4.550   8.719 -1.4503  0.1377 -1.2220
   90SAPS  H12Y 8791   0.327   4.491   8.879  0.2031 -0.0675  0.0678
   90SAPS  C313 8792   0.211   4.404   8.709  0.2837 -0.1217  0.0645
   90SAPS  H13X 8793   0.169   4.313   8.757 -3.1354  0.1855 -2.0130
   90SAPS  H13Y 8794   0.249   4.366   8.612  1.9745 -1.7303  1.3106
   90SAPS  C314 8795   0.102   4.513   8.680 -0.3162  0.2043 -0.1202
   90SAPS  H14X 8796   0.023   4.458   8.625  0.2015  1.8739 -2.7365
   90SAPS  H14Y 8797   0.138   4.595   8.614 -0.9724  1.5175  1.0824
   90SAPS  C315 8798   0.053   4.586   8.808 -0.6585  0.4580  0.3246
   90SAPS  H15X 8799   0.138   4.638   8.858 -2.3458  0.0794  3.9058
   90SAPS  H15Y 8800   0.030   4.502   8.877  0.3085  0.0584  0.1782
   90SAPS  C316 8801  -0.066   4.679   8.771 -0.4622  0.6780 -0.6366
   90SAPS  H16X 8802  -0.140   4.626   8.708  1.0587 -0.5495 -1.4578
   90SAPS  H16Y 8803  -0.043   4.775   8.721  0.9733  1.6768  1.7537
   90SAPS  C317 8804  -0.132   4.712   8.905  1.0232 -0.0558  0.6661
   90SAPS  H17X 8805  -0.070   4.771   8.975  0.2340  1.3078  0.2624
   90SAPS  H17Y 8806  -0.149   4.620   8.965 -0.4447 -0.3877 -0.1981
   90SAPS  C318 8807  -0.273   4.785   8.896 -0.1312  1.0090  0.0253
   90SAPS  H18X 8808  -0.253   4.891   8.867  0.0137  0.9004 -0.2719
   90SAPS  H18Y 8809  -0.319   4.792   8.997  0.5951 -0.0484  0.4433
   90SAPS  H18Z 8810  -0.330   4.728   8.819  2.2587  0.6770 -1.5995
   91SAPS     N 8811   2.183   3.487   6.069 -0.4608  0.6494  0.3081
   91SAPS   HN1 8812   2.246   3.569   6.079  0.2230  0.0832  0.7431
   91SAPS   HN2 8813   2.170   3.443   6.163  1.6875 -1.0894 -0.1287
   91SAPS   HN3 8814   2.238   3.421   6.011  0.0872  0.7211  0.7418
   91SAPS   C12 8815   2.054   3.524   6.004 -0.1302  0.1145  0.4909
   91SAPS  H12A 8816   2.065   3.615   5.948  1.1693 -0.5570 -0.4041
   91SAPS   C13 8817   1.992   3.425   5.898 -0.2258 -0.1196 -0.4905
   91SAPS  O13A 8818   2.039   3.308   5.902  0.4695  0.1134 -0.2218
   91SAPS  O13B 8819   1.939   3.471   5.797  0.1111  0.0121 -0.2230
   91SAPS   C11 8820   1.950   3.553   6.113  0.0999 -0.3409  0.3589
   91SAPS  H11A 8821   1.939   3.466   6.180 -0.1314 -0.4503  0.1780
   91SAPS  H11B 8822   1.853   3.583   6.068  0.6580 -0.8720 -1.2647
   91SAPS     P 8823   1.962   3.807   6.183 -0.2866 -0.2156 -0.6470
   91SAPS   O13 8824   2.013   3.840   6.052  0.0819  0.1603 -0.1410
   91SAPS   O14 8825   1.814   3.827   6.202 -0.5168 -0.0079  0.1906
   91SAPS   O12 8826   2.002   3.660   6.195  0.4142 -0.2628 -0.0235
   91SAPS   O11 8827   2.038   3.897   6.289  0.4391  0.0075  0.1878
   91SAPS    C1 8828   2.166   3.848   6.333 -0.1524  0.4401 -0.8806
   91SAPS    HA 8829   2.213   3.772   6.267 -1.7712 -1.4367  0.0303
   91SAPS    HB 8830   2.237   3.929   6.359  0.4877 -0.4016  0.0768
   91SAPS    C2 8831   2.149   3.777   6.472 -0.1217 -0.2554  0.4408
   91SAPS    HS 8832   2.099   3.682   6.443 -0.3065  0.6590 -2.6134
   91SAPS   O21 8833   2.064   3.862   6.552  0.5837  0.8412  0.1190
   91SAPS   C21 8834   1.974   3.792   6.626 -0.0513  0.0796  0.1931
   91SAPS   O22 8835   1.978   3.671   6.639  0.2476  0.1470 -0.5678
   91SAPS   C22 8836   1.889   3.883   6.713 -0.6580 -0.2112 -0.2590
   91SAPS   H2R 8837   1.959   3.957   6.759 -0.5696 -0.9372  0.8278
   91SAPS   H2S 8838   1.815   3.933   6.647 -0.5279 -1.4246 -1.3411
   91SAPS    C3 8839   2.285   3.745   6.543  0.4966  0.1248  0.1085
   91SAPS    HX 8840   2.333   3.844   6.555  0.5877  0.2758 -1.2652
   91SAPS    HY 8841   2.355   3.688   6.477  1.4057  1.1290  0.1925
   91SAPS   O31 8842   2.279   3.688   6.677 -0.3141 -0.4045 -0.0306
   91SAPS   C31 8843   2.266   3.557   6.671  0.0406 -0.7070 -0.0548
   91SAPS   O32 8844   2.244   3.495   6.569 -0.0514  0.5564  0.9723
   91SAPS   C32 8845   2.291   3.503   6.808  0.1273 -0.5170 -0.1774
   91SAPS   H2X 8846   2.241   3.568   6.884  1.3553  0.6371 -0.3217
   91SAPS   H2Y 8847   2.399   3.508   6.831 -0.2203  2.8629  1.3546
   91SAPS   C23 8848   1.819   3.817   6.833 -0.0395 -0.7233  0.0744
   91SAPS   H3R 8849   1.759   3.734   6.790 -2.7098  1.7800 -1.4008
   91SAPS   H3S 8850   1.746   3.886   6.879  0.3639  0.9203 -1.6255
   91SAPS   C24 8851   1.921   3.779   6.947 -0.0837  0.7512  0.1130
   91SAPS   H4R 8852   2.001   3.715   6.902 -1.7575  0.5778 -2.9069
   91SAPS   H4S 8853   1.867   3.712   7.017 -0.2551  0.4476 -0.3005
   91SAPS   C25 8854   1.990   3.898   7.008  0.5190 -0.2256 -0.6660
   91SAPS   H5R 8855   2.074   3.942   6.953 -0.2124  3.2048  0.6731
   91SAPS   C26 8856   1.960   3.956   7.129  0.0695  0.1365  0.0287
   91SAPS   H6R 8857   2.017   4.038   7.174 -0.9090  1.2296 -0.6646
   91SAPS   C27 8858   1.847   3.913   7.215  0.1567  0.0990  0.5182
   91SAPS   H7R 8859   1.783   3.844   7.156 -0.4804  0.9154  0.2379
   91SAPS   H7S 8860   1.787   4.005   7.230 -0.0821  0.3586 -1.6725
   91SAPS   C28 8861   1.892   3.846   7.334 -0.3768  0.8853  0.2013
   91SAPS   H8R 8862   1.940   3.747   7.325 -1.2963  0.3944  0.5659
   91SAPS   C29 8863   1.892   3.903   7.463  0.5823 -0.1722 -0.4534
   91SAPS   H9R 8864   1.918   3.838   7.548  0.3318  2.4751  1.7611
   91SAPS  C210 8865   1.844   4.046   7.513  0.9220 -0.0618  0.2562
   91SAPS  H10R 8866   1.748   4.078   7.468  1.0847  0.5787  0.3545
   91SAPS  H10S 8867   1.924   4.108   7.467  1.5158 -1.6623 -0.9635
   91SAPS  C211 8868   1.852   4.065   7.662  0.0887 -0.3183 -0.2014
   91SAPS  H11R 8869   1.953   4.084   7.701 -0.6990 -1.2469  2.5635
   91SAPS  C212 8870   1.750   4.059   7.755 -0.2115 -0.4669  1.1912
   91SAPS  H12R 8871   1.768   4.072   7.862  0.7939 -0.0607  0.9793
   91SAPS  C213 8872   1.605   4.039   7.714 -0.3818 -0.4205 -0.1034
   91SAPS  H13R 8873   1.560   3.959   7.777 -0.2507  1.7828  3.0057
   91SAPS  H13S 8874   1.586   3.994   7.614 -1.0299  0.3785 -0.3539
   91SAPS  C214 8875   1.534   4.168   7.734  0.6588 -0.6478 -0.0463
   91SAPS  H14R 8876   1.591   4.258   7.707 -1.6193  1.4281  1.5652
   91SAPS  C215 8877   1.415   4.192   7.798  0.1055  0.2448 -0.0226
   91SAPS  H15R 8878   1.388   4.299   7.804 -0.6611 -0.0178  3.7574
   91SAPS  C216 8879   1.330   4.086   7.859  0.4323  0.3973 -0.3206
   91SAPS  H16R 8880   1.382   3.988   7.864 -1.2968 -0.5006  3.0969
   91SAPS  H16S 8881   1.234   4.072   7.806 -1.5890  0.1228  3.1390
   91SAPS  C217 8882   1.290   4.101   8.009 -0.8663 -0.8974 -0.0874
   91SAPS  H17R 8883   1.239   4.014   8.054  0.0523  0.1260  3.2232
   91SAPS  H17S 8884   1.217   4.184   8.008 -1.3367 -1.2728  1.6195
   91SAPS  C218 8885   1.407   4.133   8.099 -0.1930 -0.5568 -0.3241
   91SAPS  H18R 8886   1.441   4.231   8.060 -3.4170  1.0289  0.5289
   91SAPS  H18S 8887   1.488   4.061   8.074 -0.4221 -0.2568 -2.0085
   91SAPS  C219 8888   1.381   4.141   8.251  0.4617 -0.6995  0.1898
   91SAPS  H19R 8889   1.293   4.204   8.277  2.3295  2.2737 -0.2453
   91SAPS  H19S 8890   1.467   4.184   8.306 -1.6830 -0.7430  3.9347
   91SAPS  C220 8891   1.369   3.996   8.309 -0.1763 -0.9492 -0.3006
   91SAPS  H20R 8892   1.459   3.934   8.290  1.2937  0.6871  0.9532
   91SAPS  H20S 8893   1.277   3.946   8.274 -1.2576  0.3950  0.5245
   91SAPS  H20T 8894   1.359   4.006   8.419 -0.3953 -1.3023 -0.2894
   91SAPS   C33 8895   2.227   3.361   6.822 -0.4729  0.5927  0.3289
   91SAPS   H3X 8896   2.277   3.292   6.751 -0.7527  0.4386  0.2813
   91SAPS   H3Y 8897   2.119   3.366   6.796 -0.4787  1.4875  0.4678
   91SAPS   C34 8898   2.236   3.294   6.956 -0.1686  0.5732 -0.3708
   91SAPS   H4X 8899   2.344   3.292   6.980  0.3135 -0.6939 -2.4545
   91SAPS   H4Y 8900   2.197   3.190   6.947  0.5655  0.3711 -1.3253
   91SAPS   C35 8901   2.170   3.359   7.081  0.1662  0.3147  0.4016
   91SAPS   H5X 8902   2.197   3.466   7.070 -1.5249  0.6152 -1.4719
   91SAPS   H5Y 8903   2.205   3.315   7.177 -1.5484 -1.9253  0.1052
   91SAPS   C36 8904   2.016   3.345   7.081 -0.0562  0.2688  0.2313
   91SAPS   H6X 8905   1.987   3.238   7.090 -2.0961  0.3074 -3.7271
   91SAPS   H6Y 8906   1.983   3.368   6.978 -1.2990  0.9982  0.7571
   91SAPS   C37 8907   1.942   3.413   7.197  0.5346  0.3682 -0.6997
   91SAPS   H7X 8908   1.836   3.381   7.206  0.8775 -0.2972  1.7694
   91SAPS   H7Y 8909   1.943   3.522   7.176 -1.0496  0.9791  1.9076
   91SAPS   C38 8910   1.997   3.401   7.337  0.0857  0.1493  0.1811
   91SAPS   H8X 8911   2.080   3.475   7.332  0.2407 -0.1257 -2.6771
   91SAPS   H8Y 8912   2.044   3.300   7.345  2.8151  1.3506  0.5315
   91SAPS   C39 8913   1.905   3.425   7.452 -0.4324 -1.1143 -0.5234
   91SAPS   H9X 8914   1.811   3.365   7.459  0.2829 -2.5239 -2.3228
   91SAPS   H9Y 8915   1.872   3.530   7.442 -1.4660 -1.4635 -0.8824
   91SAPS  C310 8916   1.978   3.407   7.585  0.1818 -0.1582  0.1937
   91SAPS  H10X 8917   2.032   3.310   7.578  0.7817  0.1492  0.4631
   91SAPS  H10Y 8918   1.903   3.395   7.666  3.1041  2.0891  3.5548
   91SAPS  C311 8919   2.083   3.513   7.629  0.5747 -1.3476  0.3579
   91SAPS  H11X 8920   2.038   3.610   7.599  0.9654 -1.4703 -0.6569
   91SAPS  H11Y 8921   2.163   3.504   7.553  2.3225 -1.0550  2.0725
   91SAPS  C312 8922   2.107   3.511   7.777 -0.8422 -0.2586 -0.0232
   91SAPS  H12X 8923   2.201   3.453   7.792 -0.0725  0.9862  0.0983
   91SAPS  H12Y 8924   2.022   3.467   7.833 -1.0453 -0.6224 -0.6064
   91SAPS  C313 8925   2.134   3.650   7.843 -0.3345 -0.0084 -0.1297
   91SAPS  H13X 8926   2.071   3.718   7.781 -1.1181 -1.1746 -0.6448
   91SAPS  H13Y 8927   2.241   3.678   7.834  0.1133 -1.0041  1.5655
   91SAPS  C314 8928   2.091   3.667   7.994 -0.4729 -0.1823  0.6524
   91SAPS  H14X 8929   2.163   3.606   8.052  0.6385 -1.0034 -1.4525
   91SAPS  H14Y 8930   1.989   3.625   8.009 -0.8145 -1.0444 -3.0538
   91SAPS  C315 8931   2.100   3.818   8.029 -0.2675  0.2008 -0.5582
   91SAPS  H15X 8932   2.062   3.885   7.949 -0.9383 -0.1289 -0.5240
   91SAPS  H15Y 8933   2.207   3.847   8.037 -0.4169  1.0625 -1.4596
   91SAPS  C316 8934   2.024   3.851   8.154  1.0323 -0.4370 -0.3450
   91SAPS  H16X 8935   1.926   3.799   8.157 -0.5685  2.3947  0.1491
   91SAPS  H16Y 8936   2.013   3.955   8.190 -0.5778 -0.9317  0.7042
   91SAPS  C317 8937   2.097   3.778   8.271  0.1140 -0.1972  0.2474
   91SAPS  H17X 8938   2.205   3.803   8.260 -0.1362  1.4750  1.2004
   91SAPS  H17Y 8939   2.080   3.670   8.256  2.6029 -0.5794 -0.3475
   91SAPS  C318 8940   2.045   3.815   8.412  0.0199  0.1993  0.0641
   91SAPS  H18X 8941   2.103   3.903   8.447 -2.1196  0.5267  3.1995
   91SAPS  H18Y 8942   2.067   3.729   8.479 -0.6401  1.4827  2.0209
   91SAPS  H18Z 8943   1.939   3.845   8.417  0.0637  0.5825 -1.0493
   92SAPS     N 8944   2.786   1.848   6.217 -0.1371  0.4887  0.7695
   92SAPS   HN1 8945   2.781   1.749   6.249  1.8893 -0.4645 -1.6313
   92SAPS   HN2 8946   2.695   1.859   6.167  0.8688  0.1302 -1.2369
   92SAPS   HN3 8947   2.862   1.852   6.147 -1.4821  0.1743 -0.7824
   92SAPS   C12 8948   2.796   1.948   6.333 -0.8411 -0.0735  0.3669
   92SAPS  H12A 8949   2.886   1.924   6.387  0.3682  0.7307 -1.1936
   92SAPS   C13 8950   2.788   2.090   6.289 -0.6952  0.8004 -0.1251
   92SAPS  O13A 8951   2.760   2.117   6.167 -0.1306 -0.7001 -0.7767
   92SAPS  O13B 8952   2.803   2.183   6.374 -0.0167  0.6418 -0.3373
   92SAPS   C11 8953   2.677   1.937   6.436  0.0945 -0.3837  0.1549
   92SAPS  H11A 8954   2.700   2.006   6.520  0.4685 -1.0946  0.6502
   92SAPS  H11B 8955   2.695   1.840   6.488  1.0000 -0.7972 -0.8775
   92SAPS     P 8956   2.450   1.832   6.366  0.6307  0.2570 -0.5189
   92SAPS   O13 8957   2.323   1.883   6.313  0.1488 -0.0631  0.3827
   92SAPS   O14 8958   2.520   1.731   6.285  0.1781  0.1925 -0.0888
   92SAPS   O12 8959   2.547   1.955   6.389 -0.1706 -0.1113  0.0259
   92SAPS   O11 8960   2.428   1.783   6.514  0.1033 -0.2467  0.1097
   92SAPS    C1 8961   2.356   1.865   6.608  0.3672  0.0312 -0.4820
   92SAPS    HA 8962   2.398   1.965   6.631 -0.1324 -0.3520  2.4533
   92SAPS    HB 8963   2.253   1.875   6.568  0.5930  2.4512 -0.6001
   92SAPS    C2 8964   2.348   1.792   6.750  0.0600 -0.3680 -0.2921
   92SAPS    HS 8965   2.287   1.861   6.812 -0.9616 -0.6484 -0.9418
   92SAPS   O21 8966   2.471   1.756   6.801 -0.6412  0.1276 -0.2893
   92SAPS   C21 8967   2.537   1.856   6.858 -0.0203  0.0425 -0.3718
   92SAPS   O22 8968   2.493   1.967   6.879  0.8457  0.1508 -0.1868
   92SAPS   C22 8969   2.682   1.805   6.889  0.4261  0.1198 -0.4827
   92SAPS   H2R 8970   2.678   1.701   6.928  0.7657 -0.0722 -0.9419
   92SAPS   H2S 8971   2.740   1.796   6.795 -0.6873 -0.7899 -1.1053
   92SAPS    C3 8972   2.263   1.666   6.746 -0.7454  0.3670 -0.3311
   92SAPS    HX 8973   2.299   1.592   6.671  1.1310 -0.0246  0.8877
   92SAPS    HY 8974   2.164   1.685   6.699  0.0796 -1.4608 -3.0715
   92SAPS   O31 8975   2.240   1.626   6.875 -0.1668 -0.8244 -0.5290
   92SAPS   C31 8976   2.298   1.511   6.907 -0.3949  0.1745 -0.2315
   92SAPS   O32 8977   2.380   1.452   6.843  0.1391  0.1814  0.0276
   92SAPS   C32 8978   2.262   1.479   7.052  0.4379  0.8864 -0.4409
   92SAPS   H2X 8979   2.160   1.518   7.068  0.1283 -0.7657  2.1878
   92SAPS   H2Y 8980   2.336   1.519   7.125  1.5844 -3.0725  0.8161
   92SAPS   C23 8981   2.758   1.906   6.984 -0.1143 -0.0955  0.0149
   92SAPS   H3R 8982   2.698   1.937   7.072  2.0446  1.5544  0.9837
   92SAPS   H3S 8983   2.779   1.996   6.924 -1.3371 -1.0970 -2.0577
   92SAPS   C24 8984   2.893   1.845   7.033 -0.7665 -0.0700  0.5637
   92SAPS   H4R 8985   2.943   1.796   6.947  0.6267  0.7817  0.8592
   92SAPS   H4S 8986   2.865   1.775   7.114  2.2122 -0.1097  1.6509
   92SAPS   C25 8987   2.974   1.961   7.091 -1.4296 -0.3109 -0.5906
   92SAPS   H5R 8988   2.995   2.038   7.016 -1.0507  2.3837  2.0679
   92SAPS   C26 8989   3.022   1.974   7.219 -0.2286  1.2832 -0.0217
   92SAPS   H6R 8990   3.086   2.058   7.247 -0.6200  1.1997  1.1960
   92SAPS   C27 8991   2.994   1.875   7.329 -0.3868  1.0272 -0.3548
   92SAPS   H7R 8992   2.897   1.824   7.311  0.4650 -0.8551  0.1738
   92SAPS   H7S 8993   2.983   1.941   7.419 -1.2205  0.2163  0.1575
   92SAPS   C28 8994   3.103   1.769   7.347  0.4814 -0.3833 -0.2552
   92SAPS   H8R 8995   3.124   1.708   7.258  0.1047 -1.2615  0.2525
   92SAPS   C29 8996   3.169   1.746   7.455  0.4587 -0.5271  0.3525
   92SAPS   H9R 8997   3.245   1.667   7.442 -2.1815 -3.0121 -1.5053
   92SAPS  C210 8998   3.149   1.814   7.587 -0.2576  0.4667 -1.1357
   92SAPS  H10R 8999   3.167   1.742   7.669  1.0526 -0.1805 -1.9613
   92SAPS  H10S 9000   3.042   1.842   7.601  0.3713  2.1559  0.6938
   92SAPS  C211 9001   3.223   1.947   7.607  0.1030  0.5249  0.0784
   92SAPS  H11R 9002   3.252   2.008   7.521  0.6220 -1.3534 -1.1506
   92SAPS  C212 9003   3.237   2.003   7.727 -0.0506  0.3963 -0.4039
   92SAPS  H12R 9004   3.294   2.096   7.723  0.2284  0.3439  1.6912
   92SAPS  C213 9005   3.195   1.965   7.869 -0.0940  0.4831 -0.1026
   92SAPS  H13R 9006   3.274   1.895   7.906  1.0281  1.5957 -0.3330
   92SAPS  H13S 9007   3.104   1.901   7.860 -1.3459  2.2976 -0.8728
   92SAPS  C214 9008   3.169   2.079   7.960  0.4064 -0.4050 -1.3907
   92SAPS  H14R 9009   3.190   2.179   7.919  2.9802 -0.1721  0.2441
   92SAPS  C215 9010   3.136   2.055   8.089 -0.5828 -0.3963 -0.6064
   92SAPS  H15R 9011   3.119   2.134   8.164  1.6259 -0.0236 -0.4346
   92SAPS  C216 9012   3.126   1.915   8.150 -0.6037 -0.1714 -0.0308
   92SAPS  H16R 9013   3.103   1.845   8.068  1.4743 -0.6331 -0.2569
   92SAPS  H16S 9014   3.046   1.911   8.228 -0.6066 -0.7574 -0.0645
   92SAPS  C217 9015   3.260   1.880   8.218  0.4101 -0.4747 -0.7711
   92SAPS  H17R 9016   3.265   1.926   8.319 -0.5423 -0.3674 -0.7678
   92SAPS  H17S 9017   3.342   1.927   8.160  0.4900  4.1412  2.5811
   92SAPS  C218 9018   3.282   1.732   8.217  0.1781 -0.0935  0.1219
   92SAPS  H18R 9019   3.296   1.708   8.110  2.8864  2.1984 -0.1377
   92SAPS  H18S 9020   3.197   1.674   8.261  0.4045 -0.2249  0.3908
   92SAPS  C219 9021   3.421   1.697   8.271 -0.3438  0.3305  0.0551
   92SAPS  H19R 9022   3.425   1.737   8.375 -1.9583  0.8026 -0.0328
   92SAPS  H19S 9023   3.495   1.744   8.203  0.5413 -1.0528  0.0354
   92SAPS  C220 9024   3.434   1.549   8.276 -0.4135  0.1375 -0.6241
   92SAPS  H20R 9025   3.345   1.507   8.327  1.5667 -0.2131  2.8308
   92SAPS  H20S 9026   3.529   1.526   8.328  0.6755 -0.8982 -2.9157
   92SAPS  H20T 9027   3.445   1.503   8.176 -0.2024 -0.5097 -0.3052
   92SAPS   C33 9028   2.266   1.329   7.089 -0.1611  0.2906  0.1562
   92SAPS   H3X 9029   2.364   1.283   7.064 -0.3686 -1.2126  1.9277
   92SAPS   H3Y 9030   2.188   1.286   7.023  0.9221 -0.1311 -0.8918
   92SAPS   C34 9031   2.226   1.288   7.229  0.3081 -0.6364  0.4863
   92SAPS   H4X 9032   2.314   1.323   7.287  0.9318 -0.1045 -0.7302
   92SAPS   H4Y 9033   2.221   1.178   7.243  0.2619 -0.7511 -0.3453
   92SAPS   C35 9034   2.093   1.341   7.287  0.6661  0.4187 -0.0556
   92SAPS   H5X 9035   2.008   1.319   7.220  1.2700  0.9956 -1.0335
   92SAPS   H5Y 9036   2.101   1.452   7.294  0.8258  0.3517  1.0885
   92SAPS   C36 9037   2.051   1.284   7.430 -0.2815  0.6358 -0.4344
   92SAPS   H6X 9038   2.023   1.177   7.427  0.1385  0.5396 -1.2371
   92SAPS   H6Y 9039   1.961   1.343   7.456 -1.8725 -0.6267 -2.7465
   92SAPS   C37 9040   2.151   1.324   7.533 -0.4400  0.8779 -0.1914
   92SAPS   H7X 9041   2.171   1.430   7.506  2.7230  0.1641 -0.9584
   92SAPS   H7Y 9042   2.239   1.259   7.515 -0.9442 -0.0411  0.5848
   92SAPS   C38 9043   2.103   1.323   7.678 -0.3695 -0.1288 -0.3303
   92SAPS   H8X 9044   2.055   1.230   7.716 -3.4415  0.7123 -1.8698
   92SAPS   H8Y 9045   2.013   1.386   7.691 -0.6413 -0.2586 -1.4374
   92SAPS   C39 9046   2.215   1.376   7.774 -0.1085  0.1583 -0.2972
   92SAPS   H9X 9047   2.223   1.484   7.752 -2.6423  0.6048  0.6043
   92SAPS   H9Y 9048   2.308   1.327   7.741 -0.4653 -1.5288  1.0448
   92SAPS  C310 9049   2.189   1.363   7.924  0.0004 -0.1170  0.7316
   92SAPS  H10X 9050   2.169   1.255   7.943 -1.6523  0.0369  0.0548
   92SAPS  H10Y 9051   2.099   1.426   7.932  0.6731  1.1933 -1.2637
   92SAPS  C311 9052   2.306   1.408   8.012  0.0916  0.0238 -0.3242
   92SAPS  H11X 9053   2.273   1.411   8.118 -1.3244 -0.3641 -0.7357
   92SAPS  H11Y 9054   2.331   1.514   7.988 -2.0764  0.8220  0.6698
   92SAPS  C312 9055   2.428   1.313   8.006 -0.5760  0.4087 -0.1505
   92SAPS  H12X 9056   2.450   1.297   7.898  0.1065 -0.0767  0.0576
   92SAPS  H12Y 9057   2.388   1.216   8.041  0.2588  0.8640  2.2312
   92SAPS  C313 9058   2.556   1.349   8.090 -0.0261 -0.9448  1.0602
   92SAPS  H13X 9059   2.547   1.373   8.198 -0.7290 -0.1433  0.8331
   92SAPS  H13Y 9060   2.604   1.438   8.045 -1.2481 -0.5335  0.5217
   92SAPS  C314 9061   2.656   1.238   8.088 -0.7705  0.8190 -0.0623
   92SAPS  H14X 9062   2.756   1.282   8.106  1.6969 -4.0870 -0.1581
   92SAPS  H14Y 9063   2.659   1.195   7.986  1.4516  1.2843 -0.2473
   92SAPS  C315 9064   2.624   1.127   8.189 -0.2864  0.5556  0.0514
   92SAPS  H15X 9065   2.532   1.077   8.152 -0.5092 -1.0250  2.4661
   92SAPS  H15Y 9066   2.594   1.169   8.288  0.3062  1.9236 -0.3202
   92SAPS  C316 9067   2.739   1.027   8.193  0.2139  0.3008  0.3565
   92SAPS  H16X 9068   2.830   1.084   8.223  0.3690  0.0087  0.4410
   92SAPS  H16Y 9069   2.744   0.988   8.088 -2.5106  0.6935  0.0271
   92SAPS  C317 9070   2.713   0.906   8.288  0.8958  0.4395 -0.1117
   92SAPS  H17X 9071   2.611   0.865   8.270  0.3803  1.1862  0.9710
   92SAPS  H17Y 9072   2.712   0.935   8.395 -1.7633  0.7986 -0.1524
   92SAPS  C318 9073   2.800   0.788   8.262  0.2661  0.2389 -0.3066
   92SAPS  H18X 9074   2.820   0.782   8.152  1.0581  1.1005 -0.2105
   92SAPS  H18Y 9075   2.764   0.690   8.301 -1.4918 -0.0838 -2.4654
   92SAPS  H18Z 9076   2.900   0.799   8.307 -0.7603  0.2162  2.1174
   93SAPS     N 9077   3.200   1.624   6.087  0.1369 -0.3324  0.0944
   93SAPS   HN1 9078   3.197   1.621   5.983  1.0478  2.1434 -0.0912
   93SAPS   HN2 9079   3.285   1.575   6.122  0.6176 -0.7211 -1.5553
   93SAPS   HN3 9080   3.116   1.577   6.127  1.5800 -0.9841  2.5812
   93SAPS   C12 9081   3.213   1.770   6.142 -0.3824 -0.3907  0.9991
   93SAPS  H12A 9082   3.294   1.815   6.085 -2.6876  0.1692 -2.0796
   93SAPS   C13 9083   3.093   1.852   6.102 -0.0680  0.4186  0.2516
   93SAPS  O13A 9084   3.000   1.806   6.032 -0.2969  0.7066  0.6735
   93SAPS  O13B 9085   3.087   1.975   6.134  0.0766  0.1002  0.0181
   93SAPS   C11 9086   3.248   1.776   6.291  0.7457  0.1284 -0.0063
   93SAPS  H11A 9087   3.157   1.737   6.342  0.8933 -0.1825  0.0219
   93SAPS  H11B 9088   3.254   1.878   6.334 -2.1214  1.7550 -2.9850
   93SAPS     P 9089   3.471   1.742   6.409 -0.6345 -0.1111 -0.2559
   93SAPS   O13 9090   3.565   1.627   6.417  0.2756  0.4119 -0.0061
   93SAPS   O14 9091   3.534   1.867   6.354  0.2410 -0.0232 -0.4054
   93SAPS   O12 9092   3.357   1.690   6.318  0.1786  0.0643  0.5289
   93SAPS   O11 9093   3.398   1.765   6.544  0.6551 -0.9891  0.2140
   93SAPS    C1 9094   3.331   1.670   6.621  0.3891  0.0837  0.2046
   93SAPS    HA 9095   3.227   1.704   6.640 -0.7692 -2.1601 -1.6540
   93SAPS    HB 9096   3.305   1.581   6.560  5.1729 -1.1883 -0.3644
   93SAPS    C2 9097   3.389   1.633   6.758  0.0250 -0.2240  0.0147
   93SAPS    HS 9098   3.310   1.574   6.809 -0.9871  1.6734  0.7553
   93SAPS   O21 9099   3.416   1.759   6.836 -0.4082  0.6968 -0.1276
   93SAPS   C21 9100   3.309   1.812   6.882 -0.6215  0.1510  0.2842
   93SAPS   O22 9101   3.196   1.770   6.870  0.4623 -0.1001  0.3513
   93SAPS   C22 9102   3.341   1.940   6.962 -0.4299  0.3281 -0.2007
   93SAPS   H2R 9103   3.271   1.934   7.047 -1.2309 -0.5901 -0.9111
   93SAPS   H2S 9104   3.448   1.932   6.992 -0.6381  0.3771  0.5558
   93SAPS    C3 9105   3.525   1.558   6.740 -0.0833 -0.3431  0.0476
   93SAPS    HX 9106   3.601   1.635   6.714  0.9603 -1.2603  0.3213
   93SAPS    HY 9107   3.518   1.491   6.652  1.6293  3.0776 -2.9622
   93SAPS   O31 9108   3.571   1.507   6.862 -0.4416  0.5564 -0.5244
   93SAPS   C31 9109   3.699   1.466   6.857 -0.5984 -0.1439 -0.6807
   93SAPS   O32 9110   3.766   1.458   6.758 -0.5425 -0.0359 -0.1521
   93SAPS   C32 9111   3.742   1.437   7.002 -0.4690 -0.0886  0.0872
   93SAPS   H2X 9112   3.695   1.342   7.034 -0.7664 -0.3172 -1.0066
   93SAPS   H2Y 9113   3.716   1.528   7.060 -0.7872 -2.1615  3.4883
   93SAPS   C23 9114   3.333   2.072   6.877  0.0914  0.0300 -0.0858
   93SAPS   H3R 9115   3.227   2.095   6.854  0.6555  1.7375 -1.2227
   93SAPS   H3S 9116   3.399   2.052   6.789  1.8177  2.3647  0.5665
   93SAPS   C24 9117   3.401   2.197   6.954 -0.2980 -0.5188  0.3600
   93SAPS   H4R 9118   3.510   2.179   6.967  0.4266  2.6250 -0.5237
   93SAPS   H4S 9119   3.355   2.201   7.055 -0.0940 -0.3036  0.4455
   93SAPS   C25 9120   3.370   2.316   6.861 -0.4141 -0.8232  1.0376
   93SAPS   H5R 9121   3.409   2.309   6.759  1.5906 -1.3242  1.7737
   93SAPS   C26 9122   3.295   2.427   6.889 -0.4015 -0.0600  0.1515
   93SAPS   H6R 9123   3.298   2.503   6.810  3.1590  0.3707  0.5312
   93SAPS   C27 9124   3.222   2.463   7.018  0.0167 -0.1288 -0.6645
   93SAPS   H7R 9125   3.177   2.564   7.022 -1.3949 -0.7627  0.9724
   93SAPS   H7S 9126   3.292   2.467   7.104 -3.4392  0.5962  2.4014
   93SAPS   C28 9127   3.114   2.370   7.055 -0.0284  0.1809  0.6407
   93SAPS   H8R 9128   3.062   2.331   6.966 -0.2565  1.4868  0.1748
   93SAPS   C29 9129   3.061   2.344   7.176 -0.8242  0.0261 -0.1158
   93SAPS   H9R 9130   2.986   2.264   7.187 -1.8529  0.6027 -2.3052
   93SAPS  C210 9131   3.109   2.412   7.309  0.7184 -0.1703  0.5926
   93SAPS  H10R 9132   3.020   2.408   7.376 -0.6108 -2.5846 -1.1278
   93SAPS  H10S 9133   3.134   2.520   7.301  0.8245 -0.3225 -2.8250
   93SAPS  C211 9134   3.235   2.351   7.352 -0.0831 -0.0426  0.1451
   93SAPS  H11R 9135   3.310   2.335   7.274  2.6850  0.9448  2.4089
   93SAPS  C212 9136   3.267   2.319   7.477  0.2225 -0.2569  0.2433
   93SAPS  H12R 9137   3.371   2.287   7.493  0.4810  0.7050  0.5703
   93SAPS  C213 9138   3.179   2.333   7.600  0.7050 -0.1476 -0.2469
   93SAPS  H13R 9139   3.228   2.289   7.689  2.6068  0.8026 -0.7822
   93SAPS  H13S 9140   3.085   2.274   7.587 -0.1100  1.3295 -1.3331
   93SAPS  C214 9141   3.147   2.476   7.628 -0.1063 -0.0763  0.4521
   93SAPS  H14R 9142   3.170   2.550   7.550  0.4773  0.1049  0.7945
   93SAPS  C215 9143   3.097   2.526   7.741  0.0067  0.3857  0.4180
   93SAPS  H15R 9144   3.082   2.635   7.750 -3.8440 -0.1620  2.9396
   93SAPS  C216 9145   3.059   2.458   7.872 -0.6456  1.1171 -0.3436
   93SAPS  H16R 9146   3.045   2.348   7.870  3.2791  0.4072  1.6492
   93SAPS  H16S 9147   2.963   2.504   7.904 -1.5175 -0.2138 -0.9589
   93SAPS  C217 9148   3.163   2.493   7.987 -0.2041  0.0989 -0.3203
   93SAPS  H17R 9149   3.129   2.452   8.084  2.4911  0.7642  1.0055
   93SAPS  H17S 9150   3.161   2.604   7.991 -0.3237  0.0564  3.3326
   93SAPS  C218 9151   3.312   2.458   7.952  0.1091  0.4916 -0.0982
   93SAPS  H18R 9152   3.340   2.530   7.872 -0.2992  0.1861 -0.5152
   93SAPS  H18S 9153   3.331   2.364   7.897 -0.4863  1.2911 -1.7285
   93SAPS  C219 9154   3.408   2.456   8.063  0.2233  1.6151  0.3507
   93SAPS  H19R 9155   3.407   2.555   8.114  0.4353  0.8420  1.8917
   93SAPS  H19S 9156   3.512   2.447   8.024  0.4064  1.2307  0.9192
   93SAPS  C220 9157   3.390   2.339   8.168  0.0516  0.3749 -0.6588
   93SAPS  H20R 9158   3.447   2.347   8.263 -1.2281 -0.8263  0.2535
   93SAPS  H20S 9159   3.397   2.235   8.129 -2.2611 -0.4870  1.0476
   93SAPS  H20T 9160   3.283   2.347   8.196 -0.2509  1.5008 -1.9810
   93SAPS   C33 9161   3.890   1.401   7.020 -0.3695 -0.0246  0.4890
   93SAPS   H3X 9162   3.950   1.495   7.022 -1.4054  0.7192 -1.0075
   93SAPS   H3Y 9163   3.923   1.353   6.925 -1.7202  1.6488 -0.8975
   93SAPS   C34 9164   3.921   1.302   7.138  0.3974 -0.5513 -0.8138
   93SAPS   H4X 9165   4.032   1.302   7.144  0.3747 -0.3687 -0.3432
   93SAPS   H4Y 9166   3.887   1.204   7.098  0.0260 -1.2334  1.0853
   93SAPS   C35 9167   3.859   1.335   7.280  0.2256  0.2875 -0.3306
   93SAPS   H5X 9168   3.749   1.330   7.267  0.2262 -0.5390 -0.1120
   93SAPS   H5Y 9169   3.875   1.442   7.305  1.7780 -0.3670  1.7112
   93SAPS   C36 9170   3.905   1.243   7.390  0.4435 -0.0114  0.1468
   93SAPS   H6X 9171   4.008   1.272   7.417  0.4841  0.4662 -0.4802
   93SAPS   H6Y 9172   3.899   1.141   7.345  2.5487 -0.2675  0.3734
   93SAPS   C37 9173   3.817   1.274   7.512  0.3008  0.7307 -0.2890
   93SAPS   H7X 9174   3.716   1.261   7.468  0.9729  0.9641 -2.0029
   93SAPS   H7Y 9175   3.834   1.381   7.533 -0.8121  0.6301  1.2138
   93SAPS   C38 9176   3.836   1.183   7.631 -0.2589 -0.1284  1.1987
   93SAPS   H8X 9177   3.947   1.182   7.643  0.2712 -0.4955 -2.5981
   93SAPS   H8Y 9178   3.812   1.078   7.606  1.4429 -0.0753 -0.9075
   93SAPS   C39 9179   3.758   1.234   7.752 -0.4151  0.5239 -0.6131
   93SAPS   H9X 9180   3.650   1.222   7.728 -0.1687 -1.2009 -1.0048
   93SAPS   H9Y 9181   3.779   1.340   7.776 -2.6750  1.3797 -2.0857
   93SAPS  C310 9182   3.793   1.158   7.885  0.1173  0.2826  0.4702
   93SAPS  H10X 9183   3.894   1.194   7.914  0.0260  0.5467  0.4565
   93SAPS  H10Y 9184   3.809   1.048   7.880  1.2675  0.3846  1.5056
   93SAPS  C311 9185   3.699   1.193   8.007  0.6419  0.0070 -0.0284
   93SAPS  H11X 9186   3.631   1.107   8.027 -0.9451  1.2649  0.1341
   93SAPS  H11Y 9187   3.638   1.282   7.983 -1.1145 -1.0574  0.3005
   93SAPS  C312 9188   3.777   1.216   8.137  0.0120 -0.1653  0.2266
   93SAPS  H12X 9189   3.862   1.285   8.119 -0.3384  0.4234  0.7967
   93SAPS  H12Y 9190   3.827   1.122   8.170  0.3377 -0.5066 -1.1688
   93SAPS  C313 9191   3.688   1.270   8.252  0.1590 -0.7407  0.4815
   93SAPS  H13X 9192   3.632   1.361   8.222  3.2915  0.7957 -1.1823
   93SAPS  H13Y 9193   3.754   1.316   8.329  0.7426 -0.9860  0.1330
   93SAPS  C314 9194   3.595   1.164   8.313 -0.1975  0.9646 -0.3131
   93SAPS  H14X 9195   3.651   1.068   8.314 -3.2391 -0.9946 -1.2606
   93SAPS  H14Y 9196   3.502   1.138   8.258 -0.5488  1.2335  0.1409
   93SAPS  C315 9197   3.554   1.202   8.451 -0.1085  0.8144 -0.0344
   93SAPS  H15X 9198   3.514   1.306   8.455 -2.7696 -0.0187 -2.0814
   93SAPS  H15Y 9199   3.646   1.199   8.513 -1.7198 -1.3385  2.5103
   93SAPS  C316 9200   3.446   1.113   8.518  0.6933 -0.3461  0.5795
   93SAPS  H16X 9201   3.343   1.135   8.484  1.2296 -0.0829 -0.9356
   93SAPS  H16Y 9202   3.441   1.137   8.627 -1.5970 -1.5413  0.7925
   93SAPS  C317 9203   3.464   0.953   8.518 -0.5712  0.4178 -0.4737
   93SAPS  H17X 9204   3.567   0.944   8.558 -0.1713  0.6962 -1.4171
   93SAPS  H17Y 9205   3.477   0.909   8.417  1.3768 -0.2292  0.0120
   93SAPS  C318 9206   3.364   0.878   8.600 -0.2409  0.0584 -0.0211
   93SAPS  H18X 9207   3.406   0.780   8.632 -0.9268  0.1981  1.3698
   93SAPS  H18Y 9208   3.265   0.861   8.552 -1.3931  0.3889  2.1086
   93SAPS  H18Z 9209   3.350   0.939   8.691  2.2224  1.4784 -0.4947
   94SAPS     N 9210   3.712   4.301   5.666  0.4757 -0.2641 -0.3303
   94SAPS   HN1 9211   3.634   4.288   5.733  0.7289 -1.4144 -0.2395
   94SAPS   HN2 9212   3.752   4.206   5.653  1.3748  0.0018  0.4048
   94SAPS   HN3 9213   3.778   4.360   5.720 -1.1112  0.6664  0.6456
   94SAPS   C12 9214   3.638   4.364   5.553 -0.4523 -0.1014 -0.4081
   94SAPS  H12A 9215   3.671   4.466   5.537 -4.0311  1.2171 -0.2747
   94SAPS   C13 9216   3.641   4.286   5.413 -0.0276  0.3013 -0.4816
   94SAPS  O13A 9217   3.699   4.172   5.413  0.2783 -0.9159  0.1389
   94SAPS  O13B 9218   3.573   4.317   5.312  0.6578  0.5948 -0.2817
   94SAPS   C11 9219   3.492   4.392   5.587  0.2777 -0.2605 -0.8337
   94SAPS  H11A 9220   3.431   4.302   5.611 -1.5248  1.1148 -0.0271
   94SAPS  H11B 9221   3.433   4.440   5.506 -1.8141  2.7335  2.2304
   94SAPS     P 9222   3.442   4.452   5.834 -0.2903  0.0261  0.0468
   94SAPS   O13 9223   3.482   4.566   5.921  0.2257 -0.5602  0.0660
   94SAPS   O14 9224   3.296   4.418   5.839  0.0168  0.4930  0.8694
   94SAPS   O12 9225   3.474   4.487   5.693 -0.4291 -0.3920  0.2617
   94SAPS   O11 9226   3.535   4.327   5.866 -0.0842  0.5257  0.7229
   94SAPS    C1 9227   3.499   4.230   5.964 -0.9522 -0.2097  0.4497
   94SAPS    HA 9228   3.392   4.201   5.960 -0.2758 -2.7647 -1.4112
   94SAPS    HB 9229   3.558   4.140   5.938  0.3811  0.8191 -0.2233
   94SAPS    C2 9230   3.549   4.264   6.107 -0.1843 -0.1830  0.0852
   94SAPS    HS 9231   3.473   4.331   6.152 -0.3997 -1.0503  1.0689
   94SAPS   O21 9232   3.686   4.315   6.103  0.4298 -0.1075  0.2790
   94SAPS   C21 9233   3.711   4.421   6.182  0.0984  0.1985  0.0574
   94SAPS   O22 9234   3.628   4.476   6.258 -0.7364  0.2633  0.5247
   94SAPS   C22 9235   3.861   4.470   6.158 -0.7857  0.1860 -0.0866
   94SAPS   H2R 9236   3.925   4.380   6.163 -0.0334  0.4443 -2.9770
   94SAPS   H2S 9237   3.868   4.502   6.052 -0.1318 -1.2571 -0.5002
   94SAPS    C3 9238   3.555   4.129   6.185  0.3171 -0.1378  0.4927
   94SAPS    HX 9239   3.618   4.061   6.124 -1.1093  0.4839 -1.8222
   94SAPS    HY 9240   3.453   4.086   6.184 -0.5482  1.4469 -3.9670
   94SAPS   O31 9241   3.612   4.156   6.316  0.6520  0.6112  0.2271
   94SAPS   C31 9242   3.527   4.165   6.416  0.3419  0.0113  0.2198
   94SAPS   O32 9243   3.407   4.167   6.421 -0.7539 -0.0333  0.0528
   94SAPS   C32 9244   3.621   4.205   6.536 -0.3358 -0.1843  0.4556
   94SAPS   H2X 9245   3.638   4.310   6.506  0.4322 -0.4900 -0.2115
   94SAPS   H2Y 9246   3.710   4.139   6.537  0.5036  0.8550 -1.4055
   94SAPS   C23 9247   3.914   4.584   6.257 -0.7539  0.1743  0.1803
   94SAPS   H3R 9248   3.832   4.659   6.262 -0.9218 -0.0376  0.6146
   94SAPS   H3S 9249   4.001   4.637   6.213 -0.1771  0.0862  1.2038
   94SAPS   C24 9250   3.959   4.543   6.396 -0.7972 -0.0557  0.4848
   94SAPS   H4R 9251   3.868   4.508   6.449 -1.2963 -2.2155 -1.6120
   94SAPS   H4S 9252   3.997   4.627   6.457 -2.7726  0.5999  0.8856
   94SAPS   C25 9253   4.060   4.434   6.380 -0.2899  0.3887  0.2661
   94SAPS   H5R 9254   4.145   4.454   6.313 -0.9850 -0.3036 -0.8497
   94SAPS   C26 9255   4.056   4.316   6.449  0.0114  1.1382  0.5181
   94SAPS   H6R 9256   4.132   4.242   6.422  1.9867  3.4485 -0.7068
   94SAPS   C27 9257   3.960   4.270   6.549 -0.1021  0.6498 -0.9673
   94SAPS   H7R 9258   3.876   4.240   6.483  1.6481 -0.8579 -2.6597
   94SAPS   H7S 9259   3.925   4.340   6.627 -0.4103 -1.0327  0.4768
   94SAPS   C28 9260   4.006   4.140   6.619 -0.2890 -0.4072  0.1140
   94SAPS   H8R 9261   4.039   4.056   6.556  2.1728 -0.2215  1.0520
   94SAPS   C29 9262   4.023   4.127   6.755 -0.3507 -0.4453 -0.5827
   94SAPS   H9R 9263   4.055   4.032   6.800  2.0261  1.2153  1.6087
   94SAPS  C210 9264   3.976   4.234   6.854 -0.3611  0.2875 -0.4475
   94SAPS  H10R 9265   3.866   4.233   6.845 -0.5576  1.0048  1.3186
   94SAPS  H10S 9266   3.996   4.341   6.829 -0.6738  1.3386  3.2055
   94SAPS  C211 9267   4.026   4.203   6.991 -0.2403 -0.2356  0.3803
   94SAPS  H11R 9268   4.119   4.252   7.022  1.1347 -1.6434 -1.3154
   94SAPS  C212 9269   3.964   4.130   7.090 -0.4009  0.3856  0.0153
   94SAPS  H12R 9270   4.014   4.119   7.187  1.4191 -2.1514 -1.1088
   94SAPS  C213 9271   3.831   4.065   7.079  0.5991  0.7161 -0.0941
   94SAPS  H13R 9272   3.820   4.013   6.981 -0.5350 -0.2992  0.5528
   94SAPS  H13S 9273   3.757   4.147   7.069 -3.2330 -2.2219  1.5401
   94SAPS  C214 9274   3.797   3.985   7.202  0.1617 -0.6443  0.2904
   94SAPS  H14R 9275   3.781   3.879   7.182  2.7808 -0.9732 -0.5090
   94SAPS  C215 9276   3.789   4.025   7.332 -0.2035  0.7613  0.7458
   94SAPS  H15R 9277   3.766   3.942   7.401  1.1490 -0.9118 -0.7055
   94SAPS  C216 9278   3.817   4.158   7.394 -0.1417 -0.5989 -0.1097
   94SAPS  H16R 9279   3.723   4.208   7.423 -0.6899 -2.1879  1.0026
   94SAPS  H16S 9280   3.869   4.228   7.324 -0.2203  1.1434  1.5033
   94SAPS  C217 9281   3.910   4.149   7.517  1.0088 -0.2105  0.5017
   94SAPS  H17R 9282   3.941   4.254   7.539 -1.6190  0.6549  0.3807
   94SAPS  H17S 9283   3.998   4.093   7.478  3.2933  2.6451  1.1255
   94SAPS  C218 9284   3.839   4.085   7.630 -0.4961 -0.3295  0.5296
   94SAPS  H18R 9285   3.794   3.992   7.589  0.0528  0.4756 -2.1515
   94SAPS  H18S 9286   3.753   4.153   7.650  1.5465  1.5481  3.8684
   94SAPS  C219 9287   3.937   4.049   7.740  0.5556 -0.3635  0.3557
   94SAPS  H19R 9288   3.986   4.140   7.781 -1.8177  1.4506 -0.6052
   94SAPS  H19S 9289   4.024   3.996   7.694 -0.1251 -0.5967 -0.6997
   94SAPS  C220 9290   3.876   3.962   7.848 -0.4516 -0.1327 -0.2373
   94SAPS  H20R 9291   3.840   4.021   7.935 -0.2770 -1.1539  0.5512
   94SAPS  H20S 9292   3.948   3.892   7.897  1.2477  0.8243 -1.2593
   94SAPS  H20T 9293   3.800   3.899   7.798  1.7148 -1.1898 -2.4235
   94SAPS   C33 9294   3.546   4.212   6.672  0.0544 -0.8353  0.1996
   94SAPS   H3X 9295   3.439   4.240   6.664  0.0755 -1.0600 -0.9853
   94SAPS   H3Y 9296   3.592   4.282   6.746 -1.3762 -0.3304  0.6509
   94SAPS   C34 9297   3.532   4.083   6.751  0.0338 -0.1733 -0.0966
   94SAPS   H4X 9298   3.630   4.032   6.768  0.5590  1.1393  0.9199
   94SAPS   H4Y 9299   3.464   4.016   6.694 -0.8923 -2.6874  3.6298
   94SAPS   C35 9300   3.461   4.099   6.886 -0.2869  0.5089  0.0716
   94SAPS   H5X 9301   3.355   4.130   6.871 -0.4344 -0.3293 -0.6903
   94SAPS   H5Y 9302   3.507   4.175   6.953 -1.8120  1.1365  0.4397
   94SAPS   C36 9303   3.480   3.968   6.964  0.7061  0.3399 -0.2122
   94SAPS   H6X 9304   3.589   3.944   6.962  0.4422 -1.1543  1.2854
   94SAPS   H6Y 9305   3.432   3.883   6.911 -0.3150  1.5076 -1.2035
   94SAPS   C37 9306   3.422   3.970   7.106 -0.3053  0.4477 -0.8059
   94SAPS   H7X 9307   3.316   4.004   7.105 -1.6519 -3.2249  0.4166
   94SAPS   H7Y 9308   3.486   4.033   7.170 -0.5839  1.5357 -1.5712
   94SAPS   C38 9309   3.420   3.829   7.164  0.3812 -0.0429  0.5261
   94SAPS   H8X 9310   3.524   3.804   7.194 -0.7766 -0.7471  4.6659
   94SAPS   H8Y 9311   3.381   3.749   7.096 -3.2031  1.7716  0.2305
   94SAPS   C39 9312   3.334   3.813   7.289 -0.2795 -0.3494 -0.4288
   94SAPS   H9X 9313   3.317   3.706   7.314 -1.3156 -0.4619 -1.5120
   94SAPS   H9Y 9314   3.234   3.851   7.259  0.7312  1.2978 -1.9283
   94SAPS  C310 9315   3.395   3.895   7.409 -0.1357 -0.3889  0.6385
   94SAPS  H10X 9316   3.409   4.001   7.382 -0.5221 -0.4522  0.1831
   94SAPS  H10Y 9317   3.495   3.849   7.426 -0.4197 -1.4454 -0.4351
   94SAPS  C311 9318   3.315   3.894   7.537 -0.0068  0.5199 -0.1008
   94SAPS  H11X 9319   3.309   3.787   7.568 -0.4199  0.3625 -0.7010
   94SAPS  H11Y 9320   3.212   3.929   7.516 -0.1442  1.2825  1.6428
   94SAPS  C312 9321   3.352   3.995   7.654 -0.1806  0.4074 -0.4083
   94SAPS  H12X 9322   3.261   4.050   7.686 -1.3131 -0.3955 -2.1329
   94SAPS  H12Y 9323   3.424   4.066   7.609  0.7828 -0.4939 -0.3460
   94SAPS  C313 9324   3.425   3.918   7.764  0.0089 -0.1062 -0.5995
   94SAPS  H13X 9325   3.516   3.872   7.719 -0.5245 -1.0665 -0.7248
   94SAPS  H13Y 9326   3.358   3.836   7.799  0.2817 -0.6875 -1.4032
   94SAPS  C314 9327   3.483   4.005   7.880  0.5093  0.8940  0.2019
   94SAPS  H14X 9328   3.399   4.059   7.930 -3.0310 -2.1805 -1.9264
   94SAPS  H14Y 9329   3.554   4.076   7.833  0.6764  1.6745  1.5714
   94SAPS  C315 9330   3.539   3.908   7.987 -0.4406  0.1253 -0.8789
   94SAPS  H15X 9331   3.613   3.839   7.941 -1.8241 -0.8398 -1.7336
   94SAPS  H15Y 9332   3.456   3.840   8.018 -1.2677  1.3371 -0.3789
   94SAPS  C316 9333   3.585   3.976   8.119  0.1803  0.3443 -0.5522
   94SAPS  H16X 9334   3.682   4.027   8.099  0.6867 -0.7204 -0.8716
   94SAPS  H16Y 9335   3.611   3.885   8.177  1.4559  0.2405 -1.2431
   94SAPS  C317 9336   3.493   4.060   8.197  0.7479 -0.6861 -0.2485
   94SAPS  H17X 9337   3.431   4.132   8.140  1.1048 -1.2165 -1.3466
   94SAPS  H17Y 9338   3.553   4.115   8.272 -0.3962 -1.7804  1.5190
   94SAPS  C318 9339   3.384   3.977   8.275  0.2424 -0.1337 -0.1559
   94SAPS  H18X 9340   3.309   3.917   8.219 -2.5375  0.6189  2.4678
   94SAPS  H18Y 9341   3.328   4.049   8.338 -0.3967 -0.4881 -0.3108
   94SAPS  H18Z 9342   3.443   3.920   8.351  1.3518 -0.1088 -0.9719
   95SAPS     N 9343   0.403   1.803   6.373  0.1917  0.4942  0.4394
   95SAPS   HN1 9344   0.387   1.728   6.303  1.1842 -0.0553  0.7783
   95SAPS   HN2 9345   0.499   1.780   6.407  0.6655  0.3595 -0.9526
   95SAPS   HN3 9346   0.320   1.779   6.432  0.3288 -1.5260 -0.0854
   95SAPS   C12 9347   0.383   1.938   6.303  0.1091  0.0961 -0.5602
   95SAPS  H12A 9348   0.406   2.009   6.381  1.0250  0.2776 -0.9901
   95SAPS   C13 9349   0.492   1.956   6.197  0.3912  0.2478  0.6226
   95SAPS  O13A 9350   0.582   1.863   6.186  0.1535  0.4180 -0.2088
   95SAPS  O13B 9351   0.485   2.046   6.114  0.3587 -0.3245  0.0207
   95SAPS   C11 9352   0.242   1.955   6.248 -0.4063  0.2467 -0.2883
   95SAPS  H11A 9353   0.229   1.880   6.167 -1.0098 -0.2013  0.2173
   95SAPS  H11B 9354   0.258   2.058   6.209 -0.5656 -0.4938 -2.4709
   95SAPS     P 9355   0.038   2.035   6.400  0.0207  0.6413  0.6950
   95SAPS   O13 9356   0.079   2.171   6.363  0.2216  0.3134 -0.1745
   95SAPS   O14 9357  -0.098   1.992   6.361 -0.4965  0.7069  0.1262
   95SAPS   O12 9358   0.150   1.933   6.353 -0.3078 -0.0988  0.2740
   95SAPS   O11 9359   0.048   2.015   6.556  0.0885  0.4751 -0.5192
   95SAPS    C1 9360   0.175   2.054   6.616 -0.0368  0.3358  0.3030
   95SAPS    HA 9361   0.264   2.020   6.558  0.5470  0.3061  1.2002
   95SAPS    HB 9362   0.175   2.164   6.631  1.5287  0.2904  0.8932
   95SAPS    C2 9363   0.213   1.991   6.752  0.2378 -0.3668  0.1148
   95SAPS    HS 9364   0.303   2.041   6.792  1.3741 -3.6175  2.0188
   95SAPS   O21 9365   0.237   1.850   6.740  0.0400  0.6174  0.0840
   95SAPS   C21 9366   0.284   1.801   6.845  0.6369  0.1602 -0.5498
   95SAPS   O22 9367   0.297   1.862   6.953 -0.5756  0.3505 -0.3754
   95SAPS   C22 9368   0.332   1.660   6.822  0.4348 -0.4090  0.3824
   95SAPS   H2R 9369   0.290   1.626   6.725 -0.2460  2.8340 -0.6080
   95SAPS   H2S 9370   0.442   1.651   6.810  0.2915 -0.9158 -0.6887
   95SAPS    C3 9371   0.096   2.027   6.854 -0.0658  0.3044 -0.1361
   95SAPS    HX 9372   0.110   1.982   6.954 -2.6909  1.0324  0.6257
   95SAPS    HY 9373   0.009   1.968   6.817  0.9961 -0.8495 -0.8886
   95SAPS   O31 9374   0.074   2.169   6.851 -0.1719 -0.2320  0.0302
   95SAPS   C31 9375  -0.046   2.204   6.909  1.1742  0.2625  0.4176
   95SAPS   O32 9376  -0.123   2.125   6.963 -0.3893  0.1485  0.3154
   95SAPS   C32 9377  -0.066   2.351   6.911 -0.1757  0.3278 -0.2028
   95SAPS   H2X 9378  -0.175   2.370   6.911 -0.1490  0.5001  0.3719
   95SAPS   H2Y 9379  -0.017   2.390   6.819 -0.8806 -0.5168 -0.9506
   95SAPS   C23 9380   0.286   1.565   6.941  0.0053  0.2751  0.2398
   95SAPS   H3R 9381   0.295   1.622   7.036 -0.8434  1.2961 -0.2733
   95SAPS   H3S 9382   0.350   1.474   6.951 -1.8721 -1.3939 -1.7319
   95SAPS   C24 9383   0.148   1.515   6.922  0.2708  0.3120 -0.3570
   95SAPS   H4R 9384   0.134   1.426   6.988  0.6970  1.1417  0.8993
   95SAPS   H4S 9385   0.129   1.472   6.821 -2.4502  1.7855 -0.5462
   95SAPS   C25 9386   0.039   1.619   6.941  0.8797 -0.2373 -0.3233
   95SAPS   H5R 9387  -0.005   1.661   6.850 -0.2288  0.7446  0.6251
   95SAPS   C26 9388  -0.008   1.675   7.056  0.2755  0.1104  0.0716
   95SAPS   H6R 9389  -0.088   1.749   7.054  1.3483  1.2982 -0.0239
   95SAPS   C27 9390   0.046   1.629   7.193  0.6775 -0.5743  0.3536
   95SAPS   H7R 9391   0.141   1.686   7.207  0.6788 -0.8388  1.5941
   95SAPS   H7S 9392   0.081   1.524   7.191 -1.3888 -1.2954 -0.1975
   95SAPS   C28 9393  -0.058   1.649   7.302 -0.2082 -0.5098 -0.4056
   95SAPS   H8R 9394  -0.151   1.593   7.291  0.1151 -0.7955 -1.8545
   95SAPS   C29 9395  -0.053   1.746   7.394 -0.2120 -0.4600 -0.5315
   95SAPS   H9R 9396  -0.145   1.749   7.453 -0.0357 -2.1402 -0.1152
   95SAPS  C210 9397   0.046   1.848   7.423  0.1503 -0.0591  0.2376
   95SAPS  H10R 9398  -0.024   1.931   7.446 -0.1491 -0.8340  2.3621
   95SAPS  H10S 9399   0.102   1.878   7.332  0.0180  0.5216  0.3431
   95SAPS  C211 9400   0.143   1.817   7.536  0.4342  0.3088  0.7751
   95SAPS  H11R 9401   0.248   1.801   7.507  0.9450  0.9717  2.1457
   95SAPS  C212 9402   0.121   1.830   7.664  0.2808 -0.0134 -0.8601
   95SAPS  H12R 9403   0.193   1.804   7.743  0.5864 -0.3201 -1.2383
   95SAPS  C213 9404  -0.021   1.855   7.724 -0.5543 -0.2379 -1.0269
   95SAPS  H13R 9405  -0.097   1.863   7.643 -2.7143  1.0815  0.9834
   95SAPS  H13S 9406  -0.021   1.953   7.776 -1.5893  0.8251 -2.9117
   95SAPS  C214 9407  -0.076   1.744   7.811 -0.3561  0.7045 -0.0919
   95SAPS  H14R 9408  -0.152   1.679   7.765  0.5334  1.4814 -2.8820
   95SAPS  C215 9409  -0.049   1.714   7.938  0.2792  0.6726  0.6529
   95SAPS  H15R 9410  -0.090   1.620   7.976 -0.5300  1.0683  0.7843
   95SAPS  C216 9411   0.056   1.784   8.026  0.3459  0.3204 -0.3749
   95SAPS  H16R 9412   0.111   1.864   7.972 -2.2992  2.0554 -0.7110
   95SAPS  H16S 9413   0.131   1.713   8.067  1.0783  0.8799 -0.7134
   95SAPS  C217 9414  -0.011   1.863   8.133  0.7312 -0.4429 -0.2986
   95SAPS  H17R 9415  -0.075   1.796   8.194 -1.3069  1.7821  0.1675
   95SAPS  H17S 9416  -0.075   1.946   8.095  0.4895 -0.9520 -1.0317
   95SAPS  C218 9417   0.083   1.924   8.246  0.1804  0.0152  0.1888
   95SAPS  H18R 9418   0.163   1.988   8.202  2.9348 -2.0772  1.8122
   95SAPS  H18S 9419   0.148   1.841   8.282 -1.0570 -0.4121  1.5161
   95SAPS  C219 9420   0.023   1.992   8.364 -0.3035 -0.2826 -0.5009
   95SAPS  H19R 9421   0.091   2.058   8.422 -0.2404 -1.4709  0.8200
   95SAPS  H19S 9422  -0.022   1.917   8.432  0.0582 -0.3799 -0.3634
   95SAPS  C220 9423  -0.101   2.079   8.329 -0.1387 -0.0684 -0.9934
   95SAPS  H20R 9424  -0.079   2.138   8.237 -1.5179  0.7723 -0.8009
   95SAPS  H20S 9425  -0.127   2.150   8.410  0.4721 -0.9459  0.0012
   95SAPS  H20T 9426  -0.191   2.015   8.315  0.4344 -1.8405  2.2165
   95SAPS   C33 9427  -0.001   2.411   7.036  0.1345  0.3143 -0.2366
   95SAPS   H3X 9428   0.004   2.522   7.025 -3.6579  0.6146 -0.0716
   95SAPS   H3Y 9429   0.103   2.379   7.059  0.7009  1.3277 -1.2481
   95SAPS   C34 9430  -0.075   2.399   7.168  0.3958  0.5561 -0.9575
   95SAPS   H4X 9431  -0.183   2.398   7.143  0.2930 -2.6992 -0.8392
   95SAPS   H4Y 9432  -0.044   2.487   7.229  0.0209 -0.6529  1.0729
   95SAPS   C35 9433  -0.043   2.274   7.243 -0.4290  0.1161 -0.4779
   95SAPS   H5X 9434   0.064   2.290   7.269 -0.2522  0.2036 -1.2411
   95SAPS   H5Y 9435  -0.062   2.186   7.178 -1.0239 -1.8663  2.2160
   95SAPS   C36 9436  -0.123   2.249   7.369 -0.3351  0.0558  0.1394
   95SAPS   H6X 9437  -0.100   2.149   7.411  2.0682  0.8808  0.9730
   95SAPS   H6Y 9438  -0.232   2.243   7.345 -0.4338 -0.4564  0.6751
   95SAPS   C37 9439  -0.104   2.346   7.487 -0.0935  0.4619 -0.3464
   95SAPS   H7X 9440  -0.151   2.441   7.455  0.4120  0.5422 -0.8501
   95SAPS   H7Y 9441   0.005   2.360   7.500 -0.2415  0.1556  1.5562
   95SAPS   C38 9442  -0.162   2.284   7.616 -0.2417 -0.8876  0.7314
   95SAPS   H8X 9443  -0.137   2.176   7.630  2.4592 -0.7549 -2.0190
   95SAPS   H8Y 9444  -0.270   2.306   7.627  0.1661  0.5820  2.0357
   95SAPS   C39 9445  -0.094   2.360   7.738 -0.4019 -0.1936  0.0098
   95SAPS   H9X 9446  -0.126   2.466   7.749  2.1191  0.7030 -0.7689
   95SAPS   H9Y 9447   0.016   2.368   7.729 -0.4807 -0.6155 -1.8217
   95SAPS  C310 9448  -0.118   2.284   7.866 -1.0301  0.0132  0.4175
   95SAPS  H10X 9449  -0.058   2.347   7.936  3.0394 -0.2023 -2.5204
   95SAPS  H10Y 9450  -0.056   2.192   7.872  0.5305  0.9516 -0.5239
   95SAPS  C311 9451  -0.268   2.259   7.888 -0.1883  0.7287 -0.0047
   95SAPS  H11X 9452  -0.301   2.173   7.825  0.9804  0.4973 -0.3298
   95SAPS  H11Y 9453  -0.328   2.349   7.864 -1.7509  0.2974  2.1002
   95SAPS  C312 9454  -0.300   2.209   8.031  0.2147  0.1398  0.2123
   95SAPS  H12X 9455  -0.241   2.282   8.091  0.4464 -0.3277  0.5577
   95SAPS  H12Y 9456  -0.246   2.113   8.045  2.0494  0.5504 -2.8949
   95SAPS  C313 9457  -0.451   2.198   8.064  0.6547  0.3428 -0.4971
   95SAPS  H13X 9458  -0.490   2.107   8.014 -0.1237 -0.5418  1.5752
   95SAPS  H13Y 9459  -0.491   2.291   8.020  1.1252 -0.0066 -1.6975
   95SAPS  C314 9460  -0.488   2.181   8.222 -0.0418  0.0431  0.3321
   95SAPS  H14X 9461  -0.428   2.093   8.254 -1.4458 -0.5228  1.5409
   95SAPS  H14Y 9462  -0.595   2.158   8.240 -0.3536 -0.3445 -1.7569
   95SAPS  C315 9463  -0.425   2.289   8.309 -0.1893  0.0822 -0.2007
   95SAPS  H15X 9464  -0.475   2.386   8.286 -0.4435  0.0510  0.2149
   95SAPS  H15Y 9465  -0.319   2.303   8.280 -0.4923 -0.5389 -1.7032
   95SAPS  C316 9466  -0.429   2.256   8.463  0.3382  0.2928  0.4272
   95SAPS  H16X 9467  -0.402   2.149   8.477  1.6785  0.6420  0.6530
   95SAPS  H16Y 9468  -0.536   2.253   8.493 -0.1045 -0.8508 -1.1050
   95SAPS  C317 9469  -0.339   2.347   8.554  0.3654  0.5587 -0.2768
   95SAPS  H17X 9470  -0.386   2.448   8.553 -1.9903 -0.2642  3.7590
   95SAPS  H17Y 9471  -0.232   2.361   8.524  0.2972  2.6921  0.2938
   95SAPS  C318 9472  -0.343   2.316   8.707  0.4221 -0.2503  0.3255
   95SAPS  H18X 9473  -0.447   2.324   8.746  1.2858  3.0729  2.2777
   95SAPS  H18Y 9474  -0.271   2.377   8.764 -0.5181 -0.9565  2.3806
   95SAPS  H18Z 9475  -0.314   2.209   8.714 -1.6160 -0.8501  0.4472
   96SAPS     N 9476   0.708   4.076   6.030  0.5068 -0.1843 -0.1575
   96SAPS   HN1 9477   0.640   4.095   6.106 -2.4024 -1.9061 -2.0915
   96SAPS   HN2 9478   0.674   4.133   5.950 -1.9904  1.1495  1.7254
   96SAPS   HN3 9479   0.707   3.973   6.012 -0.2488 -0.2655  0.2967
   96SAPS   C12 9480   0.837   4.125   6.063 -0.0076  0.0726  0.1042
   96SAPS  H12A 9481   0.856   4.078   6.159  1.4556 -2.1291 -1.1799
   96SAPS   C13 9482   0.947   4.080   5.959 -1.1167  0.7362 -0.2234
   96SAPS  O13A 9483   0.915   3.992   5.876  0.4872  0.0453  0.6464
   96SAPS  O13B 9484   1.070   4.109   5.990  0.3427  0.1411 -0.6747
   96SAPS   C11 9485   0.844   4.279   6.072 -0.0915  0.0450 -0.2232
   96SAPS  H11A 9486   0.819   4.321   5.972  0.3150 -1.3766 -0.9532
   96SAPS  H11B 9487   0.953   4.297   6.085  0.2647 -2.2877  0.5893
   96SAPS     P 9488   0.799   4.433   6.286 -0.2748 -0.5372 -0.4436
   96SAPS   O13 9489   0.896   4.529   6.232 -0.2093 -0.5530 -0.1014
   96SAPS   O14 9490   0.678   4.490   6.344  0.1541  0.3496 -0.0225
   96SAPS   O12 9491   0.764   4.330   6.179 -0.2883  0.6785  0.1770
   96SAPS   O11 9492   0.865   4.359   6.414  0.2731 -0.0804 -0.3834
   96SAPS    C1 9493   0.787   4.268   6.493  0.2572 -0.2935  0.0806
   96SAPS    HA 9494   0.677   4.283   6.489  0.4360  2.2492  2.2048
   96SAPS    HB 9495   0.811   4.164   6.460  1.9297 -0.3877  1.4501
   96SAPS    C2 9496   0.816   4.287   6.649  0.0141  0.1610 -0.1342
   96SAPS    HS 9497   0.731   4.247   6.708  1.8455 -0.9508  1.9059
   96SAPS   O21 9498   0.837   4.429   6.677 -0.1252  0.0028 -0.1057
   96SAPS   C21 9499   0.727   4.491   6.669  0.6373  0.0474  0.5793
   96SAPS   O22 9500   0.614   4.443   6.669  0.2204  0.0958  0.1818
   96SAPS   C22 9501   0.760   4.639   6.666 -0.1940  0.2761 -0.1830
   96SAPS   H2R 9502   0.869   4.656   6.675 -0.2727  0.7450 -0.0974
   96SAPS   H2S 9503   0.718   4.681   6.572  0.4112  1.9052  0.2383
   96SAPS    C3 9504   0.938   4.193   6.695  0.1505 -0.0861 -0.2385
   96SAPS    HX 9505   1.031   4.212   6.638 -0.0393 -1.5751 -1.0864
   96SAPS    HY 9506   0.907   4.089   6.671  1.2663 -0.1708 -1.4793
   96SAPS   O31 9507   0.961   4.207   6.832  0.6123 -0.1983  0.6542
   96SAPS   C31 9508   1.037   4.308   6.866  0.0336 -0.9203 -0.3949
   96SAPS   O32 9509   1.115   4.372   6.796  0.7589  0.0389  0.2421
   96SAPS   C32 9510   1.023   4.327   7.021  0.4010  1.3290  0.8785
   96SAPS   H2X 9511   1.119   4.370   7.055  1.6188  1.5691 -2.4699
   96SAPS   H2Y 9512   1.001   4.228   7.067 -1.9038  0.1836 -2.3062
   96SAPS   C23 9513   0.694   4.725   6.782 -1.0438  0.7693  0.6116
   96SAPS   H3R 9514   0.643   4.816   6.742  1.9492  2.1742 -0.2525
   96SAPS   H3S 9515   0.767   4.772   6.851 -1.5169  3.2160 -0.4504
   96SAPS   C24 9516   0.591   4.657   6.869 -0.2730  0.8667 -0.1019
   96SAPS   H4R 9517   0.611   4.555   6.910 -0.2273  1.5802  1.7799
   96SAPS   H4S 9518   0.504   4.642   6.802 -1.0692 -0.1903  1.1108
   96SAPS   C25 9519   0.564   4.756   6.976 -0.4223 -0.0043 -1.0957
   96SAPS   H5R 9520   0.603   4.858   6.962 -0.0283 -0.1404 -1.0063
   96SAPS   C26 9521   0.487   4.737   7.084 -0.6696 -0.2500  0.0198
   96SAPS   H6R 9522   0.472   4.814   7.162 -0.1748 -1.1456  1.0366
   96SAPS   C27 9523   0.416   4.604   7.118  0.3906  0.5981  0.2280
   96SAPS   H7R 9524   0.451   4.564   7.215 -0.9352 -2.3840 -0.4220
   96SAPS   H7S 9525   0.446   4.525   7.046 -1.5636 -0.8563  0.9260
   96SAPS   C28 9526   0.267   4.622   7.101 -0.1682  0.6121 -0.2285
   96SAPS   H8R 9527   0.252   4.659   6.998 -0.2236 -0.1288 -0.4952
   96SAPS   C29 9528   0.171   4.585   7.190 -0.4668  0.6157  0.0088
   96SAPS   H9R 9529   0.064   4.596   7.169 -0.8375 -0.2851  1.3068
   96SAPS  C210 9530   0.198   4.522   7.324  0.2702  0.3323 -0.5145
   96SAPS  H10R 9531   0.133   4.568   7.402 -0.0412 -2.1191  0.7477
   96SAPS  H10S 9532   0.298   4.546   7.368  0.2941 -1.0700  0.2330
   96SAPS  C211 9533   0.197   4.370   7.340 -0.7856 -0.1619  0.3541
   96SAPS  H11R 9534   0.259   4.318   7.266 -0.5590  1.0460 -0.3281
   96SAPS  C212 9535   0.131   4.285   7.423  0.6952 -0.1168 -0.4062
   96SAPS  H12R 9536   0.141   4.176   7.421 -2.4485 -0.5042 -0.7472
   96SAPS  C213 9537   0.032   4.327   7.530 -0.6812  0.1028 -0.0046
   96SAPS  H13R 9538  -0.014   4.244   7.588  1.4962 -1.6314 -0.6095
   96SAPS  H13S 9539  -0.058   4.364   7.477 -0.1061 -1.8411 -2.5554
   96SAPS  C214 9540   0.099   4.400   7.645 -0.2513  0.2500 -0.5782
   96SAPS  H14R 9541   0.165   4.479   7.608 -0.8501  0.4277 -1.2937
   96SAPS  C215 9542   0.087   4.374   7.780  0.1419  0.3251  1.1081
   96SAPS  H15R 9543   0.151   4.432   7.847  1.6348  0.8272 -0.6741
   96SAPS  C216 9544   0.003   4.261   7.835 -0.6230  0.6891  0.1145
   96SAPS  H16R 9545   0.064   4.173   7.809  0.2482  0.6457  2.1067
   96SAPS  H16S 9546  -0.100   4.255   7.792  0.3655 -0.4922 -2.2506
   96SAPS  C217 9547  -0.008   4.274   7.985  0.0729  0.8240  0.2184
   96SAPS  H17R 9548   0.093   4.282   8.032  0.7679 -4.3267  0.1584
   96SAPS  H17S 9549  -0.049   4.175   8.016  0.2019  1.5050  2.8283
   96SAPS  C218 9550  -0.093   4.384   8.042 -0.4759  0.2777  0.5417
   96SAPS  H18R 9551  -0.201   4.370   8.016  0.2623 -2.2331 -1.6619
   96SAPS  H18S 9552  -0.063   4.475   7.985  0.2897 -0.4042 -0.1700
   96SAPS  C219 9553  -0.068   4.391   8.192 -0.2663 -0.1984 -0.1884
   96SAPS  H19R 9554   0.039   4.423   8.196 -0.4645  0.3692  0.7241
   96SAPS  H19S 9555  -0.087   4.293   8.240  1.8246  0.4904  2.3186
   96SAPS  C220 9556  -0.161   4.505   8.253  0.1143  0.2685 -0.8102
   96SAPS  H20R 9557  -0.143   4.508   8.363 -0.0401  0.5495 -0.7920
   96SAPS  H20S 9558  -0.268   4.484   8.233 -0.5349  1.4735  1.1335
   96SAPS  H20T 9559  -0.133   4.604   8.212  3.5066 -0.2041  0.0153
   96SAPS   C33 9560   0.907   4.432   7.065 -0.0384  0.9002  0.0130
   96SAPS   H3X 9561   0.803   4.396   7.049  0.5089 -0.9856  0.4685
   96SAPS   H3Y 9562   0.926   4.527   7.010 -1.9321  0.1849 -2.0618
   96SAPS   C34 9563   0.911   4.454   7.216 -0.4687 -0.0615  0.3519
   96SAPS   H4X 9564   1.004   4.509   7.241 -0.6804  0.8570 -0.7802
   96SAPS   H4Y 9565   0.895   4.353   7.257 -0.5113 -0.3239 -0.2905
   96SAPS   C35 9566   0.804   4.559   7.259 -0.4960  0.1379  0.4973
   96SAPS   H5X 9567   0.706   4.532   7.215  0.0074 -2.0178  0.5460
   96SAPS   H5Y 9568   0.824   4.661   7.220 -2.5026  1.7507  3.3336
   96SAPS   C36 9569   0.777   4.552   7.409 -0.3348 -0.5479 -0.3074
   96SAPS   H6X 9570   0.740   4.654   7.430 -1.2451 -1.2260  1.7203
   96SAPS   H6Y 9571   0.866   4.540   7.475 -1.1430 -0.8654  0.7668
   96SAPS   C37 9572   0.680   4.435   7.444 -0.5054  0.2801  0.1124
   96SAPS   H7X 9573   0.742   4.345   7.429  1.6214  1.6765  0.0608
   96SAPS   H7Y 9574   0.598   4.430   7.368 -1.1087  0.6312  0.7276
   96SAPS   C38 9575   0.617   4.445   7.584  0.6979 -0.0804 -0.4254
   96SAPS   H8X 9576   0.587   4.552   7.581  0.6030 -0.1259 -1.4942
   96SAPS   H8Y 9577   0.692   4.438   7.665 -0.6113  1.1898  0.9621
   96SAPS   C39 9578   0.487   4.358   7.614  0.0344  0.0814  0.4349
   96SAPS   H9X 9579   0.426   4.368   7.522 -1.3823 -2.3181  0.9936
   96SAPS   H9Y 9580   0.435   4.402   7.702  0.1649  0.1080  0.4993
   96SAPS  C310 9581   0.529   4.210   7.641  0.7722 -0.4591 -0.1118
   96SAPS  H10X 9582   0.620   4.228   7.703 -0.2849  1.1096  1.0597
   96SAPS  H10Y 9583   0.569   4.172   7.544  2.3680  0.2328  0.2320
   96SAPS  C311 9584   0.426   4.122   7.721  0.6458  0.0352  0.0928
   96SAPS  H11X 9585   0.342   4.108   7.650  1.7284 -0.4970 -1.1357
   96SAPS  H11Y 9586   0.392   4.176   7.812 -0.0490  1.9025 -1.2141
   96SAPS  C312 9587   0.475   3.982   7.762  0.9045 -0.5404  0.3787
   96SAPS  H12X 9588   0.516   3.939   7.668 -2.3071 -1.7448 -0.5777
   96SAPS  H12Y 9589   0.388   3.916   7.777  0.5596 -0.0794  0.4471
   96SAPS  C313 9590   0.571   3.983   7.885  0.4891 -0.3157 -0.3910
   96SAPS  H13X 9591   0.644   4.066   7.872  2.3436 -1.5802  1.3217
   96SAPS  H13Y 9592   0.628   3.888   7.886 -0.1218 -0.6960 -0.9696
   96SAPS  C314 9593   0.502   4.007   8.025  0.6926  0.5994 -0.7149
   96SAPS  H14X 9594   0.428   3.925   8.033  1.7028 -0.1827  1.4121
   96SAPS  H14Y 9595   0.437   4.097   8.035 -0.2849 -0.1607 -0.1181
   96SAPS  C315 9596   0.606   3.995   8.135 -0.3288  0.2926  1.0769
   96SAPS  H15X 9597   0.686   4.070   8.120  0.4277 -0.4155  1.4954
   96SAPS  H15Y 9598   0.654   3.894   8.132  1.1522  0.9665  1.2630
   96SAPS  C316 9599   0.544   4.005   8.275 -0.4830 -0.2563  0.5318
   96SAPS  H16X 9600   0.617   3.993   8.358  0.1100 -2.0306 -0.1929
   96SAPS  H16Y 9601   0.477   3.919   8.300 -0.2015 -0.1372  1.7736
   96SAPS  C317 9602   0.450   4.124   8.280 -0.0612  0.0622 -0.6241
   96SAPS  H17X 9603   0.366   4.093   8.213 -0.0132 -1.0563 -0.1834
   96SAPS  H17Y 9604   0.503   4.211   8.236  0.5072 -0.5880 -1.2557
   96SAPS  C318 9605   0.395   4.155   8.419  0.5197 -0.4789 -0.3064
   96SAPS  H18X 9606   0.315   4.232   8.421  0.7531 -0.0959 -2.5796
   96SAPS  H18Y 9607   0.474   4.181   8.492 -0.7260 -0.0881  0.9578
   96SAPS  H18Z 9608   0.332   4.070   8.453  1.6456 -0.7086  1.2859
   97SAPS     N 9609   1.779   2.539   6.247 -0.3072  0.2207 -0.3454
   97SAPS   HN1 9610   1.712   2.593   6.306  0.8694 -0.5963  1.8382
   97SAPS   HN2 9611   1.842   2.489   6.313 -0.3194  0.2348 -0.3226
   97SAPS   HN3 9612   1.839   2.608   6.197 -0.2316 -0.0714 -0.6615
   97SAPS   C12 9613   1.717   2.451   6.148 -0.2192 -0.2523  0.0973
   97SAPS  H12A 9614   1.638   2.512   6.107  0.4885  1.4370  1.1101
   97SAPS   C13 9615   1.805   2.403   6.029 -0.5887 -0.4413  0.5039
   97SAPS  O13A 9616   1.925   2.434   6.028  0.1522 -0.0388 -0.4270
   97SAPS  O13B 9617   1.755   2.335   5.939  0.0556 -0.4378  0.2626
   97SAPS   C11 9618   1.661   2.323   6.207 -0.5450 -0.4750 -0.3825
   97SAPS  H11A 9619   1.749   2.262   6.237  0.7387  2.3388  2.1584
   97SAPS  H11B 9620   1.596   2.274   6.132  0.9637  1.3477 -3.0340
   97SAPS     P 9621   1.479   2.259   6.390  0.4763  0.5068 -0.2132
   97SAPS   O13 9622   1.346   2.326   6.386 -0.0932 -0.1459 -0.4879
   97SAPS   O14 9623   1.481   2.122   6.334 -0.4947  0.1391  0.5352
   97SAPS   O12 9624   1.584   2.354   6.320 -0.4502 -0.3305 -0.2357
   97SAPS   O11 9625   1.527   2.257   6.539  0.2881 -0.0791 -0.6815
   97SAPS    C1 9626   1.666   2.252   6.557  0.2796  0.3693 -0.4805
   97SAPS    HA 9627   1.707   2.153   6.529 -1.6729 -1.0039  1.2248
   97SAPS    HB 9628   1.726   2.328   6.503  0.2621  0.0450 -0.9592
   97SAPS    C2 9629   1.691   2.282   6.704 -0.2685 -0.1829 -0.9671
   97SAPS    HS 9630   1.801   2.284   6.724 -0.6947  0.3903  1.7187
   97SAPS   O21 9631   1.619   2.180   6.779 -0.2139 -0.2586  0.4353
   97SAPS   C21 9632   1.682   2.061   6.780  0.3028 -0.0864  0.2795
   97SAPS   O22 9633   1.795   2.045   6.735  0.5374 -0.5007  0.3923
   97SAPS   C22 9634   1.605   1.964   6.866  0.2934  0.3667  0.4746
   97SAPS   H2R 9635   1.524   1.925   6.802  1.5586 -1.0067 -0.3545
   97SAPS   H2S 9636   1.669   1.876   6.889 -0.8378 -1.0742 -1.6872
   97SAPS    C3 9637   1.638   2.424   6.740 -0.7185  0.1616  0.1832
   97SAPS    HX 9638   1.533   2.445   6.709 -0.6631 -0.9272 -0.7963
   97SAPS    HY 9639   1.697   2.492   6.675  0.9019 -0.8553  0.5481
   97SAPS   O31 9640   1.663   2.453   6.883  0.8965 -0.1024 -0.5131
   97SAPS   C31 9641   1.554   2.469   6.949 -0.0931 -0.2737  0.6266
   97SAPS   O32 9642   1.439   2.453   6.913  0.2588 -0.1123 -0.1618
   97SAPS   C32 9643   1.590   2.533   7.081 -0.6041 -0.0593 -0.2104
   97SAPS   H2X 9644   1.618   2.641   7.071 -0.5820 -0.1715 -1.5933
   97SAPS   H2Y 9645   1.679   2.471   7.107 -0.1877 -0.0553 -1.5544
   97SAPS   C23 9646   1.561   2.018   7.006  0.3136 -0.5378 -0.1952
   97SAPS   H3R 9647   1.492   1.947   7.056  1.8767 -1.4906  0.7170
   97SAPS   H3S 9648   1.506   2.111   6.980 -0.8217 -0.9956  0.5205
   97SAPS   C24 9649   1.662   2.033   7.120 -0.6933 -0.0253 -0.6652
   97SAPS   H4R 9650   1.752   2.085   7.080  0.9268 -2.1755  0.0161
   97SAPS   H4S 9651   1.703   1.932   7.141  0.3076  0.8741  2.3146
   97SAPS   C25 9652   1.618   2.088   7.249 -0.2328  0.3852 -0.8671
   97SAPS   H5R 9653   1.528   2.046   7.297 -0.0771  0.9686 -0.0382
   97SAPS   C26 9654   1.679   2.192   7.314 -0.1020 -0.6850 -0.0747
   97SAPS   H6R 9655   1.626   2.222   7.405  1.2014 -0.4609  0.6298
   97SAPS   C27 9656   1.799   2.277   7.281  0.8542 -0.0353 -0.2440
   97SAPS   H7R 9657   1.791   2.373   7.337  0.7549 -0.6630  0.8262
   97SAPS   H7S 9658   1.791   2.304   7.173 -1.2053  0.7245  0.0617
   97SAPS   C28 9659   1.940   2.223   7.304 -0.3624  0.1826  0.0225
   97SAPS   H8R 9660   1.995   2.201   7.212  0.9154  0.3875  0.7175
   97SAPS   C29 9661   1.996   2.176   7.424  0.0051 -0.8683  0.0009
   97SAPS   H9R 9662   2.091   2.122   7.415 -0.8929 -2.5597  0.2009
   97SAPS  C210 9663   1.935   2.185   7.564 -0.1954  0.0703  0.2923
   97SAPS  H10R 9664   1.944   2.080   7.601 -0.1793 -0.0299  0.0032
   97SAPS  H10S 9665   1.827   2.210   7.556  0.2207  1.4909 -1.6010
   97SAPS  C211 9666   2.021   2.279   7.643  0.5224 -0.8191  0.0081
   97SAPS  H11R 9667   2.026   2.376   7.592 -0.3557 -0.9755 -0.3980
   97SAPS  C212 9668   2.063   2.269   7.772  0.7060  0.0687  0.1794
   97SAPS  H12R 9669   2.115   2.357   7.812  3.1612 -0.8652 -0.7834
   97SAPS  C213 9670   2.042   2.149   7.867  0.2633  0.5863 -0.7124
   97SAPS  H13R 9671   2.138   2.121   7.915 -0.7513 -1.1864  0.3612
   97SAPS  H13S 9672   2.021   2.052   7.819  0.5176 -0.0503  0.4193
   97SAPS  C214 9673   1.940   2.186   7.975 -0.4872  0.0270  0.5437
   97SAPS  H14R 9674   1.833   2.166   7.958 -0.9941  0.4751  2.8054
   97SAPS  C215 9675   1.965   2.246   8.098 -0.2335  0.1546  0.6985
   97SAPS  H15R 9676   1.880   2.268   8.163  1.4168  2.7898  2.1456
   97SAPS  C216 9677   2.097   2.296   8.164 -0.0429  0.9041  0.5497
   97SAPS  H16R 9678   2.100   2.405   8.186  1.2592  0.4672  2.7834
   97SAPS  H16S 9679   2.186   2.261   8.108  0.1927 -0.2217  1.5854
   97SAPS  C217 9680   2.131   2.230   8.299 -0.0027  0.1162  0.5023
   97SAPS  H17R 9681   2.128   2.119   8.292  1.5765 -0.1128  2.4776
   97SAPS  H17S 9682   2.067   2.271   8.380  0.4509 -1.5562  1.7552
   97SAPS  C218 9683   2.270   2.286   8.338 -0.1155  0.4986 -0.6784
   97SAPS  H18R 9684   2.253   2.393   8.365  0.4388  0.7041 -1.1264
   97SAPS  H18S 9685   2.339   2.291   8.251 -1.8198  0.7445 -2.1022
   97SAPS  C219 9686   2.327   2.211   8.453 -0.1305 -0.3623 -0.5886
   97SAPS  H19R 9687   2.417   2.265   8.490  0.1834 -1.3486  0.1225
   97SAPS  H19S 9688   2.354   2.105   8.434  0.2772 -0.5581  0.9529
   97SAPS  C220 9689   2.234   2.214   8.581 -0.5342  0.5094 -0.0864
   97SAPS  H20R 9690   2.163   2.130   8.567  0.9202 -0.6396 -0.7763
   97SAPS  H20S 9691   2.173   2.307   8.584 -1.7922 -0.2150 -1.5611
   97SAPS  H20T 9692   2.294   2.200   8.673 -1.2628 -1.4470  0.1297
   97SAPS   C33 9693   1.477   2.547   7.185  0.4728  0.3514 -0.6720
   97SAPS   H3X 9694   1.404   2.467   7.165  1.5487 -0.0794 -3.1834
   97SAPS   H3Y 9695   1.426   2.644   7.168  0.5336  0.4127 -0.5083
   97SAPS   C34 9696   1.521   2.528   7.331  0.3500 -0.7704 -0.1859
   97SAPS   H4X 9697   1.582   2.436   7.339  1.2197 -0.3270 -1.3449
   97SAPS   H4Y 9698   1.429   2.526   7.393 -0.3267  2.2872 -0.8903
   97SAPS   C35 9699   1.605   2.657   7.385 -0.1650  0.3212 -0.6984
   97SAPS   H5X 9700   1.551   2.745   7.341 -0.9228  0.7530  1.0049
   97SAPS   H5Y 9701   1.705   2.636   7.342 -0.3958  0.3132 -1.2367
   97SAPS   C36 9702   1.589   2.682   7.536  0.5918  0.2471 -0.5387
   97SAPS   H6X 9703   1.487   2.670   7.578  1.5322  1.1411  2.2129
   97SAPS   H6Y 9704   1.624   2.787   7.548  0.2640  0.4720 -1.4153
   97SAPS   C37 9705   1.670   2.584   7.618 -0.1185  0.2248 -0.7039
   97SAPS   H7X 9706   1.775   2.571   7.585  0.0622 -1.9243  0.5307
   97SAPS   H7Y 9707   1.624   2.483   7.611  0.8527 -0.1147 -3.2457
   97SAPS   C38 9708   1.686   2.623   7.763 -0.2109  0.1375 -0.3095
   97SAPS   H8X 9709   1.592   2.613   7.821  1.1232 -3.1692  1.5527
   97SAPS   H8Y 9710   1.719   2.730   7.766 -3.0194  1.1366 -1.6053
   97SAPS   C39 9711   1.774   2.529   7.840 -0.5350  0.3944 -0.7174
   97SAPS   H9X 9712   1.878   2.545   7.805 -0.4090 -2.7843 -2.1098
   97SAPS   H9Y 9713   1.746   2.422   7.827 -2.0495  0.8154 -1.0780
   97SAPS  C310 9714   1.773   2.552   7.997 -0.5187  0.1333  0.9253
   97SAPS  H10X 9715   1.871   2.528   8.043  0.8467  2.3067 -0.6471
   97SAPS  H10Y 9716   1.691   2.485   8.032  0.5614 -1.4201  0.5879
   97SAPS  C311 9717   1.745   2.701   8.037 -0.0560 -0.6113 -0.1196
   97SAPS  H11X 9718   1.639   2.724   8.011  0.9585  1.0756 -3.2052
   97SAPS  H11Y 9719   1.810   2.777   7.991 -0.6827  2.0304  2.9926
   97SAPS  C312 9720   1.784   2.726   8.183  0.1294  0.2908  0.0776
   97SAPS  H12X 9721   1.893   2.707   8.194 -0.3625 -2.2426  1.3049
   97SAPS  H12Y 9722   1.743   2.637   8.236  1.8746 -0.4569  0.2257
   97SAPS  C313 9723   1.741   2.860   8.244 -0.1478  0.1444 -0.3532
   97SAPS  H13X 9724   1.634   2.878   8.220 -0.4876  1.5114  1.8664
   97SAPS  H13Y 9725   1.805   2.934   8.192 -1.4421  0.1882 -1.9564
   97SAPS  C314 9726   1.756   2.860   8.395 -0.5522 -0.6351  0.5876
   97SAPS  H14X 9727   1.865   2.867   8.416 -0.5670  3.1842  0.0457
   97SAPS  H14Y 9728   1.698   2.775   8.438 -1.5987  0.6274  1.7397
   97SAPS  C315 9729   1.701   2.992   8.452  0.7125  0.1881 -0.2113
   97SAPS  H15X 9730   1.592   3.000   8.433  1.1171  1.6195 -2.1782
   97SAPS  H15Y 9731   1.743   3.079   8.398  0.7840 -0.1119 -0.6448
   97SAPS  C316 9732   1.723   2.999   8.602  0.6538  0.6262 -0.6376
   97SAPS  H16X 9733   1.833   3.005   8.621  0.5361 -2.1188  1.7649
   97SAPS  H16Y 9734   1.708   2.902   8.655 -1.6986  2.1914  1.7817
   97SAPS  C317 9735   1.645   3.106   8.686  0.3153 -0.2319  0.9001
   97SAPS  H17X 9736   1.535   3.092   8.677  0.4989 -2.2888  1.2056
   97SAPS  H17Y 9737   1.663   3.207   8.644 -1.7513 -0.4011 -0.5638
   97SAPS  C318 9738   1.677   3.103   8.836  0.3758  0.2154 -0.1501
   97SAPS  H18X 9739   1.617   3.184   8.882  0.3298 -0.4046  0.9060
   97SAPS  H18Y 9740   1.783   3.119   8.865  0.9077 -1.8673 -0.7800
   97SAPS  H18Z 9741   1.644   3.009   8.885 -0.5272  0.3323 -0.5126
   98SAPS     N 9742   0.151   0.453   5.950  0.0270  0.9727  0.6640
   98SAPS   HN1 9743   0.075   0.460   5.879  0.1458  4.2024  0.7233
   98SAPS   HN2 9744   0.188   0.357   5.933 -1.2196  0.7459 -1.0940
   98SAPS   HN3 9745   0.106   0.473   6.042 -0.8876  0.5221  0.3317
   98SAPS   C12 9746   0.258   0.559   5.915  0.2759  0.3564 -0.0448
   98SAPS  H12A 9747   0.332   0.552   5.993 -1.1131 -1.0266  1.2251
   98SAPS   C13 9748   0.315   0.542   5.779 -0.8078 -0.1435  0.1934
   98SAPS  O13A 9749   0.273   0.451   5.703  0.0925  0.6739  0.0579
   98SAPS  O13B 9750   0.379   0.637   5.727 -0.1747  0.2812  0.4344
   98SAPS   C11 9751   0.186   0.695   5.929 -0.2704 -0.4130 -0.1890
   98SAPS  H11A 9752   0.098   0.688   5.861 -0.6164 -0.6740  0.2786
   98SAPS  H11B 9753   0.255   0.773   5.890 -0.8134 -1.0451 -2.5591
   98SAPS     P 9754   0.246   0.813   6.164 -0.4552  0.1117  0.3014
   98SAPS   O13 9755   0.371   0.734   6.185  0.7294 -0.1850  0.0820
   98SAPS   O14 9756   0.267   0.953   6.116  0.9025 -0.5789 -0.0611
   98SAPS   O12 9757   0.145   0.730   6.064 -0.2068 -0.5406  0.6901
   98SAPS   O11 9758   0.162   0.821   6.300  1.3007 -0.3187 -0.0509
   98SAPS    C1 9759   0.042   0.891   6.330  0.0837 -0.9009 -0.3885
   98SAPS    HA 9760   0.033   0.973   6.257 -0.5368 -1.2235 -0.6885
   98SAPS    HB 9761  -0.046   0.823   6.321 -1.5006  1.0666 -0.3945
   98SAPS    C2 9762   0.037   0.957   6.471  0.3422  0.1513 -0.1758
   98SAPS    HS 9763   0.140   0.998   6.479 -0.1866  1.4194  0.5211
   98SAPS   O21 9764   0.001   0.855   6.570  0.3164 -0.1877  0.5413
   98SAPS   C21 9765   0.088   0.844   6.659  0.1018  0.2209 -0.0876
   98SAPS   O22 9766   0.207   0.870   6.641  0.4437 -0.5859 -0.6296
   98SAPS   C22 9767   0.034   0.773   6.785 -0.0010  0.5715  0.3668
   98SAPS   H2R 9768  -0.074   0.797   6.792  0.0900  0.9938  0.3745
   98SAPS   H2S 9769   0.050   0.665   6.769  0.7661  0.5851  0.9868
   98SAPS    C3 9770  -0.064   1.075   6.490  0.4059  0.2636 -0.1559
   98SAPS    HX 9771  -0.167   1.045   6.462  0.4033  0.0302  0.1048
   98SAPS    HY 9772  -0.033   1.137   6.403 -0.2509 -0.7526 -1.1379
   98SAPS   O31 9773  -0.043   1.147   6.612  0.0161  0.0375  0.2398
   98SAPS   C31 9774  -0.127   1.113   6.710  0.1569 -0.2382 -0.0343
   98SAPS   O32 9775  -0.196   1.010   6.705  0.2046  0.2297 -0.1553
   98SAPS   C32 9776  -0.120   1.214   6.830  0.3721  0.4201  0.7122
   98SAPS   H2X 9777  -0.211   1.277   6.818  0.6031  0.8076  0.9359
   98SAPS   H2Y 9778  -0.029   1.279   6.824  2.7719 -2.7700 -0.5109
   98SAPS   C23 9779   0.113   0.806   6.907  0.3052 -0.3471 -1.1457
   98SAPS   H3R 9780   0.111   0.913   6.938  0.5686 -0.9467  1.1158
   98SAPS   H3S 9781   0.223   0.787   6.901  0.7622  2.2332 -2.1450
   98SAPS   C24 9782   0.074   0.704   7.033  0.5513  0.2498  0.0546
   98SAPS   H4R 9783   0.156   0.721   7.106 -0.4758 -0.8033  1.5004
   98SAPS   H4S 9784   0.087   0.603   6.989  0.6499  0.5832 -0.6890
   98SAPS   C25 9785  -0.060   0.725   7.095  0.2578  0.2708 -0.2430
   98SAPS   H5R 9786  -0.137   0.720   7.016  0.2380 -0.7650 -0.1749
   98SAPS   C26 9787  -0.101   0.757   7.222 -0.0110  0.2434  0.1549
   98SAPS   H6R 9788  -0.207   0.763   7.252 -0.1861 -0.7511 -0.2350
   98SAPS   C27 9789  -0.010   0.770   7.347  0.0746 -0.0187 -0.1367
   98SAPS   H7R 9790  -0.014   0.879   7.367 -2.6732  0.1401 -1.2309
   98SAPS   H7S 9791   0.095   0.738   7.327 -0.3589 -0.9949 -0.9023
   98SAPS   C28 9792  -0.061   0.683   7.468  0.3085 -0.2075 -0.0291
   98SAPS   H8R 9793  -0.075   0.577   7.441  1.2124 -0.6471  1.1434
   98SAPS   C29 9794  -0.081   0.729   7.596 -0.3501 -0.3287  0.6854
   98SAPS   H9R 9795  -0.121   0.661   7.673 -1.1868 -1.0183 -0.3344
   98SAPS  C210 9796  -0.056   0.871   7.639 -0.2066  0.1402  0.1329
   98SAPS  H10R 9797  -0.091   0.884   7.744  2.0909 -1.5662  1.1956
   98SAPS  H10S 9798  -0.104   0.939   7.565  0.6118 -0.2266 -0.7489
   98SAPS  C211 9799   0.090   0.898   7.650 -0.4962 -0.6631  0.0844
   98SAPS  H11R 9800   0.126   0.900   7.546 -0.4320  0.8366  0.1177
   98SAPS  C212 9801   0.164   0.918   7.758 -0.0156  0.9181 -0.7966
   98SAPS  H12R 9802   0.272   0.935   7.751  0.2190  1.0786  2.1276
   98SAPS  C213 9803   0.122   0.919   7.900 -0.0080  0.8494  0.0157
   98SAPS  H13R 9804   0.024   0.866   7.910  0.7571 -0.8620 -1.1459
   98SAPS  H13S 9805   0.115   1.024   7.935 -0.0070  0.2354  1.9930
   98SAPS  C214 9806   0.211   0.853   8.000  0.3779  1.1250  0.3876
   98SAPS  H14R 9807   0.197   0.744   8.004 -0.0604  0.9935 -2.4498
   98SAPS  C215 9808   0.310   0.917   8.062  0.4207  0.1769 -0.2631
   98SAPS  H15R 9809   0.375   0.862   8.132 -0.5845  0.4242  0.8975
   98SAPS  C216 9810   0.352   1.063   8.047 -0.4842 -0.2548  0.2380
   98SAPS  H16R 9811   0.266   1.123   8.011 -1.2755 -1.3144  0.3216
   98SAPS  H16S 9812   0.440   1.067   7.980  0.3685 -2.1219  1.1685
   98SAPS  C217 9813   0.395   1.130   8.180  0.2101  0.1586 -0.1248
   98SAPS  H17R 9814   0.329   1.102   8.264  0.3915 -0.0927 -0.0641
   98SAPS  H17S 9815   0.390   1.238   8.153 -2.8048 -0.4139 -2.3290
   98SAPS  C218 9816   0.544   1.090   8.214 -0.2678 -0.3314  0.4772
   98SAPS  H18R 9817   0.604   1.116   8.124 -0.2871  1.0932  0.8460
   98SAPS  H18S 9818   0.565   0.982   8.230  2.7267 -0.0962 -1.0643
   98SAPS  C219 9819   0.582   1.155   8.343  0.0132  0.2525 -0.2495
   98SAPS  H19R 9820   0.522   1.133   8.433  0.9531 -1.0181  0.1035
   98SAPS  H19S 9821   0.572   1.266   8.337 -1.7208  0.0990 -0.5599
   98SAPS  C220 9822   0.730   1.118   8.379 -0.0661  0.6470 -0.4830
   98SAPS  H20R 9823   0.807   1.128   8.300 -0.1680 -0.1409 -0.6882
   98SAPS  H20S 9824   0.741   1.012   8.410  1.3120  0.7722 -0.4744
   98SAPS  H20T 9825   0.764   1.173   8.469 -2.1259  0.1050  0.6785
   98SAPS   C33 9826  -0.115   1.136   6.971  0.7578  0.0486 -0.0050
   98SAPS   H3X 9827  -0.017   1.085   6.981 -0.0934 -1.2133  3.2251
   98SAPS   H3Y 9828  -0.192   1.056   6.982  1.5368 -0.7037  0.0598
   98SAPS   C34 9829  -0.113   1.238   7.089 -0.0640 -0.1420 -0.4785
   98SAPS   H4X 9830  -0.205   1.301   7.083 -0.0097  0.1895  1.5342
   98SAPS   H4Y 9831  -0.024   1.304   7.088 -0.2743  0.1427 -0.5614
   98SAPS   C35 9832  -0.118   1.172   7.226 -0.5984 -0.0995 -0.0468
   98SAPS   H5X 9833  -0.021   1.119   7.235 -0.3501  0.6047  1.7298
   98SAPS   H5Y 9834  -0.197   1.093   7.230 -0.2329 -0.4435  0.5181
   98SAPS   C36 9835  -0.129   1.272   7.346 -0.0156 -0.0517 -0.6784
   98SAPS   H6X 9836  -0.220   1.336   7.346 -0.1467 -0.2193  0.6930
   98SAPS   H6Y 9837  -0.055   1.354   7.338  0.6634 -0.5641  0.1431
   98SAPS   C37 9838  -0.115   1.203   7.484 -0.1888  0.6055 -0.2881
   98SAPS   H7X 9839  -0.013   1.158   7.488 -1.1813 -1.6808  0.5279
   98SAPS   H7Y 9840  -0.177   1.112   7.497 -0.7840  1.1646  1.0471
   98SAPS   C38 9841  -0.145   1.295   7.607 -0.0094  0.2391 -0.1939
   98SAPS   H8X 9842  -0.249   1.328   7.625  0.4031  1.6299 -0.2635
   98SAPS   H8Y 9843  -0.084   1.387   7.598  1.0812 -0.5215 -0.7953
   98SAPS   C39 9844  -0.101   1.224   7.735  0.1755 -0.3273  0.2262
   98SAPS   H9X 9845   0.005   1.200   7.712 -0.0685 -0.3259 -1.0019
   98SAPS   H9Y 9846  -0.157   1.132   7.763  1.2801 -0.9948  0.3236
   98SAPS  C310 9847  -0.107   1.321   7.857 -0.3271 -0.1364  0.4277
   98SAPS  H10X 9848  -0.214   1.337   7.883 -0.0932  0.6837  0.9054
   98SAPS  H10Y 9849  -0.038   1.407   7.843  1.7060 -1.6766  0.4450
   98SAPS  C311 9850  -0.044   1.262   7.995  0.0772  0.2250 -0.3001
   98SAPS  H11X 9851   0.065   1.280   7.991 -0.1157  1.3447 -3.3303
   98SAPS  H11Y 9852  -0.061   1.153   7.984 -2.5165  0.6431 -1.3987
   98SAPS  C312 9853  -0.112   1.321   8.113 -0.4517 -0.0753 -0.1484
   98SAPS  H12X 9854  -0.219   1.294   8.122 -0.1930 -1.1214 -0.0036
   98SAPS  H12Y 9855  -0.109   1.431   8.098  0.9208 -0.2771 -1.7211
   98SAPS  C313 9856  -0.030   1.296   8.240 -0.0269  0.0212 -0.7010
   98SAPS  H13X 9857  -0.090   1.342   8.322  1.3920  0.7762 -0.0500
   98SAPS  H13Y 9858   0.066   1.352   8.232  0.4540 -0.8115 -0.8589
   98SAPS  C314 9859  -0.008   1.148   8.266 -0.5941  0.4534  0.5262
   98SAPS  H14X 9860   0.058   1.110   8.185  0.5105  0.4502  1.4063
   98SAPS  H14Y 9861  -0.106   1.097   8.254 -0.3732  0.4757 -1.8187
   98SAPS  C315 9862   0.065   1.117   8.396  0.2647  0.2556  0.9545
   98SAPS  H15X 9863  -0.004   1.152   8.476 -0.5279  0.8174  0.0403
   98SAPS  H15Y 9864   0.152   1.185   8.387 -0.7839  1.6644  1.2424
   98SAPS  C316 9865   0.085   0.972   8.418 -0.2875 -0.4317 -0.2172
   98SAPS  H16X 9866   0.172   0.933   8.360 -0.7822 -1.4125 -0.3280
   98SAPS  H16Y 9867  -0.005   0.911   8.395  0.9059 -1.5636 -2.2316
   98SAPS  C317 9868   0.117   0.952   8.565  1.0278  0.5637  0.5424
   98SAPS  H17X 9869   0.145   0.845   8.576 -1.1273 -0.1586 -0.3390
   98SAPS  H17Y 9870   0.025   0.973   8.623 -0.4397 -1.0227 -1.0782
   98SAPS  C318 9871   0.232   1.046   8.620  0.2016 -0.0715  0.0221
   98SAPS  H18X 9872   0.319   1.040   8.551  2.0016 -0.8441  2.1988
   98SAPS  H18Y 9873   0.272   1.014   8.719 -0.6121 -0.3618  0.2622
   98SAPS  H18Z 9874   0.201   1.153   8.623  2.9597  0.8102 -0.2878
   99SAPS     N 9875   5.426   0.246   6.089  0.3750 -0.0027 -0.0763
   99SAPS   HN1 9876   5.352   0.265   6.018 -0.0119 -1.4023 -0.0840
   99SAPS   HN2 9877   5.399   0.293   6.178 -2.3973  0.3897 -1.0129
   99SAPS   HN3 9878   5.523   0.273   6.062  0.6060 -1.2706 -0.5862
   99SAPS   C12 9879   5.439   0.105   6.119  0.3794 -0.8055 -0.8848
   99SAPS  H12A 9880   5.347   0.073   6.165 -0.4148 -0.1317 -1.9490
   99SAPS   C13 9881   5.462   0.011   5.991  0.5728 -0.5098 -0.0220
   99SAPS  O13A 9882   5.461   0.062   5.873  0.0711 -0.5669  0.3672
   99SAPS  O13B 9883   5.469  -0.117   6.010  0.2848 -0.3813  0.4629
   99SAPS   C11 9884   5.556   0.093   6.229  0.2158 -0.0072  0.6133
   99SAPS  H11A 9885   5.566  -0.015   6.255  0.8186 -0.0509  0.2101
   99SAPS  H11B 9886   5.526   0.147   6.322 -0.1917  1.8671 -0.5649
   99SAPS     P 9887   5.819   0.121   6.247  0.0307  0.1014 -0.0165
   99SAPS   O13 9888   5.871  -0.015   6.231  0.5755 -0.2602  0.0264
   99SAPS   O14 9889   5.916   0.231   6.212 -0.0331 -0.2254  0.2763
   99SAPS   O12 9890   5.679   0.141   6.177  0.0223 -0.2108 -0.2626
   99SAPS   O11 9891   5.788   0.123   6.406  0.1836  0.2659 -0.2018
   99SAPS    C1 9892   5.750   0.245   6.472 -0.5064  0.1593  0.0397
   99SAPS    HA 9893   5.805   0.332   6.429 -1.1227  0.8829  0.6718
   99SAPS    HB 9894   5.643   0.269   6.455 -0.1530  0.6872 -1.7748
   99SAPS    C2 9895   5.779   0.229   6.624 -0.6130  0.1051  0.3125
   99SAPS    HS 9896   5.707   0.301   6.668  0.8831  1.7488  0.1595
   99SAPS   O21 9897   5.913   0.262   6.655 -0.3820 -0.6338  0.3893
   99SAPS   C21 9898   5.940   0.393   6.653  0.2931  0.4850 -0.7885
   99SAPS   O22 9899   5.870   0.483   6.613  0.0166  0.5017  0.4047
   99SAPS   C22 9900   6.079   0.414   6.712  0.0934  0.5283  0.1820
   99SAPS   H2R 9901   6.057   0.404   6.820 -0.3684  0.6175  0.0984
   99SAPS   H2S 9902   6.136   0.325   6.678 -2.1688 -1.2287  0.7226
   99SAPS    C3 9903   5.739   0.100   6.686  0.1466  0.5261  0.2250
   99SAPS    HX 9904   5.783   0.098   6.788  1.4863  1.1139 -0.3179
   99SAPS    HY 9905   5.803   0.024   6.636 -1.6875 -0.1863 -1.1582
   99SAPS   O31 9906   5.600   0.051   6.680 -0.1609  0.1450  0.0618
   99SAPS   C31 9907   5.571  -0.047   6.768  0.1525 -0.0624  0.1691
   99SAPS   O32 9908   5.651  -0.098   6.844  0.3346 -0.2605  0.1937
   99SAPS   C32 9909   5.425  -0.083   6.745  0.0912  0.7129  0.0787
   99SAPS   H2X 9910   5.386  -0.029   6.657  0.7535 -0.1603 -0.7737
   99SAPS   H2Y 9911   5.363  -0.060   6.835  1.3582  0.3942  1.0700
   99SAPS   C23 9912   6.125   0.558   6.681 -0.1530  0.0458 -0.2163
   99SAPS   H3R 9913   6.039   0.627   6.666 -0.9419 -1.1145 -1.2173
   99SAPS   H3S 9914   6.195   0.575   6.597  1.8044 -2.0759  0.8795
   99SAPS   C24 9915   6.206   0.607   6.811 -0.0521  0.1808  0.5618
   99SAPS   H4R 9916   6.165   0.572   6.909 -4.6418  0.5622 -0.9980
   99SAPS   H4S 9917   6.208   0.717   6.805  0.5143  0.0995 -1.5601
   99SAPS   C25 9918   6.346   0.567   6.797 -0.6247  0.2777 -0.6836
   99SAPS   H5R 9919   6.406   0.590   6.707  1.3038 -0.7649  0.2812
   99SAPS   C26 9920   6.418   0.507   6.897 -0.6285  0.3541  0.0295
   99SAPS   H6R 9921   6.525   0.497   6.877 -0.5237  1.3191  0.0322
   99SAPS   C27 9922   6.360   0.461   7.028  0.0187  0.4875 -0.5923
   99SAPS   H7R 9923   6.259   0.424   6.999  1.0950 -1.6540 -1.8438
   99SAPS   H7S 9924   6.347   0.552   7.090  0.4142 -0.4584  0.9427
   99SAPS   C28 9925   6.434   0.355   7.098 -0.6839 -0.1184  0.5080
   99SAPS   H8R 9926   6.476   0.278   7.032 -0.2572 -1.5835  2.4100
   99SAPS   C29 9927   6.472   0.363   7.224 -0.3027 -0.3717  0.2328
   99SAPS   H9R 9928   6.536   0.281   7.259 -0.2237  0.7225  2.8850
   99SAPS  C210 9929   6.455   0.468   7.329 -0.4917 -0.2881 -0.1764
   99SAPS  H10R 9930   6.427   0.568   7.291  1.4267 -0.0281 -1.0087
   99SAPS  H10S 9931   6.562   0.481   7.357 -0.1309 -0.2529 -1.4961
   99SAPS  C211 9932   6.369   0.436   7.445  0.6597  0.6142  0.0615
   99SAPS  H11R 9933   6.261   0.445   7.425  0.8387  1.2635 -0.6919
   99SAPS  C212 9934   6.409   0.399   7.568  0.2671  0.2161 -0.3828
   99SAPS  H12R 9935   6.338   0.384   7.651  0.2776 -1.5584 -0.6512
   99SAPS  C213 9936   6.552   0.375   7.607  0.8468 -0.0435  0.0930
   99SAPS  H13R 9937   6.606   0.472   7.597 -0.6931  0.8013 -0.3968
   99SAPS  H13S 9938   6.605   0.307   7.538  1.1156  0.5132 -0.2547
   99SAPS  C214 9939   6.560   0.319   7.748  0.7023 -0.7370 -0.5937
   99SAPS  H14R 9940   6.584   0.213   7.761  2.2109 -0.4008 -0.4140
   99SAPS  C215 9941   6.542   0.388   7.859  0.2106 -0.1109 -0.3020
   99SAPS  H15R 9942   6.572   0.332   7.948 -0.1583 -1.3789 -0.9482
   99SAPS  C216 9943   6.502   0.531   7.883 -0.0745  0.4770  0.5499
   99SAPS  H16R 9944   6.422   0.546   7.807  0.9839 -0.5783 -0.8152
   99SAPS  H16S 9945   6.578   0.609   7.862  0.8811 -0.4425  0.5311
   99SAPS  C217 9946   6.426   0.553   8.011  0.6794  0.7382  0.0653
   99SAPS  H17R 9947   6.357   0.469   8.034  1.5223  0.4385  1.6386
   99SAPS  H17S 9948   6.356   0.639   8.009 -1.5512 -0.9160  2.0118
   99SAPS  C218 9949   6.524   0.575   8.140  0.4720  0.0128  0.2056
   99SAPS  H18R 9950   6.566   0.483   8.187 -1.5973 -1.4555 -0.7000
   99SAPS  H18S 9951   6.468   0.630   8.219 -1.2947 -0.2272 -0.8328
   99SAPS  C219 9952   6.658   0.652   8.118 -0.1459 -0.0347 -0.1695
   99SAPS  H19R 9953   6.642   0.758   8.088  2.5432  0.2436 -0.9341
   99SAPS  H19S 9954   6.710   0.614   8.027 -1.7417  1.7255 -1.9143
   99SAPS  C220 9955   6.754   0.641   8.235  1.0718 -0.9343  0.7371
   99SAPS  H20R 9956   6.851   0.691   8.214  0.7374 -0.2837  0.7259
   99SAPS  H20S 9957   6.762   0.534   8.264  0.8105 -1.2763 -0.4314
   99SAPS  H20T 9958   6.716   0.702   8.320  1.4398 -0.5055  0.5990
   99SAPS   C33 9959   5.411  -0.232   6.714 -0.5267 -0.2277 -0.9084
   99SAPS   H3X 9960   5.498  -0.293   6.746  0.1851  0.6493 -1.1073
   99SAPS   H3Y 9961   5.383  -0.254   6.609  0.5738 -1.1008 -1.0341
   99SAPS   C34 9962   5.301  -0.304   6.801 -0.1024  0.5757 -0.3326
   99SAPS   H4X 9963   5.208  -0.262   6.757 -1.2569 -1.2571  0.2339
   99SAPS   H4Y 9964   5.310  -0.278   6.909  3.2335  2.4276 -0.9062
   99SAPS   C35 9965   5.293  -0.458   6.791 -0.4434 -0.2287  0.3869
   99SAPS   H5X 9966   5.383  -0.502   6.838 -0.5381  0.2341  1.0227
   99SAPS   H5Y 9967   5.296  -0.484   6.683 -2.6964 -2.9881  0.8557
   99SAPS   C36 9968   5.169  -0.520   6.857  0.9395 -0.8540 -0.4882
   99SAPS   H6X 9969   5.083  -0.476   6.802 -0.6283 -1.6940  1.1720
   99SAPS   H6Y 9970   5.160  -0.492   6.964  0.0965 -1.6555 -0.3386
   99SAPS   C37 9971   5.179  -0.677   6.844 -0.3443  0.7298 -0.0884
   99SAPS   H7X 9972   5.279  -0.708   6.882 -0.6540  1.3347  1.3078
   99SAPS   H7Y 9973   5.173  -0.702   6.736  0.9588 -0.6544  0.1270
   99SAPS   C38 9974   5.077  -0.767   6.914 -0.3580 -0.2599 -0.5059
   99SAPS   H8X 9975   5.079  -0.871   6.877 -1.0262  0.2565 -2.0478
   99SAPS   H8Y 9976   4.982  -0.727   6.874 -0.4988 -0.5764 -0.4907
   99SAPS   C39 9977   5.073  -0.761   7.069 -0.1921  0.6665  0.9121
   99SAPS   H9X 9978   5.044  -0.664   7.113 -0.2747  0.8988  0.3562
   99SAPS   H9Y 9979   5.173  -0.800   7.097  0.5141 -0.6266 -2.8344
   99SAPS  C310 9980   4.973  -0.873   7.125 -0.5395 -0.7214  0.0550
   99SAPS  H10X 9981   5.020  -0.972   7.144 -2.4421 -1.3619  1.6987
   99SAPS  H10Y 9982   4.890  -0.898   7.056 -0.3391  1.7678 -1.2111
   99SAPS  C311 9983   4.905  -0.823   7.252  1.0537 -0.2428 -1.3622
   99SAPS  H11X 9984   4.837  -0.906   7.280  0.3654  0.7271 -0.0761
   99SAPS  H11Y 9985   4.838  -0.739   7.226  0.4861  0.4333  1.9087
   99SAPS  C312 9986   4.993  -0.781   7.375  0.0713 -0.9565 -0.4808
   99SAPS  H12X 9987   5.027  -0.678   7.351  2.1644 -1.8952 -1.8480
   99SAPS  H12Y 9988   5.083  -0.845   7.386  0.4691 -0.2993  0.1865
   99SAPS  C313 9989   4.919  -0.782   7.510 -0.1117  0.2318 -0.7970
   99SAPS  H13X 9990   4.886  -0.888   7.522  2.1737 -0.5196 -0.5999
   99SAPS  H13Y 9991   4.838  -0.705   7.511 -1.7148 -1.3810 -0.2196
   99SAPS  C314 9992   5.017  -0.750   7.625  0.1402 -0.7639  0.2112
   99SAPS  H14X 9993   5.052  -0.649   7.596 -1.0924 -0.1512  0.7550
   99SAPS  H14Y 9994   5.102  -0.821   7.619 -0.2235 -1.4967  2.6291
   99SAPS  C315 9995   4.942  -0.744   7.762 -0.0163 -0.4566  0.3708
   99SAPS  H15X 9996   4.880  -0.835   7.777  1.3901 -1.5406 -0.1697
   99SAPS  H15Y 9997   4.862  -0.670   7.741  1.1525  0.9039  0.5306
   99SAPS  C316 9998   5.028  -0.730   7.883 -0.3720 -0.6681 -0.2202
   99SAPS  H16X 9999   5.107  -0.652   7.875 -1.3971  0.5078  0.6691
   99SAPS  H16Y10000   5.086  -0.824   7.899  1.9051  0.7796  0.4993
   99SAPS  C31710001   4.952  -0.694   8.010  0.0823 -0.1152  0.0643
   99SAPS  H17X10002   4.888  -0.784   8.020  0.7507 -0.4786  1.1621
   99SAPS  H17Y10003   4.891  -0.604   7.987 -1.8346 -0.9071  1.7679
   99SAPS  C31810004   5.036  -0.666   8.136 -0.1601 -0.1181  1.1555
   99SAPS  H18X10005   5.088  -0.759   8.168 -1.8024 -1.7910 -0.7390
   99SAPS  H18Y10006   4.974  -0.632   8.221 -0.5703  0.9087  0.4606
   99SAPS  H18Z10007   5.107  -0.586   8.105  0.3970 -0.0187  2.5720
  100SAPS     N10008   1.481   0.970   5.959 -0.4724  0.0901  0.9905
  100SAPS   HN110009   1.543   0.894   5.994 -0.1451 -0.1960 -0.1606
  100SAPS   HN210010   1.391   0.980   6.009 -2.0576  3.7554 -2.0615
  100SAPS   HN310011   1.467   0.933   5.863 -0.7767  0.9487  0.6889
  100SAPS   C1210012   1.552   1.104   5.944  0.6367  0.0696  0.4389
  100SAPS  H12A10013   1.639   1.077   5.886  1.0787  1.7590  0.2523
  100SAPS   C1310014   1.474   1.217   5.874  0.2847  0.4862  0.2661
  100SAPS  O13A10015   1.358   1.191   5.834 -0.6283 -0.3960  0.6154
  100SAPS  O13B10016   1.511   1.330   5.890  0.2222 -0.3364 -0.4294
  100SAPS   C1110017   1.587   1.145   6.091  0.2726 -0.1920 -0.2767
  100SAPS  H11A10018   1.492   1.166   6.143  0.1812 -0.9391 -0.1276
  100SAPS  H11B10019   1.640   1.242   6.083  0.9520 -0.5437 -0.1205
  100SAPS     P10020   1.800   1.054   6.221  0.1436  0.0189 -0.5255
  100SAPS   O1310021   1.855   0.920   6.250  0.3394 -0.5739  0.1770
  100SAPS   O1410022   1.887   1.149   6.149 -0.4519  0.1002  0.0998
  100SAPS   O1210023   1.662   1.042   6.151  0.4162 -0.1398  0.4269
  100SAPS   O1110024   1.777   1.107   6.363  0.3244 -0.1982  0.2295
  100SAPS    C110025   1.661   1.172   6.408 -0.1797  0.6459 -0.3590
  100SAPS    HA10026   1.643   1.265   6.350 -2.7054  1.2487  1.2539
  100SAPS    HB10027   1.569   1.109   6.408 -0.4741  0.8377 -4.5076
  100SAPS    C210028   1.681   1.197   6.564 -0.5694  0.4390  1.2998
  100SAPS    HS10029   1.594   1.253   6.605 -0.2508  0.6140  1.7384
  100SAPS   O2110030   1.796   1.275   6.594  0.1046  0.1126 -0.4254
  100SAPS   C2110031   1.780   1.402   6.560  0.8109  0.2695 -0.5442
  100SAPS   O2210032   1.678   1.465   6.539  0.1810 -0.0665  0.2237
  100SAPS   C2210033   1.915   1.464   6.577  0.5096  0.3448  0.3501
  100SAPS   H2R10034   1.966   1.425   6.668  1.2160 -0.0997 -0.2304
  100SAPS   H2S10035   1.968   1.417   6.491  0.3821  1.8119 -0.5620
  100SAPS    C310036   1.685   1.055   6.637  0.0598 -0.2995  0.3384
  100SAPS    HX10037   1.747   0.973   6.596  0.0798 -0.7785  1.2927
  100SAPS    HY10038   1.580   1.020   6.632 -0.4210  1.2011 -0.5672
  100SAPS   O3110039   1.724   1.066   6.775 -0.3214  0.3804  0.5105
  100SAPS   C3110040   1.851   1.050   6.808  0.2868  1.3667  0.2011
  100SAPS   O3210041   1.942   1.017   6.732 -0.3896  0.8065  0.4734
  100SAPS   C3210042   1.871   1.061   6.961  0.1576  0.0555 -0.7591
  100SAPS   H2X10043   1.777   1.024   7.007  0.1709 -1.1969 -1.6573
  100SAPS   H2Y10044   1.875   1.169   6.987 -0.2110 -0.3308  1.0166
  100SAPS   C2310045   1.900   1.614   6.578 -0.4027 -0.6027 -0.0816
  100SAPS   H3R10046   1.843   1.647   6.489  0.2901  1.7946  0.3013
  100SAPS   H3S10047   2.001   1.660   6.570 -1.1373  0.9560 -0.7901
  100SAPS   C2410048   1.841   1.674   6.701 -0.6263  0.2739 -0.7682
  100SAPS   H4R10049   1.737   1.637   6.699 -0.4298 -0.4758  1.0156
  100SAPS   H4S10050   1.829   1.784   6.695 -1.9004  0.0947 -1.8216
  100SAPS   C2510051   1.895   1.625   6.836 -0.3718 -0.0314 -0.0971
  100SAPS   H5R10052   2.000   1.652   6.854 -0.2520 -1.0380  0.7915
  100SAPS   C2610053   1.822   1.546   6.920 -0.7730  0.3792  0.7357
  100SAPS   H6R10054   1.873   1.506   7.009  1.5651  0.8661 -0.3282
  100SAPS   C2710055   1.684   1.494   6.908  0.4917 -0.1116 -0.9328
  100SAPS   H7R10056   1.663   1.421   6.989  0.6211  0.2170 -0.5996
  100SAPS   H7S10057   1.667   1.445   6.810  1.9365 -1.3439 -0.6018
  100SAPS   C2810058   1.580   1.602   6.906 -0.3457 -0.5077 -0.0040
  100SAPS   H8R10059   1.536   1.627   6.808  1.9268  1.0864 -0.7167
  100SAPS   C2910060   1.541   1.673   7.009 -0.1371 -0.0382  0.7379
  100SAPS   H9R10061   1.456   1.741   6.991 -0.0666 -0.2796 -0.5880
  100SAPS  C21010062   1.591   1.649   7.148  0.7947 -0.9211  0.0491
  100SAPS  H10R10063   1.692   1.691   7.166  0.8243 -0.8122 -0.3517
  100SAPS  H10S10064   1.606   1.542   7.172  0.4525 -0.6664  1.4823
  100SAPS  C21110065   1.499   1.716   7.251 -0.0895  0.9804 -0.4142
  100SAPS  H11R10066   1.395   1.717   7.216  0.5302  3.3979 -2.5018
  100SAPS  C21210067   1.527   1.758   7.373  0.2188  0.0423  0.5871
  100SAPS  H12R10068   1.438   1.793   7.428 -0.9811  0.1947 -1.3330
  100SAPS  C21310069   1.661   1.749   7.453  0.1671 -0.0042 -0.1908
  100SAPS  H13R10070   1.731   1.733   7.368  0.1385  3.3423 -0.9781
  100SAPS  H13S10071   1.659   1.660   7.520 -1.1814  1.2967  1.5699
  100SAPS  C21410072   1.702   1.870   7.535 -0.0644  0.3124  0.4043
  100SAPS  H14R10073   1.746   1.956   7.481  0.6385  0.5152  1.2720
  100SAPS  C21510074   1.687   1.891   7.669  0.0032 -0.2890  1.0324
  100SAPS  H15R10075   1.725   1.981   7.720  1.8747  0.0945 -0.9216
  100SAPS  C21610076   1.613   1.800   7.761  0.4146 -0.4602 -0.5326
  100SAPS  H16R10077   1.570   1.715   7.704 -0.3250  0.1362 -0.8762
  100SAPS  H16S10078   1.519   1.844   7.801 -0.6276 -1.9059 -1.2711
  100SAPS  C21710079   1.682   1.752   7.893  0.3435 -0.5092 -0.6227
  100SAPS  H17R10080   1.773   1.696   7.864  0.5100 -0.5673  0.0009
  100SAPS  H17S10081   1.619   1.682   7.952  0.8467  0.2088  0.8216
  100SAPS  C21810082   1.727   1.863   7.984  0.1757 -0.5270 -0.0981
  100SAPS  H18R10083   1.655   1.946   8.003  2.4257  1.0216  2.3114
  100SAPS  H18S10084   1.811   1.914   7.932  1.4979 -2.8032 -0.3054
  100SAPS  C21910085   1.768   1.814   8.123  0.5484  0.2194  0.1901
  100SAPS  H19R10086   1.861   1.754   8.114 -1.1722 -2.5998  0.0939
  100SAPS  H19S10087   1.704   1.737   8.169  1.4050  0.6925  2.3101
  100SAPS  C22010088   1.793   1.928   8.222  0.3688 -0.0591 -0.4597
  100SAPS  H20R10089   1.864   2.002   8.179  1.6156  0.2902  1.9980
  100SAPS  H20S10090   1.827   1.892   8.322  0.2237  0.8274 -0.0774
  100SAPS  H20T10091   1.697   1.977   8.250  0.2147 -1.9726  2.9556
  100SAPS   C3310092   1.987   0.972   7.015 -0.5303 -0.7175  0.5782
  100SAPS   H3X10093   2.084   0.996   6.967 -0.1260 -2.6017  0.3524
  100SAPS   H3Y10094   1.977   0.873   6.965  0.5576  1.1309 -3.8063
  100SAPS   C3410095   2.006   0.965   7.169  0.6290 -0.4972  0.0267
  100SAPS   H4X10096   1.960   1.052   7.221  0.3189  0.7404 -2.1878
  100SAPS   H4Y10097   2.116   0.979   7.183 -0.0295  3.1848  3.2696
  100SAPS   C3510098   1.961   0.833   7.226  1.4067  0.7228  0.4612
  100SAPS   H5X10099   2.021   0.755   7.174  0.3270  0.2997 -0.1756
  100SAPS   H5Y10100   1.854   0.819   7.202  1.4885 -1.1232  0.9923
  100SAPS   C3610101   1.978   0.835   7.377  0.2862 -0.0287  0.1799
  100SAPS   H6X10102   1.932   0.740   7.411  0.4399 -0.5474 -1.0349
  100SAPS   H6Y10103   1.917   0.919   7.418 -2.1609 -1.3045 -0.6644
  100SAPS   C3710104   2.123   0.833   7.424  0.3572  0.4387 -0.6269
  100SAPS   H7X10105   2.172   0.927   7.391 -0.6058  0.2199 -2.8624
  100SAPS   H7Y10106   2.175   0.744   7.382  2.2501  1.1655  0.0457
  100SAPS   C3810107   2.125   0.810   7.578 -0.2027  0.2947  0.6282
  100SAPS   H8X10108   2.228   0.781   7.609  0.9578  2.2174 -1.1745
  100SAPS   H8Y10109   2.062   0.721   7.599 -0.6896  0.3748 -0.4140
  100SAPS   C3910110   2.063   0.923   7.653 -0.6602  0.0853 -0.2086
  100SAPS   H9X10111   1.960   0.934   7.614 -1.1642  0.4790  1.1641
  100SAPS   H9Y10112   2.123   1.015   7.639 -1.3822  0.4700 -0.8234
  100SAPS  C31010113   2.048   0.894   7.802  0.1275  0.0553  0.0907
  100SAPS  H10X10114   2.001   0.801   7.840  0.2801  0.5169  1.4958
  100SAPS  H10Y10115   1.975   0.973   7.832  0.7621  0.7974 -0.2921
  100SAPS  C31110116   2.178   0.895   7.885 -0.2773 -0.4686  0.2449
  100SAPS  H11X10117   2.235   0.990   7.872  1.6281 -1.5427  0.4920
  100SAPS  H11Y10118   2.246   0.815   7.849  0.0207  0.2549 -0.8506
  100SAPS  C31210119   2.157   0.874   8.036 -0.7131 -0.5340 -0.0828
  100SAPS  H12X10120   2.109   0.774   8.046 -3.6401  0.9633  2.1576
  100SAPS  H12Y10121   2.098   0.957   8.079  1.7503  1.5370 -0.4061
  100SAPS  C31310122   2.285   0.881   8.116 -0.2236 -0.6764 -0.0835
  100SAPS  H13X10123   2.337   0.978   8.102 -1.5582 -0.1163 -1.4989
  100SAPS  H13Y10124   2.358   0.807   8.076 -0.0750 -0.6464  0.1357
  100SAPS  C31410125   2.268   0.859   8.269 -0.2205 -0.0509  0.3125
  100SAPS  H14X10126   2.182   0.914   8.311  0.8112  0.7860  1.4148
  100SAPS  H14Y10127   2.365   0.885   8.318  0.6120  0.7979 -1.6331
  100SAPS  C31510128   2.260   0.706   8.287 -0.3468 -0.5808 -0.0905
  100SAPS  H15X10129   2.350   0.653   8.249  0.1639  0.4316 -0.3469
  100SAPS  H15Y10130   2.171   0.668   8.232 -1.3577  0.2908  0.8992
  100SAPS  C31610131   2.249   0.665   8.436  0.2999  0.0701 -0.1779
  100SAPS  H16X10132   2.184   0.739   8.486  0.1927  0.3932 -0.7832
  100SAPS  H16Y10133   2.346   0.665   8.491 -0.8069 -2.7127  2.0156
  100SAPS  C31710134   2.181   0.526   8.461  0.1169  0.2486 -0.4955
  100SAPS  H17X10135   2.188   0.506   8.570 -0.5846  2.0741 -0.0863
  100SAPS  H17Y10136   2.245   0.454   8.404 -1.7849 -0.7998 -1.4186
  100SAPS  C31810137   2.036   0.507   8.426  0.4756  0.4134  0.4492
  100SAPS  H18X10138   1.964   0.570   8.482  0.0599  1.0654 -0.7727
  100SAPS  H18Y10139   2.004   0.401   8.429  0.9180  0.0742 -3.0133
  100SAPS  H18Z10140   2.014   0.532   8.320 -2.1021 -1.0978  0.5461
  101OSM      N10141   0.075   1.631  11.173 -0.0309 -0.2050 -0.2305
  101OSM    C1510142  -0.038   1.588  11.269 -0.5959  0.2071  0.6048
  101OSM   H15A10143  -0.133   1.615  11.223 -0.7770 -1.2387  0.0548
  101OSM   H15B10144  -0.023   1.632  11.366  0.3157 -0.6863  0.8884
  101OSM   H15C10145  -0.026   1.481  11.279 -0.3249 -0.1983 -2.8413
  101OSM    C1410146   0.059   1.775  11.143 -0.0872  0.3159  0.2215
  101OSM   H14A10147   0.131   1.805  11.067 -1.8081 -1.9197 -2.5214
  101OSM   H14B10148   0.068   1.836  11.231 -0.8568  1.5451 -0.5328
  101OSM   H14C10149  -0.044   1.789  11.113 -0.3601  0.4746  1.2242
  101OSM    C1310150   0.213   1.622  11.244  0.2786 -0.6234  0.3003
  101OSM   H13A10151   0.244   1.519  11.253  0.2296 -0.5268  1.8593
  101OSM   H13B10152   0.209   1.677  11.337  0.1365  0.5296 -0.3749
  101OSM   H13C10153   0.293   1.665  11.185  1.5209 -1.7015  1.1428
  101OSM    C1210154   0.078   1.545  11.049 -0.5967  0.2409 -0.2722
  101OSM   H12A10155   0.170   1.556  10.994 -0.5400 -1.9808 -0.6884
  101OSM   H12B10156   0.005   1.581  10.977  0.6492  1.1966 -1.0981
  101OSM    C1110157   0.071   1.391  11.074  0.0906 -0.3324 -0.3890
  101OSM   H11A10158  -0.035   1.360  11.089  0.8598 -3.5068 -0.6949
  101OSM   H11B10159   0.120   1.349  11.165  0.8397  0.4077 -0.4425
  101OSM      P10160   0.252   1.259  10.931  0.1153  0.0226  0.1100
  101OSM    O1310161   0.350   1.353  10.870  0.1460 -0.2713  0.3965
  101OSM    O1410162   0.300   1.197  11.052  0.2120 -0.2273  0.1633
  101OSM    O1110163   0.226   1.144  10.822 -0.5696 -0.1647 -0.1282
  101OSM    O1210164   0.113   1.319  10.957  0.4183  0.1637  0.3248
  101OSM    C1S10165   0.134   1.159  10.718 -0.4261  0.3323 -0.5788
  101OSM    H1S10166   0.065   1.245  10.736  0.8741  1.2583  0.1353
  101OSM    H1T10167   0.075   1.065  10.721  1.8228 -1.1436 -0.3278
  101OSM     NF10168   0.112   1.222  10.479  0.1277 -0.9446  0.5022
  101OSM    HNF10169   0.070   1.153  10.420  0.6897 -1.9589  1.2557
  101OSM    C2S10170   0.206   1.177  10.583  0.2170 -0.1521 -0.2046
  101OSM    H2S10171   0.280   1.260  10.597  0.4925 -0.5562  0.8028
  101OSM    C3S10172   0.287   1.051  10.541 -0.0634  0.2431 -0.4572
  101OSM    H3S10173   0.213   0.979  10.500 -1.2796  2.2550 -1.9816
  101OSM     O310174   0.360   0.995  10.656 -0.1152  0.6637 -0.0076
  101OSM    HO310175   0.311   1.022  10.735  2.1187  0.2904  1.6068
  101OSM    C4S10176   0.382   1.089  10.430 -0.4155 -0.2627  0.7705
  101OSM    H4S10177   0.335   1.079  10.332  0.2267  1.0559  0.2981
  101OSM    C5S10178   0.515   1.125  10.434  0.0970  0.5696 -0.5280
  101OSM    H5S10179   0.568   1.119  10.529  1.0735 -0.3625 -1.1076
  101OSM    C6S10180   0.605   1.137  10.312 -0.6346 -0.1449  0.4239
  101OSM    H6S10181   0.694   1.071  10.321 -0.5852 -0.7047 -2.7760
  101OSM    H6T10182   0.669   1.227  10.323 -0.3287 -0.2839 -0.1705
  101OSM    C7S10183   0.539   1.138  10.173 -0.2258  0.2721  0.6739
  101OSM    H7S10184   0.456   1.211  10.162 -0.5991 -0.1607  0.5719
  101OSM    H7T10185   0.493   1.039  10.147 -0.9287  0.7596 -0.0258
  101OSM    C8S10186   0.637   1.163  10.054 -0.1520  0.3545  0.3230
  101OSM    H8S10187   0.718   1.088  10.046  1.8695  2.0478  3.1380
  101OSM    H8T10188   0.690   1.256  10.083 -1.6479  1.4824 -0.3860
  101OSM    C9S10189   0.552   1.182   9.926 -0.8330 -0.0134  0.4813
  101OSM    H9S10190   0.464   1.249   9.937 -0.0312  0.7517  3.1002
  101OSM    H9T10191   0.512   1.081   9.905  0.4402 -0.7337  1.3933
  101OSM   C10S10192   0.639   1.223   9.809 -0.1887 -0.1743  0.2307
  101OSM   H10S10193   0.727   1.157   9.797 -1.1412 -1.5116  0.4411
  101OSM   H10T10194   0.667   1.329   9.825  0.6728 -0.1540 -1.2706
  101OSM   C11S10195   0.567   1.207   9.676  0.2874  0.6178 -0.3724
  101OSM   H11S10196   0.483   1.277   9.658 -0.6513  0.0547  1.5691
  101OSM   H11T10197   0.516   1.109   9.671  0.8197  0.3272 -0.1540
  101OSM   C12S10198   0.667   1.198   9.559 -0.0085 -0.2733 -0.0536
  101OSM   H12S10199   0.720   1.100   9.559 -0.1546 -0.3796  1.4912
  101OSM   H12T10200   0.744   1.275   9.581 -0.1063 -0.6248  1.7014
  101OSM   C13S10201   0.598   1.224   9.419 -0.3753 -0.5016 -0.4069
  101OSM   H13S10202   0.543   1.320   9.427 -1.4202 -0.9742 -1.5959
  101OSM   H13T10203   0.539   1.133   9.397  1.8610 -2.1417  0.0078
  101OSM   C14S10204   0.706   1.241   9.314  0.2043  0.1437 -0.0633
  101OSM   H14S10205   0.756   1.143   9.300 -1.2178 -0.6376  0.0717
  101OSM   H14T10206   0.780   1.316   9.348  0.4200  1.1636 -2.6099
  101OSM   C15S10207   0.647   1.299   9.187  0.2667  0.0536  0.7154
  101OSM   H15S10208   0.738   1.345   9.141 -1.0690  1.9770 -0.1162
  101OSM   H15T10209   0.587   1.389   9.214  0.2353  0.2150  0.1269
  101OSM   C16S10210   0.552   1.214   9.104 -0.3444  0.1412 -0.4736
  101OSM   H16S10211   0.445   1.225   9.130 -0.7585 -0.3320 -1.8990
  101OSM   H16T10212   0.579   1.107   9.102  0.0738  0.2220 -2.9988
  101OSM   C17S10213   0.562   1.264   8.961  0.2294  0.0656  0.7954
  101OSM   H17S10214   0.670   1.264   8.933  1.4442 -2.3649  4.6852
  101OSM   H17T10215   0.518   1.366   8.957  1.9302  0.8019 -1.6950
  101OSM   C18S10216   0.495   1.182   8.841  0.4432  0.3085 -0.4499
  101OSM   H18S10217   0.404   1.132   8.880 -0.7069  1.2241 -1.8484
  101OSM   H18T10218   0.571   1.105   8.815 -0.2639 -0.4477 -0.3250
  101OSM   H18U10219   0.479   1.246   8.751 -0.8007 -1.2785 -1.4112
  101OSM    C1F10220   0.050   1.343  10.469  0.6917 -0.1438  0.5754
  101OSM     OF10221   0.076   1.421  10.562  0.6201 -0.0145 -0.2045
  101OSM    C2F10222  -0.041   1.361  10.352  0.4039  0.2629 -0.1534
  101OSM    H2F10223  -0.117   1.281  10.364 -0.8589  1.4291 -0.0372
  101OSM    H2G10224   0.012   1.340  10.257 -0.9319  1.4494 -1.1977
  101OSM    C3F10225  -0.123   1.497  10.342 -0.1957  0.1205  0.4693
  101OSM    H3F10226  -0.051   1.580  10.330 -0.6443  0.4594  0.0484
  101OSM    H3G10227  -0.178   1.519  10.436 -1.7711 -0.3687 -0.2961
  101OSM    C4F10228  -0.229   1.508  10.231  0.1457 -0.1450 -0.1783
  101OSM    H4F10229  -0.278   1.607  10.240 -1.0999 -0.5503 -1.9485
  101OSM    H4G10230  -0.310   1.434  10.244 -0.7771  0.3786 -2.4266
  101OSM    C5F10231  -0.171   1.495  10.090 -0.3991 -0.2703  0.0903
  101OSM    H5F10232  -0.122   1.398  10.070  1.3577  0.8674 -1.5049
  101OSM    H5G10233  -0.094   1.574  10.074 -0.3833 -0.3579 -0.2910
  101OSM    C6F10234  -0.287   1.502   9.986  0.0887  0.2706  0.2702
  101OSM    H6F10235  -0.342   1.597  10.004  2.1701  1.8891 -1.3437
  101OSM    H6G10236  -0.355   1.415   9.980 -0.6808  0.9823 -3.1786
  101OSM    C7F10237  -0.240   1.518   9.836 -0.0122 -0.7288 -0.2761
  101OSM    H7F10238  -0.182   1.426   9.812  1.4297 -0.7425  2.7676
  101OSM    H7G10239  -0.169   1.603   9.828 -0.3299 -0.2311  1.6554
  101OSM    C8F10240  -0.362   1.548   9.743  0.0047  0.0347  0.3083
  101OSM    H8F10241  -0.420   1.634   9.782  2.2475  1.3202  0.9963
  101OSM    H8G10242  -0.433   1.463   9.750 -0.9867  0.8085 -0.2133
  101OSM    C9F10243  -0.318   1.555   9.598  0.1165  0.0465  0.1474
  101OSM    H9F10244  -0.269   1.466   9.555 -0.4080  0.9043 -2.3808
  101OSM   C10F10245  -0.346   1.657   9.515  0.5207  0.4528  0.7711
  101OSM   H10F10246  -0.331   1.651   9.407 -2.4676  3.6726  0.0119
  101OSM   C11F10247  -0.431   1.777   9.542 -0.0669 -1.1639 -0.6965
  101OSM   H11F10248  -0.366   1.865   9.566 -1.9626 -0.4898  2.5879
  101OSM   H11G10249  -0.487   1.756   9.635  1.4960 -0.3800  0.4753
  101OSM   C12F10250  -0.530   1.826   9.439  0.5546 -0.0506 -0.5381
  101OSM   H12F10251  -0.592   1.912   9.472  0.8424  2.0785 -4.8140
  101OSM   H12G10252  -0.607   1.752   9.409 -0.3160  1.0675 -1.1008
  101OSM   C13F10253  -0.464   1.885   9.308  0.3706 -0.1971  0.5486
  101OSM   H13F10254  -0.353   1.884   9.307  0.3869  0.6483  0.1197
  101OSM   H13G10255  -0.490   1.993   9.298  0.2469 -0.1955  0.8828
  101OSM   C14F10256  -0.536   1.831   9.180 -0.6407  0.4470  0.6453
  101OSM   H14F10257  -0.647   1.839   9.185 -0.7384  1.3861 -1.4919
  101OSM   H14G10258  -0.509   1.725   9.166  0.9845  0.5925  2.3446
  101OSM   C15F10259  -0.490   1.909   9.057 -0.0718 -0.6087  0.5641
  101OSM   H15F10260  -0.383   1.881   9.054 -0.1874 -1.4593  2.4619
  101OSM   H15G10261  -0.514   2.017   9.064 -1.0303 -0.7934  0.3561
  101OSM   C16F10262  -0.563   1.860   8.930 -0.2722 -0.3333  0.1249
  101OSM   H16F10263  -0.527   1.758   8.906  1.3069  0.0695  0.6215
  101OSM   H16G10264  -0.527   1.930   8.852 -0.5846 -0.9026 -0.5331
  101OSM   C17F10265  -0.710   1.870   8.923  0.4587 -0.1095  0.1999
  101OSM   H17F10266  -0.734   1.978   8.920 -0.5647 -0.2518  1.6431
  101OSM   H17G10267  -0.750   1.823   9.016  0.0390 -2.2264 -0.9808
  101OSM   C18F10268  -0.769   1.793   8.807  0.2851 -0.0648  0.1373
  101OSM   H18F10269  -0.850   1.731   8.850  0.7676 -0.3291  0.6654
  101OSM   H18G10270  -0.693   1.723   8.767  2.0296  0.5654  2.1805
  101OSM   H18H10271  -0.803   1.868   8.732  0.2769  0.2801  0.4861
  102OSM      N10272   0.909   0.707  10.945 -0.5588 -0.2670  0.2945
  102OSM    C1510273   0.932   0.683  10.797 -0.6918 -0.3494 -0.5591
  102OSM   H15A10274   0.853   0.629  10.747 -1.1504  0.7282 -1.0372
  102OSM   H15B10275   1.018   0.620  10.780 -1.3417 -1.1321 -1.0593
  102OSM   H15C10276   0.955   0.775  10.745 -0.1447  0.4896  1.1085
  102OSM    C1410277   1.025   0.798  10.984  0.8394  0.0134 -0.5937
  102OSM   H14A10278   1.033   0.885  10.920  0.8656 -1.5855 -2.8683
  102OSM   H14B10279   1.109   0.731  10.984  0.3236 -0.6548  0.5269
  102OSM   H14C10280   1.009   0.837  11.084  1.8880  2.5670 -1.3417
  102OSM    C1310281   0.781   0.772  10.976 -0.4772 -0.2392  0.1764
  102OSM   H13A10282   0.697   0.721  10.930 -0.2480  0.8810 -1.5974
  102OSM   H13B10283   0.774   0.874  10.941  1.5652  0.0390  0.4937
  102OSM   H13C10284   0.769   0.775  11.083 -0.9899  2.4283  0.1321
  102OSM    C1210285   0.924   0.571  11.007  0.4097 -0.3859 -0.2619
  102OSM   H12A10286   0.859   0.507  10.949  0.7443  0.5494 -1.7302
  102OSM   H12B10287   0.893   0.584  11.109 -2.1161 -0.2517 -0.9761
  102OSM    C1110288   1.058   0.493  11.008  0.1197  0.2452  0.0433
  102OSM   H11A10289   1.046   0.394  11.058  1.5379 -0.7874 -1.5876
  102OSM   H11B10290   1.143   0.542  11.060 -0.5306  0.2987  1.1105
  102OSM      P10291   1.200   0.357  10.829  0.2562 -0.0795  0.2290
  102OSM    O1310292   1.317   0.427  10.772  0.2658 -0.1007 -0.3034
  102OSM    O1410293   1.217   0.262  10.940  0.2767  0.0324 -0.2861
  102OSM    O1110294   1.126   0.283  10.707 -0.7388  0.5657  1.2015
  102OSM    O1210295   1.098   0.467  10.872  0.1007  0.4891 -0.2609
  102OSM    C1S10296   1.048   0.373  10.624 -0.6009  0.0437 -0.4008
  102OSM    H1S10297   1.075   0.481  10.632 -0.3097 -0.1073  0.6997
  102OSM    H1T10298   0.940   0.368  10.651 -0.5116 -0.7195 -0.1854
  102OSM     NF10299   0.960   0.415  10.387 -0.2046  0.0086  0.1534
  102OSM    HNF10300   0.885   0.358  10.355  0.8133  0.3868 -3.2435
  102OSM    C2S10301   1.063   0.343  10.472  0.2286  0.1041  0.8251
  102OSM    H2S10302   1.165   0.375  10.441  0.4343 -1.0232  0.2740
  102OSM    C3S10303   1.074   0.183  10.444  0.8038 -0.0158  0.2975
  102OSM    H3S10304   0.976   0.140  10.476  1.0731 -1.3613 -0.6123
  102OSM     O310305   1.168   0.106  10.523  0.2407  0.2446  0.3409
  102OSM    HO310306   1.180   0.162  10.600  0.1810  1.0068 -0.1857
  102OSM    C4S10307   1.091   0.156  10.299 -0.0179 -0.6226  0.5333
  102OSM    H4S10308   0.991   0.141  10.255  0.7501  0.8657 -1.9674
  102OSM    C5S10309   1.199   0.133  10.223 -0.0115 -0.7330  0.7125
  102OSM    H5S10310   1.297   0.144  10.271  0.5795 -0.4726 -0.5000
  102OSM    C6S10311   1.185   0.102  10.079 -0.2117  0.3251 -0.1193
  102OSM    H6S10312   1.215  -0.003  10.059  0.5554  0.8295 -1.8020
  102OSM    H6T10313   1.262   0.158  10.022  1.3820 -3.1771 -1.7459
  102OSM    C7S10314   1.049   0.131  10.006 -0.3611 -0.0438 -0.1867
  102OSM    H7S10315   1.002   0.224  10.043  2.2528  2.1624 -2.0514
  102OSM    H7T10316   0.981   0.047  10.035  0.2415 -0.4561  0.0465
  102OSM    C8S10317   1.058   0.126   9.851  0.1158 -0.2136 -1.0114
  102OSM    H8S10318   1.147   0.177   9.807  1.2543 -1.9877 -0.8503
  102OSM    H8T10319   0.973   0.174   9.797 -1.4965 -0.8604  0.8450
  102OSM    C9S10320   1.060  -0.017   9.796  0.1324  0.1785 -1.3121
  102OSM    H9S10321   0.961  -0.063   9.820 -1.4711  3.4116 -1.0662
  102OSM    H9T10322   1.143  -0.067   9.849 -1.0885  0.0262  0.5528
  102OSM   C10S10323   1.074  -0.027   9.644  0.4055  0.5378 -0.4481
  102OSM   H10S10324   1.174   0.016   9.621  0.5353  1.4974  1.6489
  102OSM   H10T10325   1.004   0.047   9.599 -0.1813  0.3625  0.1570
  102OSM   C11S10326   1.065  -0.173   9.595  1.0082  0.1333 -0.1207
  102OSM   H11S10327   0.965  -0.210   9.627  0.3609 -0.9505 -3.0766
  102OSM   H11T10328   1.132  -0.237   9.656 -2.9751 -2.1809  2.2705
  102OSM   C12S10329   1.083  -0.168   9.447 -0.6295  0.6200  0.4495
  102OSM   H12S10330   1.170  -0.107   9.414 -0.9263  0.2348 -1.1119
  102OSM   H12T10331   0.991  -0.125   9.400  0.1626  0.7752 -1.0030
  102OSM   C13S10332   1.114  -0.310   9.395  0.3618 -0.3255  0.1828
  102OSM   H13S10333   1.020  -0.368   9.405  0.5248 -0.5505  0.4386
  102OSM   H13T10334   1.204  -0.348   9.447  0.7766  0.6728  0.2187
  102OSM   C14S10335   1.148  -0.321   9.244  0.7964  0.0061 -0.3525
  102OSM   H14S10336   1.142  -0.430   9.222  1.1132 -0.6860  2.5406
  102OSM   H14T10337   1.253  -0.293   9.222  1.1463 -0.8922  0.1178
  102OSM   C15S10338   1.046  -0.259   9.150 -0.2357  0.1489  0.2338
  102OSM   H15S10339   1.052  -0.150   9.175  0.6335 -0.3529  2.5029
  102OSM   H15T10340   0.944  -0.297   9.172  0.4339 -0.4141  2.7279
  102OSM   C16S10341   1.072  -0.281   8.996  0.1943 -0.5301 -0.3368
  102OSM   H16S10342   1.045  -0.382   8.959  2.1260 -0.6646 -1.5253
  102OSM   H16T10343   1.180  -0.259   8.978  0.0351  1.1269  0.5647
  102OSM   C17S10344   1.001  -0.161   8.919  0.5302  0.2662 -0.6838
  102OSM   H17S10345   1.032  -0.067   8.970 -1.1249  0.1594  0.6043
  102OSM   H17T10346   0.895  -0.169   8.949  0.9122 -1.0269  0.3854
  102OSM   C18S10347   1.004  -0.155   8.765 -0.4825 -0.9789  0.3116
  102OSM   H18S10348   0.923  -0.094   8.719 -0.3415 -0.5360  0.6461
  102OSM   H18T10349   1.003  -0.260   8.729  0.0243 -0.1531 -2.3742
  102OSM   H18U10350   1.101  -0.119   8.724 -0.7292 -1.4019 -0.6755
  102OSM    C1F10351   0.952   0.550  10.386  0.0742  0.4383 -0.0892
  102OSM     OF10352   1.050   0.628  10.389 -0.1173  0.4149 -0.1755
  102OSM    C2F10353   0.813   0.604  10.390  0.3185 -0.3996 -0.2557
  102OSM    H2F10354   0.817   0.707  10.432  0.1885 -0.2685 -0.5560
  102OSM    H2G10355   0.750   0.544  10.459 -1.1730 -0.4533 -1.5837
  102OSM    C3F10356   0.746   0.609  10.252  0.3367  0.0547 -0.0042
  102OSM    H3F10357   0.753   0.511  10.200  0.5375 -0.7969  1.5317
  102OSM    H3G10358   0.800   0.672  10.178  0.3361  0.8274  0.6422
  102OSM    C4F10359   0.605   0.663  10.261 -0.1955 -0.4459 -1.3536
  102OSM    H4F10360   0.611   0.770  10.290 -0.5466 -1.0811  1.3482
  102OSM    H4G10361   0.550   0.609  10.341  0.1017  2.4000  0.9048
  102OSM    C5F10362   0.526   0.654  10.131 -0.1912 -0.7022 -0.1120
  102OSM    H5F10363   0.422   0.684  10.154  0.4123  0.5557  1.1299
  102OSM    H5G10364   0.529   0.546  10.104 -0.4846 -1.1967  1.6967
  102OSM    C6F10365   0.581   0.738  10.010 -0.2774 -0.0701 -0.4586
  102OSM    H6F10366   0.679   0.704   9.973 -0.0513  2.7064 -2.7892
  102OSM    H6G10367   0.589   0.845  10.040 -0.2230  0.1024 -1.0775
  102OSM    C7F10368   0.488   0.738   9.884 -0.0521  0.5010  0.0934
  102OSM    H7F10369   0.404   0.808   9.907 -1.6647 -0.9828 -1.0313
  102OSM    H7G10370   0.449   0.636   9.862  1.7892  0.4601 -3.8406
  102OSM    C8F10371   0.550   0.777   9.748  0.2345 -0.1725  0.5850
  102OSM    H8F10372   0.601   0.876   9.756  2.7285 -1.4240  1.1399
  102OSM    H8G10373   0.466   0.798   9.678  1.8859  0.9696 -1.1650
  102OSM    C9F10374   0.650   0.677   9.697 -0.8689  0.2011  0.4220
  102OSM    H9F10375   0.743   0.685   9.755  0.7698  1.6346 -2.2173
  102OSM   C10F10376   0.632   0.575   9.605  0.7021  0.2917  0.1810
  102OSM   H10F10377   0.722   0.514   9.585  0.9852  0.9921 -0.7582
  102OSM   C11F10378   0.518   0.533   9.516 -0.3116 -0.4992 -0.9243
  102OSM   H11F10379   0.439   0.609   9.532 -1.9315 -1.6957 -2.6978
  102OSM   H11G10380   0.477   0.432   9.541  1.4019 -1.4651 -1.8485
  102OSM   C12F10381   0.537   0.526   9.364  0.0404  0.3999  0.7789
  102OSM   H12F10382   0.439   0.525   9.312 -0.0263 -1.6637  0.8795
  102OSM   H12G10383   0.580   0.428   9.335 -0.1322  0.8984 -1.4175
  102OSM   C13F10384   0.611   0.644   9.307  0.4428 -0.4163 -0.5824
  102OSM   H13F10385   0.717   0.653   9.339 -0.3817  1.4831  1.9039
  102OSM   H13G10386   0.557   0.732   9.350  1.0820 -1.4160  2.5119
  102OSM   C14F10387   0.607   0.648   9.155 -0.2781 -0.3621 -0.5289
  102OSM   H14F10388   0.503   0.666   9.119 -0.8873 -0.1191  1.2484
  102OSM   H14G10389   0.624   0.545   9.118  0.2867 -0.2212 -0.6609
  102OSM   C15F10390   0.694   0.753   9.092  0.3102  0.0428  0.2473
  102OSM   H15F10391   0.792   0.756   9.145  0.5368  0.0471 -0.1652
  102OSM   H15G10392   0.659   0.856   9.110  0.6998  0.5172 -1.5467
  102OSM   C16F10393   0.712   0.734   8.933 -0.2735 -0.1238 -0.3585
  102OSM   H16F10394   0.788   0.654   8.924  2.6807  2.2939  1.1536
  102OSM   H16G10395   0.750   0.833   8.901  0.5690  0.1630  1.4265
  102OSM   C17F10396   0.585   0.708   8.850  0.5129  0.4868 -0.5838
  102OSM   H17F10397   0.536   0.618   8.891  3.2245 -0.1177  1.6356
  102OSM   H17G10398   0.622   0.671   8.752 -0.7397 -0.7955 -0.5962
  102OSM   C18F10399   0.485   0.824   8.839  0.1125  0.3839  0.4000
  102OSM   H18F10400   0.499   0.871   8.739 -2.5245  0.6958  0.1015
  102OSM   H18G10401   0.497   0.902   8.917 -0.8847  1.7111 -0.7038
  102OSM   H18H10402   0.380   0.789   8.844 -0.3259  1.5966  0.1167
  103OSM      N10403   3.245   2.104  11.160  0.3648 -0.6257 -0.0589
  103OSM    C1510404   3.285   1.958  11.159  0.1934 -0.0286 -0.3317
  103OSM   H15A10405   3.281   1.919  11.059  1.0678 -2.8947  0.6572
  103OSM   H15B10406   3.214   1.900  11.217 -1.7127  1.5623 -0.9552
  103OSM   H15C10407   3.388   1.937  11.184  1.3669  2.1285 -2.9419
  103OSM    C1410408   3.100   2.106  11.125  0.1437  0.5915 -0.3880
  103OSM   H14A10409   3.054   2.203  11.139  2.0083  1.3322  0.9355
  103OSM   H14B10410   3.045   2.039  11.191  1.7150 -0.0663  0.3070
  103OSM   H14C10411   3.084   2.075  11.023 -3.1183  1.8959 -0.4053
  103OSM    C1310412   3.267   2.167  11.295  0.2807 -0.0494  0.1437
  103OSM   H13A10413   3.253   2.274  11.291  0.5670 -0.0504 -1.2759
  103OSM   H13B10414   3.366   2.142  11.333  0.0270 -0.6354  0.4379
  103OSM   H13C10415   3.192   2.130  11.363  0.3218 -0.1070  0.1580
  103OSM    C1210416   3.328   2.183  11.054  0.6741 -0.5353 -0.2341
  103OSM   H12A10417   3.308   2.127  10.964  0.0087 -0.8952  0.1232
  103OSM   H12B10418   3.435   2.188  11.066  0.5793  1.0694  0.1700
  103OSM    C1110419   3.272   2.328  11.033 -0.2237  0.2931 -0.2525
  103OSM   H11A10420   3.162   2.319  11.040 -0.1584 -1.0638 -0.5730
  103OSM   H11B10421   3.292   2.379  10.937  0.0222  1.5378  0.4412
  103OSM      P10422   3.473   2.472  11.107  0.0129  0.2978 -0.0304
  103OSM    O1310423   3.482   2.610  11.149  0.0330 -0.0603  0.1006
  103OSM    O1410424   3.580   2.371  11.151  0.9323  0.0704 -0.2573
  103OSM    O1110425   3.478   2.484  10.948  0.4553 -0.2679 -1.1738
  103OSM    O1210426   3.327   2.412  11.132 -0.1887  0.1194 -0.2238
  103OSM    C1S10427   3.560   2.396  10.874  0.4509  0.4592 -0.5375
  103OSM    H1S10428   3.515   2.294  10.873  1.3783 -0.1490  3.2761
  103OSM    H1T10429   3.667   2.407  10.905  0.4426 -0.7274 -0.0401
  103OSM     NF10430   3.605   2.323  10.634 -0.1340  0.2980  0.5054
  103OSM    HNF10431   3.698   2.302  10.604 -1.0924 -3.7749 -0.1819
  103OSM    C2S10432   3.577   2.431  10.722  0.1811  0.0894  0.1062
  103OSM    H2S10433   3.473   2.464  10.699 -1.1677 -2.9524  1.2710
  103OSM    C3S10434   3.668   2.559  10.706 -0.3742  0.5060  0.2246
  103OSM    H3S10435   3.754   2.531  10.770 -0.7850 -0.8947  0.2135
  103OSM     O310436   3.613   2.669  10.772 -0.3184  0.0878 -0.0071
  103OSM    HO310437   3.540   2.630  10.821 -0.6670 -0.7953 -1.1762
  103OSM    C4S10438   3.703   2.587  10.565  0.5311 -0.2079  0.9398
  103OSM    H4S10439   3.774   2.516  10.519 -0.3974 -0.5691  0.0292
  103OSM    C5S10440   3.644   2.675  10.481  0.7085 -0.4280  0.1341
  103OSM    H5S10441   3.563   2.741  10.516 -0.4828 -1.9864  0.4149
  103OSM    C6S10442   3.675   2.691  10.334 -1.2476 -0.5534  0.0330
  103OSM    H6S10443   3.696   2.799  10.317 -1.7572  0.3953  4.2506
  103OSM    H6T10444   3.584   2.671  10.274 -1.6739 -1.5955  0.9810
  103OSM    C7S10445   3.800   2.623  10.272 -0.1953 -0.8068  0.0538
  103OSM    H7S10446   3.800   2.522  10.318  0.4930 -1.2228 -0.8242
  103OSM    H7T10447   3.890   2.680  10.304 -0.2858 -0.4230 -0.3598
  103OSM    C8S10448   3.791   2.622  10.118 -0.3170  0.4513  0.0523
  103OSM    H8S10449   3.699   2.583  10.070 -0.1001 -0.4469  0.3380
  103OSM    H8T10450   3.874   2.561  10.076 -0.8708  0.3550 -0.9142
  103OSM    C9S10451   3.800   2.768  10.062 -0.4092 -0.1449 -0.2727
  103OSM    H9S10452   3.884   2.824  10.110 -0.5809 -0.7188  0.7259
  103OSM    H9T10453   3.703   2.820  10.069 -1.6234 -1.9576 -2.2615
  103OSM   C10S10454   3.854   2.758   9.917 -0.0338  0.1985  0.2604
  103OSM   H10S10455   3.948   2.698   9.919 -0.9293 -1.2472  1.9028
  103OSM   H10T10456   3.872   2.858   9.872  0.9613 -0.3090 -0.5047
  103OSM   C11S10457   3.760   2.692   9.803 -0.3925  0.3685 -0.6814
  103OSM   H11S10458   3.652   2.720   9.809 -0.8707 -1.2668 -0.9209
  103OSM   H11T10459   3.749   2.582   9.817  1.4256  0.1187 -1.0245
  103OSM   C12S10460   3.820   2.711   9.664 -0.2084 -0.0369 -0.2037
  103OSM   H12S10461   3.918   2.657   9.668 -0.4959 -0.5189  0.3876
  103OSM   H12T10462   3.853   2.816   9.648 -1.1327  0.3278  0.2696
  103OSM   C13S10463   3.730   2.670   9.548 -0.5337  0.3872 -0.2021
  103OSM   H13S10464   3.626   2.709   9.558 -1.5882 -2.7521  3.3105
  103OSM   H13T10465   3.720   2.560   9.559 -1.6863  0.3658 -1.2212
  103OSM   C14S10466   3.799   2.698   9.418 -0.5326 -0.1390  0.7434
  103OSM   H14S10467   3.896   2.644   9.412 -0.2340  0.4016  0.5207
  103OSM   H14T10468   3.826   2.805   9.403  1.9113 -0.9001 -0.9079
  103OSM   C15S10469   3.725   2.662   9.298  0.0789 -0.2445  1.4017
  103OSM   H15S10470   3.627   2.715   9.295  0.2905  0.1031 -0.4182
  103OSM   H15T10471   3.714   2.551   9.301  2.7087 -0.7019 -1.0048
  103OSM   C16S10472   3.796   2.703   9.169 -0.5300 -0.1405 -0.1567
  103OSM   H16S10473   3.887   2.639   9.161 -0.5482 -0.2710  0.5618
  103OSM   H16T10474   3.824   2.811   9.173  1.1825 -0.5686  0.1264
  103OSM   C17S10475   3.712   2.681   9.042  0.6080 -0.2439 -0.6589
  103OSM   H17S10476   3.622   2.747   9.040  0.0108 -0.9118  1.5224
  103OSM   H17T10477   3.675   2.577   9.035 -0.1972  0.1180 -2.2890
  103OSM   C18S10478   3.787   2.704   8.910 -0.2118  0.6117 -0.8080
  103OSM   H18S10479   3.881   2.645   8.907 -0.9779 -0.7689  0.6467
  103OSM   H18T10480   3.811   2.811   8.897 -1.4940  1.2368  1.4208
  103OSM   H18U10481   3.717   2.680   8.827  0.7455 -0.1225 -1.4370
  103OSM    C1F10482   3.508   2.246  10.596 -0.8629 -0.1846 -0.5505
  103OSM     OF10483   3.391   2.245  10.646  0.6143 -0.5632  0.5782
  103OSM    C2F10484   3.540   2.125  10.506  0.0824 -0.5491 -1.0778
  103OSM    H2F10485   3.543   2.032  10.566 -0.2136 -0.4024 -0.8279
  103OSM    H2G10486   3.638   2.144  10.458  0.0453 -1.3096 -1.4581
  103OSM    C3F10487   3.426   2.117  10.399 -0.3208 -0.4850 -0.8222
  103OSM    H3F10488   3.331   2.110  10.457 -0.0387 -0.4780 -0.3547
  103OSM    H3G10489   3.446   2.028  10.336 -0.1828 -0.0953 -1.3362
  103OSM    C4F10490   3.422   2.236  10.310  0.5097  0.2720 -0.1220
  103OSM    H4F10491   3.525   2.269  10.282  0.9766 -2.0403 -1.3995
  103OSM    H4G10492   3.387   2.326  10.364 -1.6441 -0.5694 -0.0454
  103OSM    C5F10493   3.319   2.219  10.185  0.9091 -0.9187 -1.1252
  103OSM    H5F10494   3.295   2.325  10.164  1.9571  0.0479  2.0195
  103OSM    H5G10495   3.236   2.158  10.227 -0.3110  1.0545 -0.5576
  103OSM    C6F10496   3.381   2.151  10.062 -0.8098 -0.9825  0.2992
  103OSM    H6F10497   3.306   2.098   9.999 -1.4349 -1.1884  1.2014
  103OSM    H6G10498   3.443   2.064  10.091 -2.3960 -1.8951  1.1385
  103OSM    C7F10499   3.465   2.257   9.983 -0.7248 -0.3309  0.3749
  103OSM    H7F10500   3.552   2.207   9.934 -0.3547 -0.0757  0.7654
  103OSM    H7G10501   3.508   2.342  10.039  3.2623 -0.8516 -1.5396
  103OSM    C8F10502   3.381   2.335   9.872  0.4206  0.6698 -0.8129
  103OSM    H8F10503   3.436   2.427   9.846 -0.3652  1.0561 -1.1327
  103OSM    H8G10504   3.290   2.380   9.917  1.6179  3.3670 -0.9129
  103OSM    C9F10505   3.342   2.237   9.760 -0.1588 -0.0337 -0.4772
  103OSM    H9F10506   3.283   2.150   9.791  0.6644 -0.3932  0.1072
  103OSM   C10F10507   3.387   2.260   9.633  0.4350 -0.8562 -1.0362
  103OSM   H10F10508   3.349   2.193   9.554 -2.8082 -0.2097 -0.1645
  103OSM   C11F10509   3.478   2.373   9.598  0.3925 -0.0650 -0.5940
  103OSM   H11F10510   3.585   2.353   9.622  0.0211 -1.5252 -0.0592
  103OSM   H11G10511   3.455   2.474   9.640 -1.4523 -0.5892 -0.2607
  103OSM   C12F10512   3.483   2.402   9.449 -0.0907  0.8831  0.9442
  103OSM   H12F10513   3.542   2.491   9.419 -0.3952  0.6523 -0.3824
  103OSM   H12G10514   3.379   2.411   9.411  0.5884  0.8015 -1.0490
  103OSM   C13F10515   3.537   2.284   9.367  0.3110 -0.0576 -0.1269
  103OSM   H13F10516   3.645   2.276   9.390 -0.0566  0.9378  2.3569
  103OSM   H13G10517   3.478   2.198   9.407  0.2231  0.9929  2.1415
  103OSM   C14F10518   3.504   2.285   9.216  0.0724 -0.6654  0.1609
  103OSM   H14F10519   3.561   2.365   9.164 -1.5907  1.3598  1.2608
  103OSM   H14G10520   3.396   2.312   9.216  0.1916 -0.1657  0.1889
  103OSM   C15F10521   3.537   2.151   9.138  0.8496  0.5093 -1.7529
  103OSM   H15F10522   3.494   2.063   9.191  0.1072  1.9482  0.1424
  103OSM   H15G10523   3.647   2.138   9.145  0.5553 -1.4737  0.9396
  103OSM   C16F10524   3.487   2.152   8.991  0.3462 -0.0331 -0.0812
  103OSM   H16F10525   3.525   2.235   8.929 -0.9406 -1.4067 -2.8938
  103OSM   H16G10526   3.377   2.161   8.975  0.3027  1.9136  1.0402
  103OSM   C17F10527   3.523   2.022   8.914  0.5722 -0.4209  0.1746
  103OSM   H17F10528   3.465   1.931   8.942 -1.6007  1.3336  1.7683
  103OSM   H17G10529   3.629   1.996   8.940  1.0590  1.4363  0.1905
  103OSM   C18F10530   3.513   2.043   8.761  0.1898  0.2295 -0.0502
  103OSM   H18F10531   3.506   1.941   8.718  0.1882 -0.7834  2.2117
  103OSM   H18G10532   3.595   2.094   8.706  1.1572 -4.4378 -3.6433
  103OSM   H18H10533   3.424   2.103   8.732 -0.5562  0.1271  1.8844
  104OSM      N10534   6.356   3.927  10.716  0.4073  0.3319  0.3912
  104OSM    C1510535   6.404   3.968  10.847 -0.4388  0.3924 -0.0148
  104OSM   H15A10536   6.474   4.050  10.834  1.6148 -1.3850 -0.6735
  104OSM   H15B10537   6.449   3.883  10.896 -3.9163 -1.2753  0.5532
  104OSM   H15C10538   6.335   3.999  10.924 -0.1781 -0.7602  0.6917
  104OSM    C1410539   6.269   3.805  10.727 -0.6655  0.0094 -0.3229
  104OSM   H14A10540   6.202   3.817  10.811 -1.4023 -0.6865 -0.7913
  104OSM   H14B10541   6.330   3.722  10.759 -0.5920  0.5770  1.0928
  104OSM   H14C10542   6.216   3.770  10.640 -1.4641  0.5243 -0.0523
  104OSM    C1310543   6.273   4.033  10.647  0.5571  0.5262 -0.0615
  104OSM   H13A10544   6.183   4.058  10.703  0.1611  0.7188 -0.7719
  104OSM   H13B10545   6.240   4.010  10.547  0.2850  0.3311  0.0715
  104OSM   H13C10546   6.328   4.125  10.637 -0.6254  1.0419 -2.8609
  104OSM    C1210547   6.476   3.903  10.624 -0.2358  0.3321 -0.4073
  104OSM   H12A10548   6.547   3.980  10.648  1.8341 -1.6961  0.3901
  104OSM   H12B10549   6.448   3.928  10.524 -1.1380  0.7634 -0.0540
  104OSM    C1110550   6.555   3.769  10.637 -0.8233 -0.6834 -0.4873
  104OSM   H11A10551   6.622   3.761  10.549  0.2794 -0.2454  0.2920
  104OSM   H11B10552   6.494   3.676  10.630 -1.6006 -0.2139 -0.0460
  104OSM      P10553   6.773   3.786  10.809  0.6042 -0.0088  0.0424
  104OSM    O1310554   6.834   3.905  10.748  0.1668 -0.2143  0.6694
  104OSM    O1410555   6.783   3.776  10.954 -0.0427 -0.1188 -0.5140
  104OSM    O1110556   6.839   3.653  10.753  0.1595  0.2521  0.9422
  104OSM    O1210557   6.619   3.775  10.765 -0.2781  0.0522 -0.2082
  104OSM    C1S10558   6.885   3.652  10.618  0.2978 -0.5147  0.4787
  104OSM    H1S10559   6.954   3.738  10.605  0.8819 -0.8737  1.1598
  104OSM    H1T10560   6.796   3.646  10.551  0.4668 -1.7535  0.3321
  104OSM     NF10561   7.016   3.527  10.455  0.0084 -0.1535 -0.6501
  104OSM    HNF10562   6.964   3.508  10.372  1.4938 -2.7115 -1.1253
  104OSM    C2S10563   6.954   3.512  10.586 -0.4861 -0.0642  0.8002
  104OSM    H2S10564   7.037   3.503  10.660 -1.4109 -0.6508  1.7983
  104OSM    C3S10565   6.855   3.394  10.613 -0.2045  0.4130 -0.2414
  104OSM    H3S10566   6.765   3.403  10.548 -0.8670 -1.1149  0.4213
  104OSM     O310567   6.795   3.401  10.741  0.3480 -0.1642 -0.0662
  104OSM    HO310568   6.814   3.490  10.772  0.9578  0.6765 -2.6621
  104OSM    C4S10569   6.909   3.263  10.588 -0.4855  0.9735 -0.5158
  104OSM    H4S10570   6.897   3.232  10.484 -0.7180 -0.2656 -0.1285
  104OSM    C5S10571   6.980   3.186  10.674  0.1222 -0.1104  0.3763
  104OSM    H5S10572   7.011   3.229  10.770 -1.8273 -3.3540  2.7003
  104OSM    C6S10573   7.032   3.044  10.653  0.2683 -0.3421 -0.2177
  104OSM    H6S10574   6.990   2.978  10.731 -0.7695  1.5293  0.8812
  104OSM    H6T10575   7.143   3.052  10.659  0.3098 -0.2602 -0.9063
  104OSM    C7S10576   7.006   2.977  10.514 -0.6620 -0.4618  0.3317
  104OSM    H7S10577   7.046   3.045  10.435 -0.7459 -1.2931 -0.4480
  104OSM    H7T10578   6.895   2.967  10.512 -0.5943 -2.0260  2.2252
  104OSM    C8S10579   7.059   2.841  10.494 -0.3431 -0.0893 -0.9098
  104OSM    H8S10580   7.017   2.773  10.572 -1.0811 -0.7360 -1.8413
  104OSM    H8T10581   7.169   2.830  10.500 -0.5233 -1.9467 -0.1464
  104OSM    C9S10582   7.035   2.770  10.356  0.3495  0.2604 -0.3068
  104OSM    H9S10583   6.936   2.796  10.313  0.3128  0.5633 -0.0426
  104OSM    H9T10584   7.025   2.663  10.384 -3.1772  0.1164 -1.5955
  104OSM   C10S10585   7.151   2.784  10.258  0.4374  0.2150  0.6346
  104OSM   H10S10586   7.237   2.723  10.293 -0.3237 -1.1303  0.2409
  104OSM   H10T10587   7.187   2.888  10.245  0.2857  0.0396 -1.4572
  104OSM   C11S10588   7.111   2.713  10.123 -0.1260  0.7086 -0.5634
  104OSM   H11S10589   7.200   2.746  10.065  0.6119  0.0139  0.1434
  104OSM   H11T10590   7.017   2.758  10.085 -0.7087 -0.6584 -0.7824
  104OSM   C12S10591   7.102   2.561  10.136  0.3608 -1.0841 -0.1308
  104OSM   H12S10592   6.997   2.526  10.145 -1.0257  2.3994 -1.3038
  104OSM   H12T10593   7.159   2.528  10.225  1.2904 -1.3839 -0.8176
  104OSM   C13S10594   7.160   2.489  10.005  0.9448  0.1792  0.1971
  104OSM   H13S10595   7.178   2.382  10.030 -0.6479 -0.0287  0.5318
  104OSM   H13T10596   7.257   2.539   9.983 -0.9448  3.0030 -2.5633
  104OSM   C14S10597   7.061   2.487   9.890 -0.8497  0.4022 -0.4704
  104OSM   H14S10598   7.037   2.592   9.862  0.4325  0.7453 -0.3535
  104OSM   H14T10599   6.966   2.435   9.914  1.5436 -3.4283  1.8448
  104OSM   C15S10600   7.129   2.412   9.779  0.2932 -0.1967  0.6471
  104OSM   H15S10601   7.231   2.453   9.765  0.8774 -0.8163  2.8052
  104OSM   H15T10602   7.072   2.428   9.684  0.7230  1.8217  0.6768
  104OSM   C16S10603   7.127   2.257   9.782 -1.1056 -0.1064  0.0862
  104OSM   H16S10604   7.029   2.210   9.805 -0.8373 -2.3474 -2.8137
  104OSM   H16T10605   7.202   2.218   9.854 -0.3638 -1.2075 -1.2302
  104OSM   C17S10606   7.171   2.200   9.644 -0.0285 -0.6136 -0.1876
  104OSM   H17S10607   7.105   2.239   9.563  0.6661  0.8489 -0.0909
  104OSM   H17T10608   7.155   2.091   9.650  2.9058 -1.0746  0.5414
  104OSM   C18S10609   7.318   2.222   9.613 -0.3262 -0.6104  0.3125
  104OSM   H18S10610   7.397   2.201   9.688  0.7758  1.3871 -0.2103
  104OSM   H18T10611   7.317   2.328   9.581 -1.1210 -0.1813  1.6758
  104OSM   H18U10612   7.348   2.172   9.518  0.4399  0.6237 -0.1149
  104OSM    C1F10613   7.129   3.602  10.433 -0.0911  0.2046  0.0761
  104OSM     OF10614   7.202   3.631  10.529  0.2355 -0.3958 -0.0929
  104OSM    C2F10615   7.151   3.643  10.294 -0.3228  0.5261  0.4566
  104OSM    H2F10616   7.173   3.752  10.295  0.7458  0.3900 -1.7934
  104OSM    H2G10617   7.056   3.626  10.239  0.3808  1.8367 -1.2510
  104OSM    C3F10618   7.269   3.568  10.237 -0.4984 -1.2043  0.2556
  104OSM    H3F10619   7.251   3.460  10.219  2.5399 -1.4046 -2.7614
  104OSM    H3G10620   7.362   3.577  10.297  0.1466  1.3384 -0.9565
  104OSM    C4F10621   7.307   3.608  10.085 -0.3432  0.2185 -0.4211
  104OSM    H4F10622   7.342   3.713  10.097 -2.2568  0.9058 -0.5456
  104OSM    H4G10623   7.216   3.597  10.022  0.1925 -2.0205 -0.9110
  104OSM    C5F10624   7.430   3.522  10.036 -0.1007  0.4685 -0.7047
  104OSM    H5F10625   7.382   3.427  10.005 -0.1218 -0.4261  1.8085
  104OSM    H5G10626   7.494   3.486  10.120 -0.9583  0.3481 -0.0962
  104OSM    C6F10627   7.513   3.584   9.921 -0.4015 -0.9443 -0.6621
  104OSM    H6F10628   7.596   3.512   9.906  0.8209  0.4071 -0.5287
  104OSM    H6G10629   7.544   3.687   9.948 -0.2351 -0.7938 -1.4086
  104OSM    C7F10630   7.428   3.611   9.792  0.2820 -0.1906  0.0112
  104OSM    H7F10631   7.486   3.656   9.710 -0.1555  1.4909  0.5873
  104OSM    H7G10632   7.358   3.695   9.814  0.2865  1.0419 -3.9757
  104OSM    C8F10633   7.340   3.492   9.738  1.0481 -0.6406  0.6564
  104OSM    H8F10634   7.272   3.535   9.662  2.2456  1.0869  0.5073
  104OSM    H8G10635   7.271   3.456   9.817 -2.1364  0.2829 -1.5123
  104OSM    C9F10636   7.414   3.370   9.684  0.3163 -0.3430  0.7055
  104OSM    H9F10637   7.425   3.288   9.757  0.3340 -1.9208 -1.0113
  104OSM   C10F10638   7.471   3.366   9.560  0.0434 -0.7060 -0.4793
  104OSM   H10F10639   7.535   3.279   9.542  2.1588  0.5508  0.5482
  104OSM   C11F10640   7.450   3.473   9.446 -0.3875 -0.3369 -0.0639
  104OSM   H11F10641   7.546   3.488   9.391 -0.7026  1.4804 -0.1679
  104OSM   H11G10642   7.407   3.571   9.475 -0.3933  0.0480 -1.3058
  104OSM   C12F10643   7.346   3.424   9.352 -0.3015  0.0577 -0.3450
  104OSM   H12F10644   7.314   3.502   9.279  0.0965 -0.4464 -1.0646
  104OSM   H12G10645   7.255   3.404   9.412 -0.9690  4.5453  0.5154
  104OSM   C13F10646   7.392   3.306   9.271 -0.1451  0.2064 -0.2456
  104OSM   H13F10647   7.379   3.213   9.332  2.3386 -0.0794 -0.0236
  104OSM   H13G10648   7.503   3.310   9.271 -0.0615 -1.1690 -1.1757
  104OSM   C14F10649   7.320   3.294   9.141  0.4061  0.2399  1.1297
  104OSM   H14F10650   7.359   3.364   9.065  0.9339 -0.3464  0.8534
  104OSM   H14G10651   7.209   3.293   9.148  0.3413 -1.0769  0.3481
  104OSM   C15F10652   7.332   3.148   9.084 -0.3427 -0.8508  0.2339
  104OSM   H15F10653   7.295   3.089   9.171 -0.7336  3.0933  3.0266
  104OSM   H15G10654   7.441   3.142   9.062  0.2413 -3.0604  3.1403
  104OSM   C16F10655   7.251   3.118   8.963 -0.6754  0.4160 -0.3165
  104OSM   H16F10656   7.274   3.185   8.877 -0.5466  1.0569  0.2055
  104OSM   H16G10657   7.144   3.137   8.986 -0.5309  1.9769 -0.7980
  104OSM   C17F10658   7.261   2.973   8.908  0.3724  0.3779 -0.3721
  104OSM   H17F10659   7.366   2.964   8.873  0.2758  0.0039 -0.5664
  104OSM   H17G10660   7.193   2.966   8.821  0.0799  3.4622 -0.5177
  104OSM   C18F10661   7.238   2.872   9.019  0.1858  0.4946  0.0728
  104OSM   H18F10662   7.141   2.896   9.067 -1.0031 -3.1181 -0.2316
  104OSM   H18G10663   7.323   2.881   9.091 -0.7693 -1.9918  1.6303
  104OSM   H18H10664   7.242   2.768   8.981  1.2534  0.1804  0.9868
  105OSM      N10665   6.102   3.267  10.999  0.8392  0.1902 -0.4791
  105OSM    C1510666   6.089   3.418  10.984 -0.8202 -0.1283  0.0269
  105OSM   H15A10667   6.141   3.460  10.899 -0.9658  1.1660  0.5595
  105OSM   H15B10668   6.125   3.471  11.071  0.2685 -0.7006 -0.0625
  105OSM   H15C10669   5.985   3.441  10.964 -0.7964 -0.4196 -0.4621
  105OSM    C1410670   6.247   3.226  10.996 -0.2359  0.2310 -0.1586
  105OSM   H14A10671   6.319   3.292  11.042  1.2160 -1.0704 -0.4737
  105OSM   H14B10672   6.270   3.227  10.890 -1.3345  0.3603 -0.4065
  105OSM   H14C10673   6.257   3.124  11.031  1.6116  0.7402  0.9638
  105OSM    C1310674   6.047   3.239  11.135 -0.2420  0.1704 -0.5200
  105OSM   H13A10675   5.948   3.278  11.150 -0.2489 -0.9322  3.2333
  105OSM   H13B10676   6.109   3.292  11.206 -0.1622  1.2185 -1.3501
  105OSM   H13C10677   6.036   3.133  11.154  0.3206  0.3125  0.7008
  105OSM    C1210678   6.021   3.190  10.891  0.2175  0.0945  0.1647
  105OSM   H12A10679   5.916   3.214  10.887 -0.0238 -0.8180  0.6291
  105OSM   H12B10680   6.024   3.085  10.917  1.3791  0.2395  0.7088
  105OSM    C1110681   6.072   3.198  10.747 -1.1040 -0.1914  0.1289
  105OSM   H11A10682   6.008   3.122  10.696 -1.7104 -0.2030  0.8811
  105OSM   H11B10683   6.175   3.156  10.749 -0.8209  0.4831  2.1091
  105OSM      P10684   5.927   3.389  10.634  0.1989 -0.0810 -0.3181
  105OSM    O1310685   5.809   3.343  10.719  0.1460 -0.0430 -0.3634
  105OSM    O1410686   5.944   3.538  10.617  0.0390 -0.1397 -0.2392
  105OSM    O1110687   5.914   3.318  10.499  0.4499  0.1546 -0.3381
  105OSM    O1210688   6.070   3.332  10.690  0.2127  0.4730 -0.7336
  105OSM    C1S10689   5.984   3.362  10.382 -0.7181  0.2769 -0.2693
  105OSM    H1S10690   6.088   3.394  10.405 -1.1752  1.0229  0.8360
  105OSM    H1T10691   5.937   3.456  10.344 -2.9692 -0.9449 -0.6864
  105OSM     NF10692   6.025   3.339  10.151 -0.6707 -0.1522 -0.3662
  105OSM    HNF10693   5.969   3.359  10.071 -0.4810 -0.0502 -0.4740
  105OSM    C2S10694   5.978   3.264  10.263  0.3439  0.8395  0.5382
  105OSM    H2S10695   6.040   3.173  10.276  1.4188  1.3805 -0.5856
  105OSM    C3S10696   5.831   3.214  10.251  0.5451 -0.2527 -0.5383
  105OSM    H3S10697   5.777   3.311  10.243 -0.2296 -0.4701  1.5644
  105OSM     O310698   5.778   3.144  10.363 -0.3742  0.2946  0.4689
  105OSM    HO310699   5.830   3.190  10.430  0.2300 -0.6229  0.6537
  105OSM    C4S10700   5.818   3.130  10.125 -0.0721  0.4994  0.4002
  105OSM    H4S10701   5.883   3.043  10.105 -2.7932 -1.2739 -1.5393
  105OSM    C5S10702   5.727   3.144  10.027 -0.0358 -0.1868 -0.1310
  105OSM    H5S10703   5.663   3.233  10.038  2.5610  1.7509  0.2200
  105OSM    C6S10704   5.723   3.067   9.900 -0.6840 -0.2400  0.2521
  105OSM    H6S10705   5.622   3.021   9.898 -0.4469 -0.7448 -0.2506
  105OSM    H6T10706   5.803   2.991   9.906 -0.5874 -0.0592  1.6350
  105OSM    C7S10707   5.737   3.165   9.783  0.7551 -0.7037  0.5601
  105OSM    H7S10708   5.844   3.195   9.779  0.4955  0.1555 -0.7209
  105OSM    H7T10709   5.673   3.254   9.805 -0.1876 -1.0547 -0.6323
  105OSM    C8S10710   5.693   3.095   9.649 -0.0137 -0.3027  0.0920
  105OSM    H8S10711   5.600   3.035   9.649  0.5495 -1.2643 -2.0782
  105OSM    H8T10712   5.772   3.020   9.627 -0.7499 -0.6221 -1.6023
  105OSM    C9S10713   5.693   3.183   9.525  0.4013 -0.6945  0.0333
  105OSM    H9S10714   5.790   3.234   9.507  0.4008 -0.1553  1.4151
  105OSM    H9T10715   5.621   3.267   9.533  1.1429 -0.0900  0.5664
  105OSM   C10S10716   5.651   3.098   9.403 -0.0934  0.7484  0.7053
  105OSM   H10S10717   5.543   3.075   9.414  0.1728 -0.1828  1.4722
  105OSM   H10T10718   5.708   3.005   9.382  0.7542  1.1554  1.1599
  105OSM   C11S10719   5.660   3.168   9.268  0.4615  0.0788 -0.1122
  105OSM   H11S10720   5.761   3.215   9.270 -0.3323  1.9019 -0.8352
  105OSM   H11T10721   5.589   3.252   9.276  1.5498  0.9059  1.7411
  105OSM   C12S10722   5.637   3.076   9.147  0.0498  0.2574  0.2126
  105OSM   H12S10723   5.553   3.007   9.168  0.1814  0.1292  0.3184
  105OSM   H12T10724   5.730   3.016   9.137  0.2803  0.5944  0.3292
  105OSM   C13S10725   5.603   3.142   9.020  0.3381  0.0278 -0.4622
  105OSM   H13S10726   5.688   3.209   8.995  1.3243 -1.2095 -0.5597
  105OSM   H13T10727   5.524   3.215   9.049  0.1114 -0.0370 -0.9238
  105OSM   C14S10728   5.561   3.055   8.899 -0.1238 -0.1629 -0.8231
  105OSM   H14S10729   5.473   2.994   8.927 -0.7161  1.1091  0.2050
  105OSM   H14T10730   5.647   2.989   8.875 -0.0164 -0.7845  1.0911
  105OSM   C15S10731   5.531   3.123   8.763 -0.5411  0.0849 -0.3315
  105OSM   H15S10732   5.421   3.137   8.759 -0.6840 -1.0102 -0.5484
  105OSM   H15T10733   5.554   3.054   8.680  0.0735  0.9527 -0.9015
  105OSM   C16S10734   5.592   3.264   8.738 -0.1131  0.4783 -0.0870
  105OSM   H16S10735   5.702   3.261   8.726 -0.2590  1.5666 -2.1077
  105OSM   H16T10736   5.567   3.320   8.831 -2.1232 -1.9234  0.9403
  105OSM   C17S10737   5.531   3.321   8.604 -0.0452  0.2203  0.8535
  105OSM   H17S10738   5.420   3.320   8.604 -0.2242 -0.6578 -3.8837
  105OSM   H17T10739   5.574   3.261   8.521  2.0596  0.9515  1.3592
  105OSM   C18S10740   5.585   3.459   8.575  0.0317  0.5543  0.0486
  105OSM   H18S10741   5.526   3.493   8.488 -0.0668 -3.1344 -1.5071
  105OSM   H18T10742   5.692   3.437   8.552  0.6696  0.5076  2.6895
  105OSM   H18U10743   5.578   3.517   8.670  2.3757  0.1638  0.5199
  105OSM    C1F10744   6.157   3.368  10.138  0.6501 -0.0342 -0.4528
  105OSM     OF10745   6.235   3.324  10.220  0.3077  0.3871  0.0622
  105OSM    C2F10746   6.199   3.460  10.026 -0.5488 -0.8686  0.3678
  105OSM    H2F10747   6.152   3.559  10.043 -0.3511 -0.2684 -2.1632
  105OSM    H2G10748   6.173   3.428   9.923  0.1900 -0.1084 -0.0670
  105OSM    C3F10749   6.353   3.486  10.027 -0.0216 -0.6441 -0.8007
  105OSM    H3F10750   6.392   3.493  10.131 -0.8247  0.4073 -0.5603
  105OSM    H3G10751   6.379   3.581   9.977  0.2784 -0.4293 -0.2498
  105OSM    C4F10752   6.436   3.364   9.983  0.8297 -0.0127  0.0800
  105OSM    H4F10753   6.421   3.293  10.067  1.0185 -0.1313  0.0133
  105OSM    H4G10754   6.539   3.406   9.982 -0.8309  4.7641 -2.2549
  105OSM    C5F10755   6.394   3.311   9.847 -0.7838  0.3354  0.1021
  105OSM    H5F10756   6.350   3.403   9.803  0.2500  0.9932  0.4044
  105OSM    H5G10757   6.319   3.229   9.847 -0.5695  0.1325 -0.7970
  105OSM    C6F10758   6.517   3.265   9.762 -0.1243 -0.0527 -0.0259
  105OSM    H6F10759   6.579   3.190   9.815 -0.4607 -0.3846 -0.0976
  105OSM    H6G10760   6.579   3.357   9.760  1.1899 -0.8124  2.3129
  105OSM    C7F10761   6.479   3.213   9.617  0.0577 -0.8440 -1.0617
  105OSM    H7F10762   6.429   3.301   9.572 -0.1413 -0.1847  0.4057
  105OSM    H7G10763   6.406   3.129   9.625 -0.6147 -0.1426  0.6770
  105OSM    C8F10764   6.592   3.165   9.525 -0.0475 -0.4709  1.1387
  105OSM    H8F10765   6.648   3.079   9.566  2.2469  0.0530 -0.6999
  105OSM    H8G10766   6.661   3.252   9.520 -1.3664  0.5274 -0.8922
  105OSM    C9F10767   6.543   3.137   9.382 -0.5638 -0.2464  0.3828
  105OSM    H9F10768   6.507   3.218   9.317  0.6781 -1.3163 -1.7541
  105OSM   C10F10769   6.539   3.014   9.324  0.2166 -0.2198  0.4795
  105OSM   H10F10770   6.494   3.016   9.224  4.6134  4.2520 -1.8386
  105OSM   C11F10771   6.576   2.876   9.388 -0.5271  0.1290  0.2671
  105OSM   H11F10772   6.482   2.821   9.410 -0.3150 -0.1329  0.5239
  105OSM   H11G10773   6.622   2.874   9.489 -1.2164  0.0959  0.5877
  105OSM   C12F10774   6.649   2.779   9.292 -0.2929 -0.2662 -0.2902
  105OSM   H12F10775   6.582   2.786   9.204 -1.8660 -0.1577  0.8891
  105OSM   H12G10776   6.654   2.683   9.346  0.8551 -0.4611 -0.7041
  105OSM   C13F10777   6.792   2.825   9.265 -0.3546 -0.1364 -0.4465
  105OSM   H13F10778   6.854   2.802   9.354 -0.6819 -0.1048 -0.2067
  105OSM   H13G10779   6.795   2.933   9.241  2.4051  0.0612  0.5023
  105OSM   C14F10780   6.847   2.753   9.140 -0.9977  0.1550  0.4838
  105OSM   H14F10781   6.811   2.649   9.124  3.3580 -1.2917 -1.3393
  105OSM   H14G10782   6.956   2.749   9.158 -0.5379  2.0876 -1.3919
  105OSM   C15F10783   6.813   2.835   9.011 -0.5491  0.4743  0.0209
  105OSM   H15F10784   6.859   2.935   9.020 -2.8146  2.0205 -3.5114
  105OSM   H15G10785   6.705   2.860   9.003 -0.6917 -0.4648 -1.3968
  105OSM   C16F10786   6.857   2.766   8.881  0.1483 -0.1182 -0.6858
  105OSM   H16F10787   6.954   2.715   8.898 -0.1646  0.0094  1.9846
  105OSM   H16G10788   6.885   2.833   8.798  1.4606 -1.9699 -1.8213
  105OSM   C17F10789   6.753   2.658   8.846  0.2833 -0.0725 -0.0639
  105OSM   H17F10790   6.652   2.703   8.858  0.5304  0.2744  0.8066
  105OSM   H17G10791   6.773   2.584   8.926  1.3045 -0.7860 -0.9566
  105OSM   C18F10792   6.760   2.579   8.712 -0.4141  0.4313 -0.1111
  105OSM   H18F10793   6.757   2.638   8.618 -0.7668  0.2769 -0.1988
  105OSM   H18G10794   6.677   2.505   8.703 -1.2920  1.3007  0.6296
  105OSM   H18H10795   6.859   2.527   8.712 -0.8371 -0.4815 -1.8995
  106OSM      N10796   0.188   0.337  10.889  0.2535 -0.9462 -0.2551
  106OSM    C1510797   0.145   0.269  11.028  0.5197 -0.4171 -0.5252
  106OSM   H15A10798   0.067   0.197  11.008  0.8451 -0.2965 -2.4091
  106OSM   H15B10799   0.097   0.341  11.093 -1.8443 -0.9836 -1.5444
  106OSM   H15C10800   0.235   0.229  11.072  0.0197 -1.3431 -0.3276
  106OSM    C1410801   0.060   0.359  10.809  0.2270 -0.6593 -1.0008
  106OSM   H14A10802  -0.004   0.418  10.873  0.5211 -0.2705 -1.0634
  106OSM   H14B10803   0.012   0.263  10.794  0.6821 -0.9954 -0.3979
  106OSM   H14C10804   0.078   0.403  10.713  2.8888  3.6754  1.1633
  106OSM    C1310805   0.252   0.467  10.923  1.2021  0.0426 -0.2682
  106OSM   H13A10806   0.184   0.547  10.947  0.0255  0.1389 -3.4312
  106OSM   H13B10807   0.304   0.506  10.836  1.3582  0.1354 -0.1344
  106OSM   H13C10808   0.327   0.454  10.999  1.6207 -1.2871 -0.8857
  106OSM    C1210809   0.275   0.245  10.811 -0.5317 -0.1049  0.2286
  106OSM   H12A10810   0.218   0.156  10.785  0.0752  0.3110 -3.0225
  106OSM   H12B10811   0.361   0.223  10.872 -0.4929  1.0163  0.5907
  106OSM    C1110812   0.332   0.302  10.677  0.8650  0.4460 -0.0029
  106OSM   H11A10813   0.402   0.386  10.698  0.9834 -0.0801  1.8016
  106OSM   H11B10814   0.247   0.336  10.613  0.2829  0.6202  0.8409
  106OSM      P10815   0.525   0.128  10.677  0.0575  0.2429  0.1251
  106OSM    O1310816   0.590   0.239  10.747 -0.1239 -0.4614 -0.0644
  106OSM    O1410817   0.486   0.022  10.771 -0.4501 -0.2344  0.2228
  106OSM    O1110818   0.604   0.078  10.558  0.0306 -0.2967  0.2248
  106OSM    O1210819   0.394   0.193  10.615 -0.0042 -0.7082  0.4037
  106OSM    C1S10820   0.539   0.002  10.455  0.2382  1.1194 -0.0644
  106OSM    H1S10821   0.441  -0.037  10.488  0.8400 -0.9737 -0.5623
  106OSM    H1T10822   0.603  -0.085  10.427 -0.5706  0.6789 -0.5745
  106OSM     NF10823   0.476   0.003  10.216 -0.1193  0.1238 -0.5053
  106OSM    HNF10824   0.548  -0.026  10.154 -0.0217 -0.3570 -0.1691
  106OSM    C2S10825   0.523   0.081  10.328  0.4559  0.3544 -0.7776
  106OSM    H2S10826   0.442   0.154  10.345  0.7699  0.4260  0.4436
  106OSM    C3S10827   0.654   0.157  10.270 -0.0627  1.1670 -0.6094
  106OSM    H3S10828   0.729   0.080  10.245  1.1980  0.6857  3.7251
  106OSM     O310829   0.727   0.228  10.374  0.7063 -0.0605 -0.3471
  106OSM    HO310830   0.702   0.190  10.458  1.0686  0.2112 -0.1116
  106OSM    C4S10831   0.608   0.243  10.156 -0.2067  0.3432  0.1404
  106OSM    H4S10832   0.513   0.290  10.183  0.2907  1.4132  0.0986
  106OSM    C5S10833   0.669   0.259  10.038 -0.7972  0.0101 -0.7171
  106OSM    H5S10834   0.763   0.206  10.017  0.3455  2.2139 -1.4141
  106OSM    C6S10835   0.607   0.344   9.930 -0.9001  0.3553 -0.4784
  106OSM    H6S10836   0.672   0.424   9.888 -0.5844 -0.3103 -1.3007
  106OSM    H6T10837   0.517   0.394   9.972 -1.4857 -0.7807 -0.3595
  106OSM    C7S10838   0.556   0.244   9.821  0.1895 -0.3876 -0.0265
  106OSM    H7S10839   0.485   0.303   9.760  0.3436 -0.8513 -0.6682
  106OSM    H7T10840   0.488   0.166   9.861 -0.6543 -1.5849 -3.4720
  106OSM    C8S10841   0.662   0.179   9.736  0.5803  0.0397  0.4340
  106OSM    H8S10842   0.718   0.099   9.789  3.0232  0.4216 -1.3923
  106OSM    H8T10843   0.735   0.255   9.701  2.3346 -2.7319 -2.4730
  106OSM    C9S10844   0.605   0.107   9.614  0.3341  0.2370 -0.9395
  106OSM    H9S10845   0.551   0.176   9.546  0.2467 -0.6295 -1.7765
  106OSM    H9T10846   0.528   0.035   9.651  0.1245  1.1401  0.4998
  106OSM   C10S10847   0.713   0.026   9.547 -0.6037  0.0192 -0.1401
  106OSM   H10S10848   0.767  -0.036   9.622  1.5764  1.6275 -0.2734
  106OSM   H10T10849   0.794   0.087   9.501  0.7093 -2.8852 -2.0307
  106OSM   C11S10850   0.655  -0.063   9.432 -0.0614  0.8562 -0.5322
  106OSM   H11S10851   0.561  -0.113   9.465  0.0126  1.2387  0.2829
  106OSM   H11T10852   0.727  -0.144   9.408 -0.0757 -0.0524  2.0834
  106OSM   C12S10853   0.649  -0.005   9.289  0.1207 -0.5415 -0.4113
  106OSM   H12S10854   0.592   0.090   9.300  0.9720  0.0407 -0.8208
  106OSM   H12T10855   0.601  -0.078   9.221 -0.1792 -0.5517 -0.1913
  106OSM   C13S10856   0.784   0.038   9.223  0.3106 -0.3670 -0.5155
  106OSM   H13S10857   0.855  -0.046   9.203 -0.2633 -0.7511 -0.9840
  106OSM   H13T10858   0.832   0.096   9.304  1.5432 -3.3298  1.0291
  106OSM   C14S10859   0.763   0.113   9.087 -0.3906 -0.3091 -0.2394
  106OSM   H14S10860   0.742   0.024   9.025 -0.9009 -0.6688  0.4341
  106OSM   H14T10861   0.868   0.135   9.057  0.4001  0.0265  2.4382
  106OSM   C15S10862   0.663   0.226   9.068  0.2470  0.4901  0.0266
  106OSM   H15S10863   0.677   0.313   9.136  0.7686  0.9527 -0.6709
  106OSM   H15T10864   0.562   0.182   9.085 -0.1416  0.5577 -1.8773
  106OSM   C16S10865   0.666   0.287   8.925  0.5338  0.1949 -0.6899
  106OSM   H16S10866   0.762   0.341   8.910  0.0392  1.6660  1.0410
  106OSM   H16T10867   0.580   0.357   8.936 -0.2441 -1.1114  2.7663
  106OSM   C17S10868   0.649   0.185   8.810  0.4089 -0.0666 -0.1363
  106OSM   H17S10869   0.551   0.132   8.818 -0.7889  1.3342 -3.6083
  106OSM   H17T10870   0.735   0.115   8.819 -0.7742 -1.6631 -0.7750
  106OSM   C18S10871   0.655   0.259   8.683 -0.1079  0.7043  0.0222
  106OSM   H18S10872   0.627   0.187   8.603  3.3105  0.0504 -0.7371
  106OSM   H18T10873   0.755   0.296   8.650 -0.1976  2.0783  1.1637
  106OSM   H18U10874   0.588   0.348   8.679 -0.4179  0.4750 -3.6631
  106OSM    C1F10875   0.354  -0.048  10.201  0.0146  0.6704  0.0928
  106OSM     OF10876   0.259  -0.013  10.270  0.2360 -0.1984  0.1480
  106OSM    C2F10877   0.334  -0.155  10.096 -0.5660  0.5085 -0.3158
  106OSM    H2F10878   0.363  -0.253  10.140  0.4003  0.7655 -0.3482
  106OSM    H2G10879   0.402  -0.129  10.013  1.3401  2.8797  1.7940
  106OSM    C3F10880   0.188  -0.149  10.043  0.0582 -0.0881 -0.2658
  106OSM    H3F10881   0.172  -0.040  10.028  1.6487  0.2854  0.5655
  106OSM    H3G10882   0.118  -0.196  10.115 -0.1658  0.0282 -0.4031
  106OSM    C4F10883   0.176  -0.232   9.914 -0.2321 -0.5662  0.3038
  106OSM    H4F10884   0.170  -0.340   9.940  1.0153 -1.0792 -1.4467
  106OSM    H4G10885   0.266  -0.223   9.851 -0.6491 -0.1642 -0.2467
  106OSM    C5F10886   0.064  -0.196   9.818  1.0258  0.1221 -0.1875
  106OSM    H5F10887   0.096  -0.115   9.749  1.3550  0.3979  0.2891
  106OSM    H5G10888  -0.026  -0.162   9.873 -0.1934  0.6499 -2.3708
  106OSM    C6F10889   0.030  -0.306   9.727 -0.0769 -0.1418 -0.4121
  106OSM    H6F10890  -0.072  -0.304   9.683 -1.1810  0.9050  2.0067
  106OSM    H6G10891   0.032  -0.403   9.782  1.9823 -0.6926 -1.3682
  106OSM    C7F10892   0.132  -0.308   9.607 -0.0911 -0.1680  0.0934
  106OSM    H7F10893   0.124  -0.415   9.578  1.4455  0.0615 -1.2974
  106OSM    H7G10894   0.234  -0.297   9.649  0.4393 -5.0315  0.6898
  106OSM    C8F10895   0.104  -0.215   9.489  0.0978  0.3080 -0.3382
  106OSM    H8F10896   0.081  -0.114   9.529  3.0048  0.5033  1.1382
  106OSM    H8G10897   0.015  -0.250   9.432 -1.3396 -1.2364  2.6077
  106OSM    C9F10898   0.228  -0.206   9.398 -0.6011  0.2121 -0.1585
  106OSM    H9F10899   0.315  -0.171   9.455 -0.3579  0.3304 -0.5995
  106OSM   C10F10900   0.244  -0.228   9.269 -0.0380  0.2586 -0.5593
  106OSM   H10F10901   0.343  -0.230   9.222  0.4485  1.3519  0.3952
  106OSM   C11F10902   0.137  -0.276   9.181  0.5484  0.0966 -0.1241
  106OSM   H11F10903   0.041  -0.291   9.235  0.6932 -1.5181 -0.2580
  106OSM   H11G10904   0.163  -0.373   9.135 -2.6637 -0.8084 -0.2868
  106OSM   C12F10905   0.107  -0.176   9.068 -0.3232  0.4398  0.0559
  106OSM   H12F10906   0.202  -0.168   9.012  0.4117 -0.0350  1.1952
  106OSM   H12G10907   0.082  -0.081   9.120  1.3676  0.1158  1.5501
  106OSM   C13F10908   0.000  -0.225   8.967 -0.4843  1.2352  0.2722
  106OSM   H13F10909  -0.093  -0.242   9.026  0.2406  2.2838  1.7758
  106OSM   H13G10910   0.044  -0.319   8.927 -0.7799 -0.0154  2.7095
  106OSM   C14F10911  -0.028  -0.123   8.861 -0.2588  0.3021 -0.2677
  106OSM   H14F10912   0.066  -0.087   8.815  0.0706 -0.2675 -0.0518
  106OSM   H14G10913  -0.083  -0.034   8.900 -0.0174  0.8225 -1.1024
  106OSM   C15F10914  -0.118  -0.180   8.746 -0.7139 -0.3235 -1.4170
  106OSM   H15F10915  -0.056  -0.257   8.696  0.6977  0.1222 -0.3998
  106OSM   H15G10916  -0.151  -0.106   8.670 -2.2385 -1.2918 -1.7456
  106OSM   C16F10917  -0.245  -0.256   8.791 -0.6082  0.0492  0.1469
  106OSM   H16F10918  -0.302  -0.194   8.864 -1.6993 -0.2031 -0.4689
  106OSM   H16G10919  -0.220  -0.344   8.855 -0.8226  0.8995  1.4540
  106OSM   C17F10920  -0.342  -0.297   8.678  0.4358  0.4781 -0.6348
  106OSM   H17F10921  -0.291  -0.372   8.614  2.8822  2.0329 -0.6191
  106OSM   H17G10922  -0.370  -0.208   8.618 -1.9991 -0.5443 -1.1699
  106OSM   C18F10923  -0.476  -0.358   8.733 -0.1956 -0.0045  0.0418
  106OSM   H18F10924  -0.517  -0.295   8.816 -0.5408  2.3509 -1.8010
  106OSM   H18G10925  -0.465  -0.463   8.767 -0.6875  0.2518  1.0464
  106OSM   H18H10926  -0.547  -0.356   8.648  1.8898  0.0992 -1.7605
  107OSM      N10927   2.117   3.767  11.296 -0.1184 -0.3915 -0.1555
  107OSM    C1510928   2.173   3.734  11.430 -0.0768  0.0941 -0.2110
  107OSM   H15A10929   2.281   3.741  11.442 -0.1359 -0.3774  0.6540
  107OSM   H15B10930   2.138   3.636  11.458  1.5509 -0.1641  1.1288
  107OSM   H15C10931   2.130   3.809  11.495 -2.8271 -0.9358 -0.7217
  107OSM    C1410932   2.177   3.904  11.257 -0.4578  0.4594 -0.6422
  107OSM   H14A10933   2.184   3.930  11.152  0.7400  1.8825 -0.2535
  107OSM   H14B10934   2.272   3.921  11.306 -1.2289  1.3721  0.5787
  107OSM   H14C10935   2.120   3.986  11.297 -1.4056 -0.0330 -0.9533
  107OSM    C1310936   2.177   3.677  11.199  0.6464 -0.0634 -0.0891
  107OSM   H13A10937   2.128   3.581  11.211  0.5188  0.0715  0.4813
  107OSM   H13B10938   2.285   3.671  11.202  0.6744  0.5744  0.3913
  107OSM   H13C10939   2.157   3.715  11.100  0.5984 -2.0516 -0.8849
  107OSM    C1210940   1.961   3.771  11.296 -0.5679  0.1003 -0.5528
  107OSM   H12A10941   1.937   3.846  11.370 -1.0887  1.2408 -1.8519
  107OSM   H12B10942   1.928   3.671  11.320 -1.4562  0.0830 -1.7793
  107OSM    C1110943   1.903   3.830  11.166 -0.4851  0.6102  0.5639
  107OSM   H11A10944   1.802   3.790  11.143 -0.6192  1.3932 -0.2955
  107OSM   H11B10945   1.960   3.780  11.085 -1.9850 -1.8587  0.9310
  107OSM      P10946   1.950   4.050  11.041  0.0375 -0.0036 -0.5256
  107OSM    O1310947   1.934   4.195  11.071  0.0122  0.1334 -0.3365
  107OSM    O1410948   2.084   4.011  10.994  1.1223 -0.3706  0.7448
  107OSM    O1110949   1.853   3.993  10.929  0.2561  0.2194 -0.5118
  107OSM    O1210950   1.911   3.973  11.171  0.0974 -0.4247  0.2232
  107OSM    C1S10951   1.826   4.071  10.813  0.8757  0.8415  0.0249
  107OSM    H1S10952   1.907   4.134  10.772  0.6247  1.7381  0.8547
  107OSM    H1T10953   1.750   4.141  10.853  0.9513  1.4313 -0.8555
  107OSM     NF10954   1.789   4.049  10.564 -0.1914  0.4622 -0.1718
  107OSM    HNF10955   1.707   4.082  10.517 -0.7920  0.8652  1.1150
  107OSM    C2S10956   1.773   3.980  10.692  0.2605  0.8006 -1.0357
  107OSM    H2S10957   1.845   3.896  10.693  0.1071  0.6272 -2.4092
  107OSM    C3S10958   1.632   3.927  10.733  0.3383 -0.1812  0.8491
  107OSM    H3S10959   1.558   4.005  10.758 -0.7750 -1.4934  1.7792
  107OSM     O310960   1.638   3.861  10.853 -0.3579 -0.0001  0.3622
  107OSM    HO310961   1.723   3.889  10.888 -1.0913 -0.9155  3.1899
  107OSM    C4S10962   1.583   3.837  10.624  0.2087 -0.4332 -0.7108
  107OSM    H4S10963   1.613   3.731  10.628 -0.9546 -0.7277  1.4857
  107OSM    C5S10964   1.490   3.862  10.526  0.5982  0.6874  0.4018
  107OSM    H5S10965   1.429   3.954  10.534 -0.0242  0.1794  1.9053
  107OSM    C6S10966   1.438   3.757  10.427  0.0548 -0.5848 -0.4687
  107OSM    H6S10967   1.435   3.797  10.324 -0.2926 -2.4774 -1.2153
  107OSM    H6T10968   1.330   3.740  10.443  0.1466 -0.3197  0.5177
  107OSM    C7S10969   1.497   3.615  10.419  0.6277 -0.0300  0.2013
  107OSM    H7S10970   1.470   3.557  10.510 -0.0050  0.1232  0.1157
  107OSM    H7T10971   1.607   3.630  10.410  0.9255 -1.8840  0.2686
  107OSM    C8S10972   1.434   3.521  10.310  0.2160 -0.3363  0.3441
  107OSM    H8S10973   1.328   3.505  10.339 -0.8717  2.3744 -1.7061
  107OSM    H8T10974   1.486   3.424  10.313 -1.3532 -1.2058  0.6641
  107OSM    C9S10975   1.436   3.563  10.161 -0.0266 -0.0012 -0.8443
  107OSM    H9S10976   1.405   3.669  10.152  0.5174  0.2149 -0.2415
  107OSM    H9T10977   1.363   3.504  10.101  1.0132 -1.5752 -0.6219
  107OSM   C10S10978   1.572   3.538  10.104 -0.3158 -0.1471 -0.1200
  107OSM   H10S10979   1.600   3.431  10.118  0.2146 -0.4591 -3.0275
  107OSM   H10T10980   1.647   3.604  10.152 -0.8485  1.9352 -1.9882
  107OSM   C11S10981   1.571   3.567   9.955  0.0145 -0.3417 -0.1499
  107OSM   H11S10982   1.675   3.600   9.936  0.7819 -2.4638  0.1282
  107OSM   H11T10983   1.507   3.654   9.929 -0.0208 -0.5238 -0.6776
  107OSM   C12S10984   1.522   3.453   9.864 -0.3866 -0.6510 -0.3205
  107OSM   H12S10985   1.415   3.431   9.886 -0.6270 -1.1108 -1.8386
  107OSM   H12T10986   1.587   3.368   9.895 -0.5759 -0.3046  1.1056
  107OSM   C13S10987   1.542   3.475   9.711  0.3019 -0.1102 -0.2528
  107OSM   H13S10988   1.647   3.501   9.687  0.6196 -0.4510  0.7096
  107OSM   H13T10989   1.485   3.567   9.686 -0.9909 -1.0944 -1.0614
  107OSM   C14S10990   1.500   3.363   9.625 -0.0116  0.2218 -0.2175
  107OSM   H14S10991   1.397   3.337   9.657  0.3103  1.2701  1.8168
  107OSM   H14T10992   1.565   3.276   9.650  0.6519  1.0592  1.1258
  107OSM   C15S10993   1.520   3.404   9.485  0.0514 -0.3113  1.0016
  107OSM   H15S10994   1.624   3.431   9.457 -0.0162 -1.9902 -1.1094
  107OSM   H15T10995   1.464   3.500   9.474  0.5886 -0.2051 -1.2234
  107OSM   C16S10996   1.480   3.298   9.381 -0.3042  0.3468  0.2546
  107OSM   H16S10997   1.389   3.250   9.424 -0.1932 -3.0977 -2.8799
  107OSM   H16T10998   1.554   3.216   9.377 -0.1487  0.5207 -0.6112
  107OSM   C17S10999   1.443   3.356   9.245  0.4932 -0.3723  0.0198
  107OSM   H17S11000   1.380   3.447   9.259  1.6968  0.2819  1.5074
  107OSM   H17T11001   1.377   3.284   9.194 -0.2090  0.9385 -0.9953
  107OSM   C18S11002   1.568   3.396   9.166 -1.1916  0.3015  0.9946
  107OSM   H18S11003   1.552   3.459   9.075 -2.3101  0.9513  1.6280
  107OSM   H18T11004   1.626   3.304   9.143 -0.9092 -0.2111  3.4769
  107OSM   H18U11005   1.629   3.467   9.226  0.1371  2.6980 -2.7791
  107OSM    C1F11006   1.912   4.058  10.499 -0.0750 -0.3692  0.1463
  107OSM     OF11007   2.012   4.013  10.555 -0.8031  0.3900  0.2816
  107OSM    C2F11008   1.918   4.132  10.373 -0.5167  0.4439 -0.2844
  107OSM    H2F11009   1.964   4.232  10.383  0.6178 -0.2092  1.3180
  107OSM    H2G11010   1.824   4.156  10.319  0.0122  1.0448 -0.9519
  107OSM    C3F11011   2.003   4.056  10.269  0.6378  0.1927 -0.2965
  107OSM    H3F11012   1.953   3.969  10.221  2.1094 -0.0321 -1.5305
  107OSM    H3G11013   2.079   3.996  10.325 -3.4819 -2.4888  3.0773
  107OSM    C4F11014   2.049   4.134  10.154 -0.7068 -0.4859  0.8318
  107OSM    H4F11015   2.115   4.066  10.096 -0.1980 -1.1214  2.1126
  107OSM    H4G11016   2.116   4.216  10.187  1.4512 -1.4656 -0.8755
  107OSM    C5F11017   1.942   4.176  10.058  0.2981  0.5780 -0.4274
  107OSM    H5F11018   1.867   4.246  10.102  2.0083  2.4828 -0.3765
  107OSM    H5G11019   1.890   4.083  10.029  1.5795 -0.9059  1.7383
  107OSM    C6F11020   1.987   4.238   9.921 -0.4261 -0.2675  0.1877
  107OSM    H6F11021   2.091   4.207   9.895  0.5618  2.6235  0.2909
  107OSM    H6G11022   1.999   4.346   9.947 -0.8644 -0.3165  0.5940
  107OSM    C7F11023   1.878   4.231   9.814  0.0045 -0.1375 -0.5660
  107OSM    H7F11024   1.788   4.283   9.854 -0.5189 -2.0295  0.8735
  107OSM    H7G11025   1.844   4.127   9.796 -1.4998  0.2372 -0.0664
  107OSM    C8F11026   1.906   4.309   9.684  0.4381 -0.4926 -0.0847
  107OSM    H8F11027   1.998   4.263   9.641  0.9393 -1.2988  1.7383
  107OSM    H8G11028   1.917   4.414   9.718 -0.4418 -1.1099  2.3184
  107OSM    C9F11029   1.794   4.287   9.585  0.1416  0.1255 -0.1433
  107OSM    H9F11030   1.702   4.268   9.642  0.6456  1.0848  1.0418
  107OSM   C10F11031   1.785   4.271   9.455  0.1346 -0.2613  0.9045
  107OSM   H10F11032   1.683   4.271   9.414  1.3530  0.2045 -2.4520
  107OSM   C11F11033   1.892   4.269   9.358  0.1779  0.8473  0.5936
  107OSM   H11F11034   1.895   4.166   9.315  0.5733  0.2899  1.9156
  107OSM   H11G11035   1.993   4.278   9.403  1.2090  1.4777 -1.7012
  107OSM   C12F11036   1.878   4.369   9.249  0.6240  0.0452 -0.5865
  107OSM   H12F11037   1.968   4.360   9.184  0.8498 -1.5660 -0.1024
  107OSM   H12G11038   1.863   4.472   9.287  2.1570  1.4701 -3.5313
  107OSM   C13F11039   1.761   4.341   9.152  0.2918  0.6356 -0.0699
  107OSM   H13F11040   1.667   4.389   9.185  0.3792  0.2157  0.8386
  107OSM   H13G11041   1.738   4.232   9.155 -0.2904  0.7476 -0.4400
  107OSM   C14F11042   1.788   4.399   9.013  0.1217  0.6151  0.1042
  107OSM   H14F11043   1.863   4.327   8.974  0.3874  0.2960  1.1582
  107OSM   H14G11044   1.827   4.502   9.022 -0.5008  1.3246 -3.6505
  107OSM   C15F11045   1.664   4.394   8.921  0.3097 -0.5535  0.0962
  107OSM   H15F11046   1.594   4.473   8.956  0.0940  0.8399 -3.1413
  107OSM   H15G11047   1.621   4.292   8.920  0.8669 -0.8131  1.1787
  107OSM   C16F11048   1.694   4.435   8.778 -0.3018  0.0943  0.2286
  107OSM   H16F11049   1.803   4.437   8.761 -0.4912  1.1580 -1.0641
  107OSM   H16G11050   1.642   4.530   8.754 -1.4346 -1.1173 -2.5466
  107OSM   C17F11051   1.637   4.334   8.679  0.2140  0.5853  0.9286
  107OSM   H17F11052   1.527   4.334   8.693  0.1505  0.6528  0.4359
  107OSM   H17G11053   1.660   4.227   8.700 -0.8317  0.1162 -0.2081
  107OSM   C18F11054   1.677   4.381   8.540 -0.6539  0.3005  0.4265
  107OSM   H18F11055   1.788   4.373   8.533 -0.4828  0.2020  2.5357
  107OSM   H18G11056   1.626   4.479   8.537 -0.9002  0.1573 -1.2145
  107OSM   H18H11057   1.635   4.311   8.464  0.4391 -2.5729  2.2753
  108OSM      N11058   5.180   2.466  11.298  0.3515 -0.7151  0.7457
  108OSM    C1511059   5.067   2.532  11.366  0.6746  0.1640  0.6873
  108OSM   H15A11060   4.986   2.464  11.384 -0.9026  1.8200  0.1215
  108OSM   H15B11061   5.037   2.620  11.311  0.6874 -0.0403  0.3469
  108OSM   H15C11062   5.088   2.565  11.466  3.2682 -2.2642  1.0604
  108OSM    C1411063   5.291   2.567  11.282  0.6277 -0.1376  0.2680
  108OSM   H14A11064   5.250   2.646  11.221 -0.9645 -0.0631  1.3624
  108OSM   H14B11065   5.379   2.525  11.237  1.0249  3.6520 -3.0060
  108OSM   H14C11066   5.305   2.603  11.383 -0.2164 -0.9165  0.6889
  108OSM    C1311067   5.229   2.364  11.391  0.0876 -0.0914 -0.1356
  108OSM   H13A11068   5.307   2.308  11.341 -0.5372  0.5626 -1.9004
  108OSM   H13B11069   5.150   2.296  11.421 -0.5101  1.0310  0.9027
  108OSM   H13C11070   5.280   2.407  11.476 -0.2099 -0.0210  0.0095
  108OSM    C1211071   5.132   2.420  11.165  0.3063  0.5356 -0.4329
  108OSM   H12A11072   5.092   2.504  11.110  1.2155  0.3661 -1.3786
  108OSM   H12B11073   5.050   2.356  11.193  0.9870  0.0866  0.6065
  108OSM    C1111074   5.228   2.336  11.071  0.2281 -0.3644  0.1535
  108OSM   H11A11075   5.165   2.309  10.983 -2.1825  2.0318  0.9963
  108OSM   H11B11076   5.256   2.238  11.113  0.8809  0.2782  1.2673
  108OSM      P11077   5.491   2.340  11.028 -0.0931  0.4432  0.7467
  108OSM    O1311078   5.600   2.439  11.028 -0.2600 -0.4592  0.2626
  108OSM    O1411079   5.494   2.226  11.122  0.1900 -0.1361 -0.2251
  108OSM    O1111080   5.495   2.279  10.880 -0.1883  0.1620 -0.3842
  108OSM    O1211081   5.347   2.412  11.035 -0.0500  0.1092 -0.4390
  108OSM    C1S11082   5.508   2.373  10.773 -0.1585  0.1752  0.4752
  108OSM    H1S11083   5.616   2.387  10.751 -0.5497  2.7362 -0.1876
  108OSM    H1T11084   5.458   2.472  10.784 -1.1263 -0.4082  1.5071
  108OSM     NF11085   5.454   2.402  10.533  0.2637 -0.2037  0.4968
  108OSM    HNF11086   5.364   2.433  10.506  0.4824 -0.6992 -0.8468
  108OSM    C2S11087   5.460   2.304  10.639 -0.5777 -0.7090  0.1203
  108OSM    H2S11088   5.539   2.230  10.616 -1.4295 -1.1406 -1.5522
  108OSM    C3S11089   5.327   2.228  10.655  0.2266 -0.5391  0.3492
  108OSM    H3S11090   5.250   2.306  10.667  1.3231  0.5432  0.4900
  108OSM     O311091   5.308   2.143  10.764  0.4654 -0.5740 -0.0802
  108OSM    HO311092   5.388   2.155  10.816  0.9928 -1.3796 -0.6671
  108OSM    C4S11093   5.299   2.151  10.529  0.2996 -0.2716  0.9678
  108OSM    H4S11094   5.361   2.062  10.514  1.1705  0.5514 -0.5432
  108OSM    C5S11095   5.200   2.172  10.434  0.0194  0.3954  0.9850
  108OSM    H5S11096   5.118   2.244  10.444 -1.0743 -0.6032 -0.2801
  108OSM    C6S11097   5.182   2.097  10.304 -0.1185  0.4950 -0.3710
  108OSM    H6S11098   5.096   2.028  10.315 -1.0859  1.5065 -1.3910
  108OSM    H6T11099   5.270   2.031  10.288 -0.5397 -0.3749  0.7526
  108OSM    C7S11100   5.155   2.192  10.190  0.2787 -0.3276  0.1426
  108OSM    H7S11101   5.228   2.275  10.189 -0.4090  0.3077  0.9231
  108OSM    H7T11102   5.059   2.240  10.218  0.0978 -0.7268  0.2172
  108OSM    C8S11103   5.134   2.127  10.053 -0.4451  0.6225 -0.0638
  108OSM    H8S11104   5.075   2.033  10.058  0.7930 -0.1589  0.3732
  108OSM    H8T11105   5.236   2.087  10.033 -1.1091 -0.8805 -0.5396
  108OSM    C9S11106   5.076   2.217   9.945 -0.0150 -0.0181 -0.0082
  108OSM    H9S11107   5.142   2.306   9.941 -0.2654  0.1710  0.0069
  108OSM    H9T11108   4.978   2.253   9.983  1.3053  1.6815  1.9987
  108OSM   C10S11109   5.057   2.157   9.803 -0.5402  0.1560  0.0863
  108OSM   H10S11110   4.997   2.067   9.827  0.3851 -0.2022  1.1691
  108OSM   H10T11111   5.159   2.130   9.767  0.0079  0.4958  1.3166
  108OSM   C11S11112   4.981   2.255   9.714 -0.3403 -0.3508  0.3748
  108OSM   H11S11113   5.053   2.339   9.703 -1.5388  0.4847 -1.4611
  108OSM   H11T11114   4.885   2.299   9.748 -0.9133 -0.9901 -0.3751
  108OSM   C12S11115   4.961   2.192   9.571  0.4545 -0.5137 -0.7831
  108OSM   H12S11116   4.875   2.121   9.565 -0.2373  0.2156  0.1826
  108OSM   H12T11117   5.051   2.130   9.553  0.3416 -0.0786 -3.2229
  108OSM   C13S11118   4.935   2.309   9.476 -0.3411 -0.3923 -0.2475
  108OSM   H13S11119   5.027   2.371   9.482 -0.8053  0.1097  3.3237
  108OSM   H13T11120   4.856   2.373   9.520  0.3758 -0.1174  0.6637
  108OSM   C14S11121   4.888   2.266   9.342 -0.4432 -0.0147  0.4885
  108OSM   H14S11122   4.778   2.258   9.354 -0.4202  0.4823  1.0856
  108OSM   H14T11123   4.929   2.166   9.315 -1.0805  0.1405 -1.1465
  108OSM   C15S11124   4.934   2.357   9.232 -0.1689  0.4815  0.8382
  108OSM   H15S11125   5.039   2.385   9.258  0.1007  0.3113 -0.0237
  108OSM   H15T11126   4.871   2.447   9.224 -1.0160 -0.2159 -0.8344
  108OSM   C16S11127   4.920   2.295   9.094  0.1280 -0.1383 -0.3046
  108OSM   H16S11128   4.818   2.306   9.050 -0.0091  2.0558  0.4192
  108OSM   H16T11129   4.940   2.186   9.096 -1.9725 -0.6520 -2.3923
  108OSM   C17S11130   5.019   2.364   8.983  0.1430  0.5550  0.6383
  108OSM   H17S11131   5.123   2.326   8.996  0.5384  0.9788 -1.0581
  108OSM   H17T11132   5.012   2.472   9.008 -0.9216  1.1234 -1.8435
  108OSM   C18S11133   4.980   2.338   8.835 -0.1359 -0.0787  0.1157
  108OSM   H18S11134   4.997   2.232   8.807 -0.2827 -0.0339 -0.1487
  108OSM   H18T11135   5.050   2.401   8.777 -0.7380  0.6893  0.2012
  108OSM   H18U11136   4.873   2.364   8.815  0.0757 -0.0846 -1.1116
  108OSM    C1F11137   5.560   2.462  10.484  0.0363  0.1108 -0.0848
  108OSM     OF11138   5.672   2.433  10.536  0.2254  0.1299  0.1420
  108OSM    C2F11139   5.542   2.574  10.391  0.2941  0.1440 -0.4630
  108OSM    H2F11140   5.509   2.661  10.452 -1.2481 -2.0760  2.0592
  108OSM    H2G11141   5.454   2.542  10.330 -1.4484  0.4494  1.7768
  108OSM    C3F11142   5.672   2.606  10.312 -0.3514  0.3131  0.7318
  108OSM    H3F11143   5.725   2.512  10.288 -0.8728 -0.5147  2.6012
  108OSM    H3G11144   5.742   2.650  10.386 -1.1220 -0.4987  1.9765
  108OSM    C4F11145   5.638   2.684  10.188 -0.3322 -0.2034 -0.2775
  108OSM    H4F11146   5.734   2.716  10.143 -0.4065  1.2015  0.5202
  108OSM    H4G11147   5.583   2.779  10.205  1.2537  0.9849 -1.5030
  108OSM    C5F11148   5.564   2.607  10.080  0.1962  0.9772 -0.0182
  108OSM    H5F11149   5.477   2.552  10.120  0.9871 -1.8190 -1.8368
  108OSM    H5G11150   5.631   2.528  10.039 -0.3240 -0.6462  2.0870
  108OSM    C6F11151   5.514   2.699   9.968 -0.6767 -0.1710  0.2294
  108OSM    H6F11152   5.597   2.752   9.917 -1.0832 -0.5148 -0.8134
  108OSM    H6G11153   5.457   2.778  10.020  1.5983  1.4318  0.4508
  108OSM    C7F11154   5.429   2.627   9.867  0.4048 -0.5431 -0.5000
  108OSM    H7F11155   5.346   2.581   9.925  0.9571 -2.8352 -1.4203
  108OSM    H7G11156   5.484   2.545   9.817  0.0304 -1.4470  0.5071
  108OSM    C8F11157   5.355   2.713   9.761  0.1018  0.3433  0.1796
  108OSM    H8F11158   5.431   2.752   9.690  1.1137  0.4732  1.2902
  108OSM    H8G11159   5.312   2.788   9.830 -0.8500 -0.9991  1.1055
  108OSM    C9F11160   5.241   2.641   9.694  0.5466  0.4886 -0.1470
  108OSM    H9F11161   5.188   2.574   9.763  2.0504 -0.7450 -0.1365
  108OSM   C10F11162   5.196   2.648   9.571  0.3083  0.0466 -0.6284
  108OSM   H10F11163   5.115   2.577   9.546  0.5582 -0.8149  0.8452
  108OSM   C11F11164   5.238   2.721   9.451  0.2717 -0.4779 -0.2931
  108OSM   H11F11165   5.348   2.735   9.448  0.1035  1.0176 -2.6487
  108OSM   H11G11166   5.193   2.823   9.456 -1.5110 -1.1267 -1.7015
  108OSM   C12F11167   5.187   2.663   9.315 -0.2928 -0.3680  0.2230
  108OSM   H12F11168   5.077   2.655   9.320 -0.3930 -0.4209 -1.4435
  108OSM   H12G11169   5.249   2.570   9.319 -0.0011 -0.2343 -0.8358
  108OSM   C13F11170   5.229   2.750   9.195  0.4579 -0.7456 -0.2953
  108OSM   H13F11171   5.326   2.792   9.229 -0.6824  1.3026  0.6083
  108OSM   H13G11172   5.144   2.821   9.180 -1.2112 -2.9541 -2.0703
  108OSM   C14F11173   5.239   2.674   9.062  0.3865 -0.2685 -0.0865
  108OSM   H14F11174   5.138   2.672   9.017  0.4785  2.6515 -0.6668
  108OSM   H14G11175   5.284   2.575   9.082  0.8981  0.2426  1.4923
  108OSM   C15F11176   5.325   2.730   8.953  0.0403 -0.0511  0.6117
  108OSM   H15F11177   5.419   2.776   8.990  0.1627  0.2495 -0.0575
  108OSM   H15G11178   5.271   2.810   8.898 -0.7596 -0.9368  0.0748
  108OSM   C16F11179   5.351   2.619   8.853 -0.5002  0.1619  0.3262
  108OSM   H16F11180   5.262   2.563   8.817  0.1339  1.2169 -3.2991
  108OSM   H16G11181   5.402   2.544   8.917 -0.8557  0.8259  1.4292
  108OSM   C17F11182   5.447   2.666   8.742  0.5918  1.0724  0.0011
  108OSM   H17F11183   5.538   2.687   8.802 -0.2193  2.1420  0.8933
  108OSM   H17G11184   5.400   2.758   8.702 -1.7477 -0.2048 -0.3534
  108OSM   C18F11185   5.472   2.561   8.632  0.1608  0.2553 -0.0188
  108OSM   H18F11186   5.558   2.592   8.570  0.9503 -0.1972  0.8312
  108OSM   H18G11187   5.386   2.534   8.567  0.9567 -0.1234 -0.9234
  108OSM   H18H11188   5.519   2.471   8.677 -0.5446 -0.7040 -1.1344
  109OSM      N11189   5.423   4.492  10.660  0.1935 -0.4848  0.7270
  109OSM    C1511190   5.524   4.448  10.561  0.4922  0.4954 -0.3671
  109OSM   H15A11191   5.621   4.486  10.588 -0.0098  0.3335  1.8600
  109OSM   H15B11192   5.494   4.487  10.464 -1.3361 -0.1520 -0.1063
  109OSM   H15C11193   5.519   4.340  10.561 -0.2762  0.4182  3.0411
  109OSM    C1411194   5.444   4.634  10.682 -0.5594 -0.2904 -0.4259
  109OSM   H14A11195   5.545   4.657  10.712 -0.7905  1.7806 -1.1070
  109OSM   H14B11196   5.379   4.667  10.762 -0.0327 -0.7373  0.2029
  109OSM   H14C11197   5.431   4.694  10.593  1.3276  0.6592 -0.1122
  109OSM    C1311198   5.282   4.473  10.598  0.1472  0.3755 -0.0660
  109OSM   H13A11199   5.259   4.537  10.514 -0.8299  0.4312  0.2361
  109OSM   H13B11200   5.200   4.495  10.665 -0.2038  0.8922 -0.6532
  109OSM   H13C11201   5.275   4.373  10.557 -0.1230 -0.1729  1.2604
  109OSM    C1211202   5.429   4.414  10.787 -1.0820 -0.3186 -0.4194
  109OSM   H12A11203   5.391   4.313  10.779  0.1047 -0.7411 -1.1042
  109OSM   H12B11204   5.363   4.465  10.855 -1.5588 -0.1773 -0.9804
  109OSM    C1111205   5.569   4.386  10.848 -0.1151 -0.7687  0.4454
  109OSM   H11A11206   5.542   4.356  10.952 -2.5704 -1.5796 -0.3565
  109OSM   H11B11207   5.624   4.483  10.857  0.1413 -0.7679 -0.9525
  109OSM      P11208   5.598   4.136  10.767  0.4234 -0.1354  0.2005
  109OSM    O1311209   5.681   4.042  10.849  0.1523  0.4480 -0.9446
  109OSM    O1411210   5.449   4.131  10.786  0.2205 -0.0335  0.3656
  109OSM    O1111211   5.623   4.097  10.615  0.6011 -0.4695 -0.0296
  109OSM    O1211212   5.650   4.291  10.786 -0.1081  0.1467  0.0198
  109OSM    C1S11213   5.742   4.141  10.555  0.4671 -0.2353 -0.1010
  109OSM    H1S11214   5.837   4.104  10.599  0.4138 -1.9504 -1.3449
  109OSM    H1T11215   5.739   4.251  10.541  1.5202 -0.2981 -0.9365
  109OSM     NF11216   5.858   4.136  10.332  0.1772  0.7499  0.4985
  109OSM    HNF11217   5.866   4.213  10.269  0.7020 -0.1223 -0.5371
  109OSM    C2S11218   5.735   4.103  10.405 -0.7323  0.3246  0.0422
  109OSM    H2S11219   5.722   3.993  10.402 -0.1012  0.2576 -1.7109
  109OSM    C3S11220   5.608   4.163  10.329  0.7744  0.6946  0.9039
  109OSM    H3S11221   5.602   4.273  10.340 -1.0349  0.7704 -0.4051
  109OSM     O311222   5.488   4.123  10.386  0.7197 -0.1229 -0.2192
  109OSM    HO311223   5.512   4.085  10.471  0.5655 -2.4541 -1.1478
  109OSM    C4S11224   5.614   4.127  10.177  0.4759  0.1690  0.2332
  109OSM    H4S11225   5.700   4.162  10.116  0.5207 -0.5557 -0.1269
  109OSM    C5S11226   5.515   4.057  10.109  0.3679 -0.6703  0.1643
  109OSM    H5S11227   5.435   4.010  10.170  0.5098 -1.9336 -0.6026
  109OSM    C6S11228   5.505   4.023   9.966  0.9117  0.1848  0.9331
  109OSM    H6S11229   5.446   4.093   9.904  2.1389  0.9362  0.5846
  109OSM    H6T11230   5.464   3.919   9.970 -0.6189  0.7433  0.5073
  109OSM    C7S11231   5.641   4.016   9.896  0.1355 -0.2574 -0.2885
  109OSM    H7S11232   5.704   3.930   9.928  2.2244  0.8381 -1.2698
  109OSM    H7T11233   5.699   4.103   9.932  0.9412 -0.9094  0.0135
  109OSM    C8S11234   5.637   4.015   9.739 -0.0615 -0.6265 -1.0005
  109OSM    H8S11235   5.600   4.111   9.698 -0.1074  0.4577  1.4218
  109OSM    H8T11236   5.561   3.941   9.705 -2.3264  0.3563  1.5328
  109OSM    C9S11237   5.775   3.992   9.679  0.2037  0.9087  0.0107
  109OSM    H9S11238   5.810   3.891   9.708 -2.8077  0.0463  0.9910
  109OSM    H9T11239   5.852   4.050   9.735 -2.0841  4.3412 -0.0792
  109OSM   C10S11240   5.772   3.995   9.525 -0.5260 -0.0275 -0.6063
  109OSM   H10S11241   5.760   4.100   9.492 -1.0329 -0.5550 -2.1615
  109OSM   H10T11242   5.680   3.945   9.490 -1.4357  0.6745  0.7046
  109OSM   C11S11243   5.889   3.917   9.467  0.3769  0.1797 -0.1054
  109OSM   H11S11244   5.886   3.814   9.508  1.2071  1.1777  2.6831
  109OSM   H11T11245   5.988   3.957   9.498  1.7787 -1.2614 -2.4145
  109OSM   C12S11246   5.883   3.931   9.317 -0.1757 -0.0225  0.4625
  109OSM   H12S11247   5.868   4.036   9.282 -0.2799 -0.0778  0.3381
  109OSM   H12T11248   5.790   3.891   9.271  1.1142 -0.2523 -2.0500
  109OSM   C13S11249   6.002   3.880   9.238  0.7236 -0.0861 -0.0710
  109OSM   H13S11250   6.032   3.785   9.286 -0.3562 -0.0690  0.6764
  109OSM   H13T11251   6.079   3.957   9.262  0.5323 -0.2009  0.9490
  109OSM   C14S11252   5.969   3.883   9.090 -0.2264  0.0102 -0.0721
  109OSM   H14S11253   5.900   3.797   9.076  0.7102 -0.8329  0.3350
  109OSM   H14T11254   6.062   3.849   9.040  0.5775  1.1515  0.6098
  109OSM   C15S11255   5.918   4.014   9.022 -0.6861 -0.3068 -0.7206
  109OSM   H15S11256   5.980   4.101   9.052 -1.9439  1.5286 -3.1085
  109OSM   H15T11257   5.814   4.014   9.060 -0.0135 -2.0903  1.3777
  109OSM   C16S11258   5.906   4.007   8.875  0.6351 -0.7335 -0.1832
  109OSM   H16S11259   5.845   4.091   8.837 -0.2236 -1.7205 -1.0657
  109OSM   H16T11260   5.858   3.919   8.827 -2.1717  1.3347 -1.3920
  109OSM   C17S11261   6.042   4.024   8.806  0.6556  0.5502  0.5339
  109OSM   H17S11262   6.025   4.024   8.697  0.0437  1.4141  0.6125
  109OSM   H17T11263   6.107   3.938   8.832  1.0171  0.9999  1.1574
  109OSM   C18S11264   6.125   4.146   8.841  0.2210  0.5121  0.0564
  109OSM   H18S11265   6.158   4.144   8.946  1.2852 -1.7185 -0.2713
  109OSM   H18T11266   6.058   4.235   8.832 -0.2626  0.3200  1.5524
  109OSM   H18U11267   6.210   4.152   8.770  0.6597 -1.0049  0.4238
  109OSM    C1F11268   5.964   4.054  10.342  0.1575 -0.1111 -0.4419
  109OSM     OF11269   5.947   3.952  10.401  0.0945  0.1340 -0.0353
  109OSM    C2F11270   6.089   4.097  10.283  0.4078 -0.8177  0.2499
  109OSM    H2F11271   6.176   4.086  10.353  0.3596 -0.7520  0.3198
  109OSM    H2G11272   6.086   4.202  10.250 -2.0473 -1.1298 -0.6622
  109OSM    C3F11273   6.109   4.001  10.165 -0.6145 -0.0680  0.1854
  109OSM    H3F11274   6.037   4.001  10.080  2.0746 -2.1084 -2.2910
  109OSM    H3G11275   6.119   3.897  10.203 -1.3049 -0.2234 -0.0432
  109OSM    C4F11276   6.242   4.039  10.101  0.1913 -0.4717  0.3455
  109OSM    H4F11277   6.324   4.025  10.174 -1.0733 -3.3644  1.3628
  109OSM    H4G11278   6.225   4.143  10.065  0.0423 -0.2136  1.1426
  109OSM    C5F11279   6.281   3.942   9.979  0.2618 -0.0496 -0.8699
  109OSM    H5F11280   6.296   3.835  10.005 -3.0803 -1.0434 -2.5198
  109OSM    H5G11281   6.376   3.985   9.940 -0.3635  1.4130 -0.8775
  109OSM    C6F11282   6.183   3.950   9.855 -0.4903  0.6479  0.2387
  109OSM    H6F11283   6.160   4.058   9.843  1.0062  1.1400  1.4989
  109OSM    H6G11284   6.082   3.907   9.874 -0.7313  0.8573 -0.5617
  109OSM    C7F11285   6.237   3.879   9.729 -0.7114  1.0905  0.3573
  109OSM    H7F11286   6.344   3.900   9.710  0.5228 -1.2000  3.7412
  109OSM    H7G11287   6.173   3.921   9.648 -0.7433  0.4718  0.0611
  109OSM    C8F11288   6.224   3.725   9.719 -0.5142  0.3386 -0.9185
  109OSM    H8F11289   6.115   3.706   9.727 -0.1714 -2.9346 -2.4675
  109OSM    H8G11290   6.283   3.695   9.808 -0.6477  0.1776 -0.8829
  109OSM    C9F11291   6.283   3.666   9.589  0.8779  0.3088  0.4281
  109OSM    H9F11292   6.371   3.722   9.555  1.3120  0.9849  2.5633
  109OSM   C10F11293   6.224   3.569   9.520 -0.5098 -0.2963 -0.7256
  109OSM   H10F11294   6.277   3.547   9.426  0.9401 -1.9188  0.4259
  109OSM   C11F11295   6.097   3.507   9.562  0.3490  0.1486 -0.6392
  109OSM   H11F11296   6.003   3.564   9.579 -0.4504 -0.8294 -1.5950
  109OSM   H11G11297   6.113   3.483   9.669 -1.6931 -2.0997 -0.7341
  109OSM   C12F11298   6.052   3.382   9.487 -0.3318  0.1599  0.2353
  109OSM   H12F11299   5.976   3.330   9.550 -0.7757 -0.5446 -0.8611
  109OSM   H12G11300   6.133   3.307   9.479  0.8108  1.5382 -1.9801
  109OSM   C13F11301   5.996   3.410   9.342 -0.4116  0.3187 -0.4688
  109OSM   H13F11302   5.917   3.485   9.362  0.6068  0.8925  1.6769
  109OSM   H13G11303   5.942   3.321   9.304 -1.2321  0.7298 -0.2844
  109OSM   C14F11304   6.084   3.466   9.233 -0.0768 -0.4472 -0.5482
  109OSM   H14F11305   6.173   3.402   9.215 -0.1119 -0.9028  0.8033
  109OSM   H14G11306   6.139   3.556   9.270 -1.3604  0.3355 -0.4689
  109OSM   C15F11307   6.014   3.496   9.103 -0.0705  0.4285  0.0229
  109OSM   H15F11308   5.929   3.566   9.116 -0.8278 -0.6227  0.8384
  109OSM   H15G11309   5.969   3.403   9.064  0.9838  1.2693 -3.5778
  109OSM   C16F11310   6.122   3.554   9.003  1.1051 -0.2831 -0.1216
  109OSM   H16F11311   6.210   3.489   8.982  0.1045 -2.1343  1.1555
  109OSM   H16G11312   6.163   3.646   9.048  0.3772  0.0857 -0.2099
  109OSM   C17F11313   6.056   3.607   8.874 -0.4521  0.4928 -0.0386
  109OSM   H17F11314   6.133   3.657   8.811 -0.6496  1.7219  0.6637
  109OSM   H17G11315   5.976   3.679   8.901 -0.3780 -0.0175  1.7007
  109OSM   C18F11316   5.986   3.493   8.794 -0.0891  0.3728  0.1474
  109OSM   H18F11317   5.941   3.525   8.698 -0.5720  0.4096  0.3827
  109OSM   H18G11318   5.896   3.459   8.849  0.1503 -5.0523 -2.1885
  109OSM   H18H11319   6.044   3.398   8.791  0.4518  0.6717 -3.2272
  110OSM      N11320   0.255   2.441  11.165 -0.1680  0.0624 -0.5241
  110OSM    C1511321   0.149   2.451  11.268 -0.6889 -0.0206  0.0197
  110OSM   H15A11322   0.193   2.475  11.363 -1.9084  0.2527  0.5386
  110OSM   H15B11323   0.091   2.360  11.277  1.9134 -2.2326 -3.3417
  110OSM   H15C11324   0.088   2.538  11.252  2.0710  1.9925 -0.1235
  110OSM    C1411325   0.315   2.576  11.146  0.1336  0.3018  0.7994
  110OSM   H14A11326   0.360   2.614  11.236 -0.5301  1.4299  0.6727
  110OSM   H14B11327   0.236   2.647  11.127 -1.3183 -1.4715 -0.2437
  110OSM   H14C11328   0.392   2.578  11.071  0.4576  3.5065  1.1128
  110OSM    C1311329   0.355   2.353  11.232 -0.2068 -0.6970  0.0401
  110OSM   H13A11330   0.439   2.343  11.165 -1.4059 -2.8299 -1.2437
  110OSM   H13B11331   0.327   2.252  11.256 -1.7336 -0.4847 -0.7373
  110OSM   H13C11332   0.384   2.393  11.328  1.0626 -1.9012  0.1868
  110OSM    C1211333   0.215   2.381  11.038  0.2278 -0.0335 -0.3035
  110OSM   H12A11334   0.164   2.461  10.986  0.8914  1.1153  0.7607
  110OSM   H12B11335   0.148   2.297  11.050  0.1848 -0.1852 -1.4687
  110OSM    C1111336   0.325   2.331  10.942  0.4650 -0.0242  0.0789
  110OSM   H11A11337   0.277   2.291  10.850  2.9718 -0.4450 -1.1224
  110OSM   H11B11338   0.369   2.241  10.987  0.4783  0.6761  1.5111
  110OSM      P11339   0.575   2.395  10.865  0.0137 -0.1317  0.3219
  110OSM    O1311340   0.616   2.466  10.747  0.2120 -0.0337 -0.0808
  110OSM    O1411341   0.666   2.404  10.982 -0.2143  0.5303 -0.4946
  110OSM    O1111342   0.563   2.241  10.825 -0.0821 -0.4861 -0.1034
  110OSM    O1211343   0.423   2.430  10.906 -0.3035  0.1337  0.0213
  110OSM    C1S11344   0.508   2.199  10.696  0.2793 -0.2745 -0.1498
  110OSM    H1S11345   0.428   2.264  10.654 -0.3558  0.1660  1.6357
  110OSM    H1T11346   0.463   2.098  10.706  0.6590 -0.5236 -0.8456
  110OSM     NF11347   0.581   2.157  10.450  0.3561 -0.2492  0.0916
  110OSM    HNF11348   0.575   2.059  10.430  0.9701 -0.5358  1.2076
  110OSM    C2S11349   0.622   2.186  10.587 -0.1466  0.3213  0.4501
  110OSM    H2S11350   0.666   2.287  10.577  1.0403 -0.1466  0.8105
  110OSM    C3S11351   0.730   2.082  10.642  0.1909  0.3847 -0.1400
  110OSM    H3S11352   0.675   1.986  10.651  1.8718 -0.6491 -0.4458
  110OSM     O311353   0.789   2.101  10.774  0.0966  0.7939  0.0298
  110OSM    HO311354   0.715   2.157  10.800  0.9624  2.8938 -1.7163
  110OSM    C4S11355   0.835   2.066  10.538 -0.3003  0.0971  0.4164
  110OSM    H4S11356   0.879   2.162  10.506 -2.8171  0.4747 -2.3444
  110OSM    C5S11357   0.866   1.950  10.476  0.7290 -0.2387 -0.2442
  110OSM    H5S11358   0.831   1.850  10.505  0.5200 -0.6145 -1.6691
  110OSM    C6S11359   0.975   1.940  10.376 -0.2016 -0.0981  0.5483
  110OSM    H6S11360   0.928   1.891  10.288  1.7265  0.0023 -0.6077
  110OSM    H6T11361   1.055   1.871  10.410  1.1231  1.1194  0.0139
  110OSM    C7S11362   1.041   2.068  10.315 -0.0942 -0.2506  0.3820
  110OSM    H7S11363   1.135   2.053  10.258  0.6284 -0.1671  1.5055
  110OSM    H7T11364   1.069   2.141  10.394 -0.8331  0.5712 -0.0987
  110OSM    C8S11365   0.951   2.149  10.222  0.2693  0.0829 -0.5231
  110OSM    H8S11366   1.013   2.232  10.181  1.0144 -0.4395 -0.4721
  110OSM    H8T11367   0.874   2.176  10.296  0.7572  1.1490 -0.3885
  110OSM    C9S11368   0.888   2.086  10.098  0.0568 -0.1102 -0.0654
  110OSM    H9S11369   0.826   2.167  10.055 -0.3891 -1.2911 -1.7734
  110OSM    H9T11370   0.831   1.994  10.121  1.1096 -0.6806  0.3447
  110OSM   C10S11371   1.006   2.051  10.001 -0.2857  0.3199  0.8029
  110OSM   H10S11372   1.058   1.958  10.032  0.4912  0.5128  0.1007
  110OSM   H10T11373   1.077   2.136   9.997  1.0718 -0.7801  0.7804
  110OSM   C11S11374   0.956   2.038   9.859  0.7961  0.3718 -0.2569
  110OSM   H11S11375   0.935   2.136   9.811 -0.7443  0.0700 -0.2440
  110OSM   H11T11376   0.861   1.981   9.871 -0.4858  1.7923 -2.8364
  110OSM   C12S11377   1.055   1.960   9.769 -0.6022 -0.7125 -0.4085
  110OSM   H12S11378   1.058   1.853   9.798 -0.3201 -0.8455 -0.9257
  110OSM   H12T11379   1.150   2.006   9.804 -0.6699  0.1757 -1.3560
  110OSM   C13S11380   1.021   1.969   9.628 -0.8046 -0.4598 -0.1648
  110OSM   H13S11381   1.108   1.949   9.562 -0.7687  3.5371 -1.6282
  110OSM   H13T11382   1.001   2.074   9.596 -0.4949 -0.4288 -0.2662
  110OSM   C14S11383   0.892   1.903   9.586  0.3257  0.5213 -1.0993
  110OSM   H14S11384   0.801   1.945   9.634  0.0591 -3.1608  2.0422
  110OSM   H14T11385   0.903   1.804   9.634 -2.1590 -0.3670 -2.1796
  110OSM   C15S11386   0.872   1.887   9.438 -0.1933 -0.4951 -0.1352
  110OSM   H15S11387   0.799   1.803   9.431 -0.9474  0.1557 -0.3338
  110OSM   H15T11388   0.964   1.873   9.378 -0.6495 -1.2844 -0.6791
  110OSM   C16S11389   0.794   1.997   9.380  0.7005  0.0244  0.1221
  110OSM   H16S11390   0.837   2.088   9.427  1.5632 -0.8065  0.9809
  110OSM   H16T11391   0.686   1.982   9.402  0.8630 -0.1307  0.8199
  110OSM   C17S11392   0.824   1.985   9.222 -0.3185  0.3594 -0.8632
  110OSM   H17S11393   0.822   1.876   9.202  2.8224 -0.0053  0.2130
  110OSM   H17T11394   0.925   2.022   9.193  0.4031  0.2352  1.3317
  110OSM   C18S11395   0.722   2.054   9.142  0.1263 -0.3139  0.0119
  110OSM   H18S11396   0.711   2.162   9.166  1.2809 -0.6546  2.3201
  110OSM   H18T11397   0.624   2.016   9.178 -1.1663  3.4561  1.0285
  110OSM   H18U11398   0.725   2.034   9.033 -1.2372  0.7182 -0.2482
  110OSM    C1F11399   0.507   2.233  10.380 -0.0433  0.8340 -0.1768
  110OSM     OF11400   0.455   2.336  10.433  0.0084  0.1132 -0.9301
  110OSM    C2F11401   0.479   2.189  10.236  0.3553 -0.2499  0.7327
  110OSM    H2F11402   0.524   2.267  10.171  0.7859 -0.6651  0.5331
  110OSM    H2G11403   0.369   2.193  10.222  0.4262 -1.7598 -0.4020
  110OSM    C3F11404   0.532   2.047  10.206  0.7455 -0.6117  1.0527
  110OSM    H3F11405   0.481   1.969  10.266 -3.2230  0.7136 -0.2757
  110OSM    H3G11406   0.642   2.044  10.219  0.5868  1.4114  3.8170
  110OSM    C4F11407   0.485   2.011  10.064 -0.0606  0.1730 -0.3368
  110OSM    H4F11408   0.503   2.097   9.997 -1.1291  0.1107 -0.7336
  110OSM    H4G11409   0.375   1.999  10.078 -0.2280  1.6020 -0.3034
  110OSM    C5F11410   0.549   1.883  10.015  0.2666  0.3383  0.3756
  110OSM    H5F11411   0.503   1.791  10.055  0.7705 -0.2896 -0.4519
  110OSM    H5G11412   0.658   1.879  10.039  0.4274  1.6280 -0.0283
  110OSM    C6F11413   0.518   1.883   9.867  1.7897  0.0205  0.5845
  110OSM    H6F11414   0.556   1.977   9.822  0.6729 -0.1416 -0.7749
  110OSM    H6G11415   0.408   1.873   9.850  2.0464  0.9192 -2.0283
  110OSM    C7F11416   0.581   1.767   9.791 -0.3490 -0.0344  0.7755
  110OSM    H7F11417   0.560   1.674   9.848  0.3210 -0.3441  0.5219
  110OSM    H7G11418   0.688   1.797   9.790 -0.4769  0.4502 -1.5053
  110OSM    C8F11419   0.517   1.761   9.657 -0.1664 -0.6947  0.3929
  110OSM    H8F11420   0.508   1.859   9.607  1.5395 -0.6463  0.1381
  110OSM    H8G11421   0.419   1.712   9.676 -0.2589 -0.2794  0.9982
  110OSM    C9F11422   0.613   1.670   9.584  0.1989 -0.1110 -0.0772
  110OSM    H9F11423   0.710   1.648   9.630  0.2125  0.9145  0.4218
  110OSM   C10F11424   0.581   1.616   9.464  0.4654  0.1158  0.3754
  110OSM   H10F11425   0.648   1.551   9.406  0.4443  0.1466  0.3158
  110OSM   C11F11426   0.460   1.646   9.377  0.7693  0.2155 -0.2163
  110OSM   H11F11427   0.387   1.718   9.422  1.3312  1.2230 -0.8814
  110OSM   H11G11428   0.397   1.555   9.366  0.3885 -0.1377  3.5221
  110OSM   C12F11429   0.508   1.708   9.244 -0.2969 -0.0417 -0.5271
  110OSM   H12F11430   0.606   1.669   9.211  0.0102  0.9881 -0.8761
  110OSM   H12G11431   0.527   1.814   9.271 -0.4207 -0.5355  1.6468
  110OSM   C13F11432   0.403   1.689   9.131  0.4328 -0.1019  0.2601
  110OSM   H13F11433   0.309   1.745   9.146  0.1755 -0.8891  1.7553
  110OSM   H13G11434   0.370   1.584   9.126 -0.7123  0.3145 -2.5588
  110OSM   C14F11435   0.455   1.737   8.996  0.9868  0.2650  0.5108
  110OSM   H14F11436   0.534   1.677   8.946  0.3047 -0.1973 -0.0214
  110OSM   H14G11437   0.492   1.840   9.016 -1.6172  1.1804  1.0182
  110OSM   C15F11438   0.341   1.733   8.895  0.6472  0.2445 -0.0362
  110OSM   H15F11439   0.373   1.791   8.805  1.8974 -0.6181 -0.1687
  110OSM   H15G11440   0.246   1.775   8.935 -0.4480 -1.3112 -0.8652
  110OSM   C16F11441   0.301   1.592   8.839 -0.2625 -0.5781  0.5868
  110OSM   H16F11442   0.264   1.533   8.926 -0.5245 -1.3148 -0.0153
  110OSM   H16G11443   0.393   1.549   8.796 -1.3915  1.7179 -4.9621
  110OSM   C17F11444   0.192   1.583   8.734  0.1421 -0.1245  0.1046
  110OSM   H17F11445   0.226   1.640   8.645  0.9289  2.1776  1.7747
  110OSM   H17G11446   0.100   1.633   8.769  0.9968  1.9813 -0.4822
  110OSM   C18F11447   0.166   1.440   8.682  0.2123  0.0262  0.4256
  110OSM   H18F11448   0.261   1.391   8.655 -0.1230 -0.1615 -0.4623
  110OSM   H18G11449   0.111   1.445   8.585 -0.2993  1.7326  0.7538
  110OSM   H18H11450   0.116   1.380   8.761  1.2465 -0.7941  0.4649
  111OSM      N11451   1.326   4.628  10.984  0.1962  0.3282 -0.0823
  111OSM    C1511452   1.456   4.580  10.940  0.1871 -0.6358  0.4614
  111OSM   H15A11453   1.522   4.569  11.025 -0.1387  1.5290  1.0589
  111OSM   H15B11454   1.493   4.639  10.857  1.6149 -1.7874  0.2418
  111OSM   H15C11455   1.456   4.476  10.911  2.1104 -0.1160 -1.6837
  111OSM    C1411456   1.220   4.572  10.880  0.0019  0.1150 -0.2972
  111OSM   H14A11457   1.229   4.465  10.867 -1.1975  0.0500 -0.8079
  111OSM   H14B11458   1.231   4.636  10.793  1.0092  0.9161  0.4021
  111OSM   H14C11459   1.117   4.586  10.909 -0.3680  0.3875 -1.6385
  111OSM    C1311460   1.292   4.574  11.119 -0.0351 -0.7554 -0.1327
  111OSM   H13A11461   1.303   4.469  11.142  2.4988 -0.1110  2.0797
  111OSM   H13B11462   1.192   4.613  11.134  0.3992  1.0039 -1.4714
  111OSM   H13C11463   1.363   4.618  11.188  1.9166 -1.2042 -1.7566
  111OSM    C1211464   1.313   4.780  10.993  0.1561  0.5535  1.2472
  111OSM   H12A11465   1.387   4.812  11.065  2.7864 -2.2267 -0.0121
  111OSM   H12B11466   1.220   4.814  11.036 -0.9916  0.7551 -1.2470
  111OSM    C1111467   1.338   4.855  10.857  0.0165 -0.1500 -0.1288
  111OSM   H11A11468   1.438   4.833  10.814  0.5186  2.1168 -0.2406
  111OSM   H11B11469   1.335   4.966  10.870  1.0324  0.0958 -1.7329
  111OSM      P11470   1.101   4.902  10.742 -0.0449 -0.4077 -0.0423
  111OSM    O1311471   1.015   4.827  10.652  0.2350  0.0385  0.8612
  111OSM    O1411472   1.058   4.935  10.882 -0.5698  0.0440  0.5164
  111OSM    O1111473   1.147   5.039  10.682 -0.1747 -0.1673 -0.2685
  111OSM    O1211474   1.242   4.829  10.752  0.2424 -0.1701  0.1574
  111OSM    C1S11475   1.191   5.031  10.545 -0.4173  0.0040  0.7574
  111OSM    H1S11476   1.254   4.945  10.514 -1.0953  0.6878 -3.1296
  111OSM    H1T11477   1.257   5.117  10.521 -2.7921  2.2201  1.6656
  111OSM     NF11478   1.119   5.050  10.300  0.3856  0.3710  0.2596
  111OSM    HNF11479   1.136   5.143  10.269  1.0917  0.2721  0.3282
  111OSM    C2S11480   1.072   5.057  10.440 -0.0929 -0.0171  1.2378
  111OSM    H2S11481   1.005   4.969  10.451 -0.2127 -0.4184 -1.7512
  111OSM    C3S11482   1.000   5.188  10.470  0.6071 -0.2576  0.0616
  111OSM    H3S11483   1.067   5.277  10.469  0.0935  0.1967  1.8468
  111OSM     O311484   0.949   5.180  10.599  0.3066  0.1828  0.6446
  111OSM    HO311485   1.005   5.111  10.635  0.8982  0.9155  1.1624
  111OSM    C4S11486   0.876   5.214  10.388 -0.9895  0.8623  0.4647
  111OSM    H4S11487   0.788   5.148  10.396 -1.3120  1.2963  0.5357
  111OSM    C5S11488   0.856   5.307  10.298  0.0508 -0.1945  0.5031
  111OSM    H5S11489   0.933   5.386  10.299 -0.6192  0.4706  0.3333
  111OSM    C6S11490   0.740   5.333  10.211 -0.5010  0.4843 -0.1295
  111OSM    H6S11491   0.739   5.436  10.170  1.9413  0.2199 -1.0286
  111OSM    H6T11492   0.646   5.336  10.270 -1.5498  1.8134 -1.8088
  111OSM    C7S11493   0.718   5.225  10.101  0.7102  0.2729  0.2761
  111OSM    H7S11494   0.623   5.244  10.045 -0.7907 -4.1960  0.9020
  111OSM    H7T11495   0.695   5.134  10.161  1.1752 -0.1383 -0.1561
  111OSM    C8S11496   0.825   5.192  10.005  0.0120 -0.5398 -0.2393
  111OSM    H8S11497   0.807   5.089   9.967  0.5914 -1.2994  1.4626
  111OSM    H8T11498   0.921   5.186  10.062  1.8970 -0.9917 -3.2388
  111OSM    C9S11499   0.837   5.304   9.898  0.6992  0.2006  0.3788
  111OSM    H9S11500   0.883   5.395   9.943  1.1218 -0.7214  1.8552
  111OSM    H9T11501   0.733   5.331   9.869  0.1918 -0.0060  1.9202
  111OSM   C10S11502   0.911   5.245   9.781  0.8647  0.4877  0.1160
  111OSM   H10S11503   0.880   5.139   9.771 -0.3344  0.6926  1.4293
  111OSM   H10T11504   1.016   5.231   9.815  0.4962  0.7249  1.3805
  111OSM   C11S11505   0.899   5.323   9.643 -0.1364  0.5674 -0.4950
  111OSM   H11S11506   0.917   5.429   9.672 -0.0607  0.1861  0.9567
  111OSM   H11T11507   0.798   5.312   9.599 -0.1698 -1.2556 -0.0511
  111OSM   C12S11508   0.998   5.280   9.536 -0.3942  1.0782  0.3456
  111OSM   H12S11509   0.985   5.172   9.512  0.0471  1.0055  0.4317
  111OSM   H12T11510   1.097   5.292   9.584 -0.7043  0.2162  1.2505
  111OSM   C13S11511   0.977   5.339   9.398 -0.0050 -0.0190 -0.0247
  111OSM   H13S11512   1.066   5.321   9.334 -0.5553 -2.1423 -0.2603
  111OSM   H13T11513   0.968   5.449   9.405 -2.3362 -0.0618 -1.4679
  111OSM   C14S11514   0.856   5.288   9.317  0.3652  0.7885  0.5701
  111OSM   H14S11515   0.764   5.297   9.378  0.5745  0.8264  0.8791
  111OSM   H14T11516   0.868   5.180   9.293 -0.9244  0.8847 -0.6821
  111OSM   C15S11517   0.822   5.374   9.192 -0.1672 -0.4182  0.0079
  111OSM   H15S11518   0.810   5.481   9.222  3.6766  0.5887 -1.3840
  111OSM   H15T11519   0.734   5.332   9.138 -0.0504  1.2176 -1.5497
  111OSM   C16S11520   0.925   5.363   9.077  1.0911 -0.1989  0.9914
  111OSM   H16S11521   0.946   5.255   9.065  0.5894 -0.1020 -1.1840
  111OSM   H16T11522   1.025   5.405   9.104  2.1916 -2.6619  1.0092
  111OSM   C17S11523   0.873   5.403   8.939 -0.3380  0.0142  0.6949
  111OSM   H17S11524   0.961   5.431   8.877 -1.2670  1.4828 -0.0314
  111OSM   H17T11525   0.806   5.491   8.950  0.5627  0.9931 -1.1910
  111OSM   C18S11526   0.809   5.282   8.868 -1.0256 -0.6234 -0.4094
  111OSM   H18S11527   0.724   5.243   8.928 -1.3033  1.4284  0.6196
  111OSM   H18T11528   0.885   5.200   8.870  0.3071  0.5703  0.5711
  111OSM   H18U11529   0.770   5.304   8.767  0.1096  0.8300 -0.5690
  111OSM    C1F11530   1.132   4.948  10.215  0.0406  0.2965  0.7687
  111OSM     OF11531   1.080   4.842  10.244  0.2929  0.0334 -0.2024
  111OSM    C2F11532   1.210   4.956  10.088  0.5149  0.2851  0.0848
  111OSM    H2F11533   1.302   4.895  10.092  1.5156  1.3164 -3.4348
  111OSM    H2G11534   1.250   5.060  10.084 -1.6897  1.2125  0.3485
  111OSM    C3F11535   1.127   4.923   9.961 -0.2039 -0.0201 -0.4541
  111OSM    H3F11536   1.025   4.963   9.972 -0.6624 -1.1192 -0.5771
  111OSM    H3G11537   1.123   4.812   9.960  0.8973 -0.0817 -1.6145
  111OSM    C4F11538   1.175   4.980   9.830  0.0926 -0.3025  0.5980
  111OSM    H4F11539   1.189   5.090   9.838 -2.8326  0.1590  0.5745
  111OSM    H4G11540   1.095   4.966   9.754  0.8962  1.8241 -0.7271
  111OSM    C5F11541   1.304   4.913   9.768 -0.0350  0.3159  0.5539
  111OSM    H5F11542   1.288   4.803   9.767  1.9995 -0.0150 -0.3031
  111OSM    H5G11543   1.388   4.931   9.839  0.2772 -4.3004  1.6681
  111OSM    C6F11544   1.333   4.976   9.628 -0.0621 -0.4624  0.4363
  111OSM    H6F11545   1.414   4.913   9.587  0.9010  0.3687  1.0370
  111OSM    H6G11546   1.373   5.079   9.638 -1.0246  0.3053 -2.5998
  111OSM    C7F11547   1.226   4.972   9.520 -0.6475  0.0811 -0.7978
  111OSM    H7F11548   1.135   5.030   9.547  0.2188  1.0068  0.2663
  111OSM    H7G11549   1.198   4.865   9.517 -1.8907  0.3470  0.5221
  111OSM    C8F11550   1.283   5.022   9.383 -0.5040 -0.1324 -0.0988
  111OSM    H8F11551   1.200   5.010   9.311 -1.5380  4.0320  0.1980
  111OSM    H8G11552   1.370   4.967   9.340 -0.6230 -0.5390  0.1731
  111OSM    C9F11553   1.324   5.165   9.374  0.8016  0.4287 -0.6594
  111OSM    H9F11554   1.357   5.213   9.468 -0.8872 -1.0929  0.7831
  111OSM   C10F11555   1.328   5.238   9.261 -0.0043 -0.2021 -0.7380
  111OSM   H10F11556   1.362   5.342   9.272  1.0189 -0.6997  1.0543
  111OSM   C11F11557   1.302   5.192   9.114 -0.8274 -0.6908 -0.0633
  111OSM   H11F11558   1.191   5.188   9.122 -0.6917 -1.6531  1.7740
  111OSM   H11G11559   1.329   5.088   9.086 -1.1007 -1.0982  1.1162
  111OSM   C12F11560   1.346   5.294   9.009 -0.6417 -0.3808  0.5232
  111OSM   H12F11561   1.454   5.313   9.024 -0.9043  0.9886  0.7992
  111OSM   H12G11562   1.291   5.388   9.028 -0.6859 -0.0829 -0.9789
  111OSM   C13F11563   1.334   5.237   8.868 -0.5709 -0.8320 -0.2610
  111OSM   H13F11564   1.238   5.182   8.878 -1.5388  1.0371  1.4353
  111OSM   H13G11565   1.414   5.162   8.847 -0.3183 -0.8551  0.7526
  111OSM   C14F11566   1.325   5.337   8.750  0.5458  0.3880  0.3207
  111OSM   H14F11567   1.419   5.395   8.742  1.5330 -1.1367  0.4548
  111OSM   H14G11568   1.251   5.413   8.783  0.9135  0.1904  1.6186
  111OSM   C15F11569   1.309   5.282   8.611 -0.4261  0.0117  0.1997
  111OSM   H15F11570   1.403   5.225   8.594 -0.6216 -0.5802  1.0630
  111OSM   H15G11571   1.306   5.373   8.548 -0.8180 -1.5264 -2.1301
  111OSM   C16F11572   1.192   5.187   8.584  0.1084 -0.1287  0.1170
  111OSM   H16F11573   1.206   5.088   8.632  1.0332  0.1386  0.4261
  111OSM   H16G11574   1.188   5.176   8.473 -1.0342  1.1548  0.0131
  111OSM   C17F11575   1.052   5.242   8.627 -0.2257  0.5651 -0.2658
  111OSM   H17F11576   1.051   5.235   8.738 -1.6522 -1.0174 -0.3283
  111OSM   H17G11577   0.964   5.183   8.593 -0.9480  0.4755  1.5967
  111OSM   C18F11578   1.034   5.386   8.580  0.9551  0.9880 -0.4945
  111OSM   H18F11579   1.114   5.451   8.620  0.0113  1.6059  0.4617
  111OSM   H18G11580   0.936   5.424   8.618  0.1874 -1.2017 -0.1650
  111OSM   H18H11581   1.032   5.388   8.469 -1.6443  1.6656 -0.5088
  112OSM      N11582   2.598   3.023  11.194 -0.1461 -0.5818  0.7622
  112OSM    C1511583   2.659   2.959  11.316  0.6187 -0.1570 -0.0622
  112OSM   H15A11584   2.651   3.019  11.405  0.0404 -0.9295  0.4145
  112OSM   H15B11585   2.763   2.936  11.299  1.1092  0.3720  1.9648
  112OSM   H15C11586   2.611   2.868  11.348 -0.9768  0.8628  0.5488
  112OSM    C1411587   2.459   3.073  11.229  0.4601 -0.5331 -0.0997
  112OSM   H14A11588   2.401   2.994  11.276  0.1597  0.2472  0.8588
  112OSM   H14B11589   2.410   3.101  11.137  1.9329 -0.7628 -0.9928
  112OSM   H14C11590   2.467   3.157  11.296 -1.0753 -0.5257  0.1224
  112OSM    C1311591   2.682   3.137  11.147 -0.1884 -0.0507  0.2336
  112OSM   H13A11592   2.763   3.090  11.092  0.5189 -0.0673  1.2696
  112OSM   H13B11593   2.718   3.206  11.222  0.8399  0.7062 -0.9202
  112OSM   H13C11594   2.619   3.188  11.076 -0.2130 -0.8744 -0.3505
  112OSM    C1211595   2.585   2.915  11.080  0.3442 -0.4374 -0.1935
  112OSM   H12A11596   2.533   2.955  10.995  1.2101  0.8338 -0.1538
  112OSM   H12B11597   2.514   2.846  11.122  1.2590 -1.8878 -0.9485
  112OSM    C1111598   2.718   2.836  11.041  0.3968  0.4577 -0.0837
  112OSM   H11A11599   2.773   2.923  10.997  0.6910  1.0254  1.3391
  112OSM   H11B11600   2.686   2.771  10.957  0.3952 -0.2400  0.4457
  112OSM      P11601   2.942   2.765  11.150  0.1889  0.1573 -0.1129
  112OSM    O1311602   2.989   2.892  11.205 -0.2828  0.2010  0.0138
  112OSM    O1411603   2.979   2.646  11.231  0.2815 -0.1533  0.0258
  112OSM    O1111604   2.984   2.750  10.992 -0.3109 -0.1322 -0.3995
  112OSM    O1211605   2.787   2.770  11.144 -0.1787  0.4167 -0.2280
  112OSM    C1S11606   2.972   2.623  10.933 -0.1215  0.2506 -0.2432
  112OSM    H1S11607   2.870   2.581  10.948  0.8627 -1.7888  1.2455
  112OSM    H1T11608   3.046   2.553  10.977 -0.4983  0.4837  0.7949
  112OSM     NF11609   2.938   2.510  10.711 -0.4281 -0.3062  0.4572
  112OSM    HNF11610   3.009   2.445  10.683  1.6077  1.2192  1.8488
  112OSM    C2S11611   2.994   2.627  10.781 -0.0347 -0.2972 -0.5880
  112OSM    H2S11612   2.939   2.719  10.751  1.9972  1.3306  0.4120
  112OSM    C3S11613   3.144   2.652  10.748  0.4725 -0.6748  0.2338
  112OSM    H3S11614   3.201   2.559  10.769  0.1153 -0.8721  0.3416
  112OSM     O311615   3.214   2.753  10.820 -0.5413 -0.3107 -0.2042
  112OSM    HO311616   3.150   2.785  10.884 -1.2941  0.5796 -1.3635
  112OSM    C4S11617   3.151   2.675  10.594 -0.6432 -0.2899 -0.8519
  112OSM    H4S11618   3.192   2.588  10.541 -0.3936  0.5055 -2.0201
  112OSM    C5S11619   3.137   2.785  10.517  0.6603  0.0556 -0.1102
  112OSM    H5S11620   3.111   2.881  10.565 -0.9162 -0.7311  0.7004
  112OSM    C6S11621   3.155   2.787  10.367  0.1344  0.0210  0.1703
  112OSM    H6S11622   3.264   2.793  10.350 -0.1298  0.4734 -1.5503
  112OSM    H6T11623   3.111   2.884  10.334 -1.2747 -0.1025  1.5677
  112OSM    C7S11624   3.091   2.670  10.293  0.4223  0.4023  0.1913
  112OSM    H7S11625   2.982   2.676  10.313  0.3781 -1.7032  0.7796
  112OSM    H7T11626   3.126   2.572  10.331 -0.8428  0.6180  2.0818
  112OSM    C8S11627   3.093   2.681  10.141 -0.3760 -0.7901  0.7793
  112OSM    H8S11628   3.017   2.756  10.110 -1.0549 -1.5044  0.6897
  112OSM    H8T11629   3.063   2.585  10.094  0.7495 -1.0209  0.5108
  112OSM    C9S11630   3.234   2.717  10.088  0.0718 -0.8470  0.7080
  112OSM    H9S11631   3.323   2.667  10.133  1.6831  0.4712 -0.8182
  112OSM    H9T11632   3.253   2.825  10.102 -0.0484 -0.9633  1.7976
  112OSM   C10S11633   3.240   2.686   9.938 -0.5437  0.0867 -0.5707
  112OSM   H10S11634   3.208   2.582   9.914 -1.3097  0.3488 -0.6921
  112OSM   H10T11635   3.344   2.687   9.900 -1.0277 -2.0727 -2.1513
  112OSM   C11S11636   3.159   2.773   9.841  0.2999 -1.1851  0.3585
  112OSM   H11S11637   3.169   2.883   9.854 -0.4874 -1.0857  0.2141
  112OSM   H11T11638   3.056   2.746   9.872  0.6381 -1.9705  0.8213
  112OSM   C12S11639   3.147   2.735   9.692  0.8248  0.8703 -0.3424
  112OSM   H12S11640   3.057   2.778   9.643 -0.3237 -0.7339  0.2854
  112OSM   H12T11641   3.143   2.625   9.685  1.6215  0.6680  1.7662
  112OSM   C13S11642   3.274   2.757   9.613  0.0257 -0.1355 -0.1247
  112OSM   H13S11643   3.347   2.679   9.640 -0.3839 -0.9637 -1.3473
  112OSM   H13T11644   3.312   2.855   9.649 -0.1708 -0.5246  1.2042
  112OSM   C14S11645   3.252   2.765   9.458 -0.6818  1.3798  0.0955
  112OSM   H14S11646   3.157   2.819   9.439 -2.1872 -0.8348  0.9327
  112OSM   H14T11647   3.239   2.663   9.416  2.0263  1.0293 -0.0543
  112OSM   C15S11648   3.363   2.833   9.377  0.7654 -1.4637 -0.5943
  112OSM   H15S11649   3.463   2.801   9.415  1.5168  1.1136 -0.2465
  112OSM   H15T11650   3.351   2.943   9.385 -0.8240 -1.6075 -0.7057
  112OSM   C16S11651   3.357   2.800   9.229  0.0182 -0.1426  0.1565
  112OSM   H16S11652   3.384   2.694   9.213  0.6782  0.2192 -1.3137
  112OSM   H16T11653   3.429   2.863   9.172 -1.7636  0.9040 -1.0452
  112OSM   C17S11654   3.228   2.810   9.145 -0.2944 -0.2887 -0.3635
  112OSM   H17S11655   3.193   2.915   9.153  0.5652 -0.0220  0.0064
  112OSM   H17T11656   3.154   2.739   9.189  1.4463 -3.6667 -2.4342
  112OSM   C18S11657   3.254   2.767   9.000  0.4015  0.0690  0.1364
  112OSM   H18S11658   3.304   2.668   8.993 -1.3749 -0.8275 -0.4695
  112OSM   H18T11659   3.318   2.838   8.943 -1.1085 -0.2187 -2.0427
  112OSM   H18U11660   3.166   2.741   8.938  1.1124  0.0091 -0.8833
  112OSM    C1F11661   2.813   2.468  10.702 -0.3533 -0.0600 -0.0842
  112OSM     OF11662   2.724   2.537  10.749 -0.2243 -0.3093 -0.2101
  112OSM    C2F11663   2.778   2.344  10.628 -0.0407 -0.0166  0.1419
  112OSM    H2F11664   2.729   2.267  10.691 -0.6912  0.1941 -0.1011
  112OSM    H2G11665   2.876   2.305  10.594  0.7763  3.3919 -1.8601
  112OSM    C3F11666   2.696   2.369  10.498  0.1307 -0.0133  0.0653
  112OSM    H3F11667   2.596   2.418  10.508 -0.1240 -0.0495 -1.9239
  112OSM    H3G11668   2.682   2.267  10.457  0.4018 -0.0529  0.0706
  112OSM    C4F11669   2.768   2.448  10.393  0.2641  0.0245  0.2526
  112OSM    H4F11670   2.872   2.413  10.377  1.1169  1.1864  2.7657
  112OSM    H4G11671   2.770   2.556  10.419  0.1098 -0.2113  1.2674
  112OSM    C5F11672   2.689   2.440  10.255 -0.4446  0.2744 -0.3342
  112OSM    H5F11673   2.596   2.500  10.249 -0.3124  0.3634 -2.2521
  112OSM    H5G11674   2.666   2.334  10.233  1.0043  0.0685 -0.9370
  112OSM    C6F11675   2.780   2.497  10.141 -0.4166  0.1433  0.7649
  112OSM    H6F11676   2.859   2.424  10.114  0.4032  0.8986  1.0796
  112OSM    H6G11677   2.835   2.588  10.172  0.5353  0.2676 -1.1685
  112OSM    C7F11678   2.703   2.516  10.004 -0.3708 -0.0100 -0.9298
  112OSM    H7F11679   2.624   2.591  10.025 -1.2618 -1.5022  1.5033
  112OSM    H7G11680   2.656   2.418   9.983  0.7425 -0.9126  0.5914
  112OSM    C8F11681   2.795   2.566   9.883  0.5984 -0.6793  0.5168
  112OSM    H8F11682   2.869   2.484   9.870 -2.0012 -3.0066 -0.6244
  112OSM    H8G11683   2.839   2.664   9.911  2.3585 -1.2420 -0.1616
  112OSM    C9F11684   2.717   2.573   9.754 -0.0328 -0.7820  0.7644
  112OSM    H9F11685   2.642   2.653   9.746 -1.6948 -2.2578  1.0187
  112OSM   C10F11686   2.728   2.499   9.643  0.0829  0.7393  0.0915
  112OSM   H10F11687   2.677   2.533   9.552  0.7556 -2.1034 -1.4476
  112OSM   C11F11688   2.822   2.377   9.636  0.1318 -0.8621 -0.2813
  112OSM   H11F11689   2.791   2.317   9.548 -1.5452  0.3564 -0.5733
  112OSM   H11G11690   2.803   2.304   9.718 -0.0652 -0.3136  0.1692
  112OSM   C12F11691   2.974   2.402   9.611 -0.1724 -0.1322 -0.1481
  112OSM   H12F11692   3.026   2.304   9.614  0.6174  0.2080 -1.6759
  112OSM   H12G11693   3.022   2.456   9.695  0.3650  0.9600 -1.1290
  112OSM   C13F11694   3.002   2.462   9.477 -0.2954 -0.3602  0.4416
  112OSM   H13F11695   3.108   2.497   9.479 -0.0612 -1.0022  2.8415
  112OSM   H13G11696   2.937   2.550   9.461  1.9587  1.9496  2.8867
  112OSM   C14F11697   3.002   2.362   9.363  0.2785  0.0976  0.2811
  112OSM   H14F11698   2.905   2.308   9.358  1.3134 -1.8694  0.5548
  112OSM   H14G11699   3.083   2.290   9.383  1.1233  0.7920 -0.5396
  112OSM   C15F11700   3.026   2.428   9.227  0.7826 -0.8654 -0.0377
  112OSM   H15F11701   3.130   2.466   9.236  0.7020 -0.9366  1.3668
  112OSM   H15G11702   2.962   2.519   9.216  2.5919  0.2596 -2.1388
  112OSM   C16F11703   2.999   2.330   9.103  0.0106  0.7241  0.0665
  112OSM   H16F11704   2.892   2.311   9.080  0.5120 -0.3745 -1.5615
  112OSM   H16G11705   3.040   2.232   9.136  0.8925  1.4206  1.1195
  112OSM   C17F11706   3.062   2.372   8.972  0.1888 -0.4147 -0.9148
  112OSM   H17F11707   3.168   2.391   8.997  0.8921 -3.2193 -1.4194
  112OSM   H17G11708   3.025   2.469   8.931  1.1722  0.3467 -0.0731
  112OSM   C18F11709   3.048   2.269   8.864 -0.3194 -0.1695  0.4857
  112OSM   H18F11710   3.072   2.167   8.902 -0.7042 -1.3321 -2.1574
  112OSM   H18G11711   3.113   2.290   8.776 -0.4271 -0.9761  0.2033
  112OSM   H18H11712   2.940   2.278   8.840 -0.2620 -0.0548  0.2626
  113OSM      N11713   5.058   1.121  11.027  0.5222 -0.1715  0.2748
  113OSM    C1511714   5.132   1.058  11.136  0.2904  0.1361  0.0501
  113OSM   H15A11715   5.064   1.021  11.211  0.7420 -1.4119 -0.2619
  113OSM   H15B11716   5.201   1.127  11.182  1.6031 -0.0935 -1.4918
  113OSM   H15C11717   5.180   0.966  11.106 -0.3529  0.5604 -2.5596
  113OSM    C1411718   5.147   1.144  10.910 -0.2211 -0.0040 -0.7777
  113OSM   H14A11719   5.092   1.200  10.836  0.0723  1.4986  0.1001
  113OSM   H14B11720   5.195   1.052  10.879 -1.2608 -0.7889 -0.1609
  113OSM   H14C11721   5.226   1.211  10.939 -0.1852 -0.2400 -0.3133
  113OSM    C1311722   4.939   1.044  10.970 -0.1941  0.6348 -0.4229
  113OSM   H13A11723   4.978   0.958  10.918  0.4203  0.9091 -0.4302
  113OSM   H13B11724   4.889   1.099  10.892 -1.0263  1.5850  0.7303
  113OSM   H13C11725   4.864   1.012  11.041  0.7868 -0.6583  0.0875
  113OSM    C1211726   5.001   1.253  11.072  0.2065 -0.8065 -0.2895
  113OSM   H12A11727   4.926   1.234  11.148  1.2639  2.5490  1.7865
  113OSM   H12B11728   4.952   1.303  10.990  1.5855  1.1080 -0.0024
  113OSM    C1111729   5.088   1.355  11.148 -0.3989 -0.6509  0.3627
  113OSM   H11A11730   5.083   1.323  11.254 -0.3047 -0.9813  0.2692
  113OSM   H11B11731   5.033   1.451  11.151  0.9723  0.1436  1.6084
  113OSM      P11732   5.263   1.480  11.005 -0.4372  0.2253  0.1331
  113OSM    O1311733   5.234   1.602  11.077  0.7606 -0.3045 -0.4507
  113OSM    O1411734   5.406   1.452  10.977 -0.0096 -0.3245 -0.1684
  113OSM    O1111735   5.182   1.451  10.873 -0.3148  0.2814  0.3993
  113OSM    O1211736   5.222   1.359  11.100  0.5465  0.0560 -0.3034
  113OSM    C1S11737   5.196   1.554  10.769  0.1651  0.3276  0.6023
  113OSM    H1S11738   5.298   1.557  10.726 -0.9699 -1.0106 -2.4465
  113OSM    H1T11739   5.171   1.652  10.815  0.1250 -0.3005  1.9733
  113OSM     NF11740   5.116   1.612  10.541 -0.6765  0.1787  0.5166
  113OSM    HNF11741   5.053   1.689  10.532  1.4538  1.8501 -1.3991
  113OSM    C2S11742   5.097   1.517  10.654  0.3863 -0.4455 -0.1721
  113OSM    H2S11743   5.116   1.412  10.620  3.2643 -0.4335  1.1430
  113OSM    C3S11744   4.941   1.506  10.709  0.4464 -0.0710 -0.3521
  113OSM    H3S11745   4.909   1.612  10.723 -1.4535 -0.6241 -0.3061
  113OSM     O311746   4.930   1.455  10.837 -0.4614 -0.2804 -0.2164
  113OSM    HO311747   5.021   1.463  10.867 -0.8654  1.6252  0.5862
  113OSM    C4S11748   4.846   1.456  10.606 -0.1133  0.6380  0.1544
  113OSM    H4S11749   4.885   1.387  10.530 -0.7798 -1.0863  1.3318
  113OSM    C5S11750   4.717   1.500  10.590 -0.2160  0.0171 -0.1027
  113OSM    H5S11751   4.687   1.566  10.672 -1.0869  2.0856 -1.9752
  113OSM    C6S11752   4.607   1.461  10.487 -0.4934  0.3205 -0.0823
  113OSM    H6S11753   4.514   1.519  10.503 -0.1327  1.1167 -0.7908
  113OSM    H6T11754   4.579   1.353  10.490  0.8844 -0.1530 -2.0793
  113OSM    C7S11755   4.647   1.471  10.340 -0.4771 -0.0284 -0.5090
  113OSM    H7S11756   4.736   1.408  10.319 -0.0955  0.7076 -1.1151
  113OSM    H7T11757   4.680   1.576  10.328  0.4835 -0.1945  0.5939
  113OSM    C8S11758   4.540   1.436  10.237  0.0489  0.7183 -0.1866
  113OSM    H8S11759   4.468   1.520  10.236  1.9800  2.5371 -2.9952
  113OSM    H8T11760   4.482   1.347  10.268  2.7170 -2.1452 -2.7858
  113OSM    C9S11761   4.601   1.425  10.094 -0.7149  0.0190  0.3153
  113OSM    H9S11762   4.663   1.333  10.100  1.2799  0.9934 -2.8497
  113OSM    H9T11763   4.681   1.499  10.072  0.1472 -1.0662 -0.3040
  113OSM   C10S11764   4.506   1.413   9.982 -0.4620 -0.7182  0.8470
  113OSM   H10S11765   4.444   1.505   9.992  1.2119  0.3005  2.4638
  113OSM   H10T11766   4.444   1.324  10.007 -0.0636 -1.4475 -0.6408
  113OSM   C11S11767   4.576   1.388   9.843  0.1984  0.2188  0.1476
  113OSM   H11S11768   4.621   1.291   9.874 -1.7326 -0.6466  0.4169
  113OSM   H11T11769   4.660   1.455   9.814  0.0746 -0.0339 -0.8419
  113OSM   C12S11770   4.468   1.376   9.740  0.2751 -1.2336  0.2803
  113OSM   H12S11771   4.413   1.471   9.721  0.1486 -1.2763  0.4259
  113OSM   H12T11772   4.396   1.298   9.774  1.0640 -1.2205  2.0892
  113OSM   C13S11773   4.523   1.331   9.603 -0.3878  0.0718 -0.2482
  113OSM   H13S11774   4.556   1.224   9.610 -1.2173 -0.1188  1.0204
  113OSM   H13T11775   4.623   1.379   9.594 -0.4285 -0.1191 -2.1914
  113OSM   C14S11776   4.433   1.356   9.482 -0.0891 -0.3416  0.1123
  113OSM   H14S11777   4.403   1.463   9.487 -0.3183 -0.3847 -0.2543
  113OSM   H14T11778   4.339   1.298   9.488 -0.1158 -0.1514  2.3452
  113OSM   C15S11779   4.518   1.337   9.355 -0.5779  0.7225 -0.1902
  113OSM   H15S11780   4.557   1.235   9.371 -1.7352  0.0286 -1.5583
  113OSM   H15T11781   4.606   1.405   9.362  1.1657 -1.5690  2.0037
  113OSM   C16S11782   4.433   1.343   9.231  0.1957  0.0013  0.0584
  113OSM   H16S11783   4.382   1.439   9.208  2.0505  1.2191  0.8106
  113OSM   H16T11784   4.358   1.264   9.248 -0.2425  0.2626 -0.6009
  113OSM   C17S11785   4.512   1.314   9.105  0.3564 -0.1019  0.7748
  113OSM   H17S11786   4.559   1.216   9.127 -0.2907 -0.7256 -0.5065
  113OSM   H17T11787   4.592   1.389   9.085 -0.6075  0.1286 -2.8350
  113OSM   C18S11788   4.421   1.308   8.982  0.0674  0.7765 -0.5596
  113OSM   H18S11789   4.475   1.297   8.885  0.8872 -1.0261  0.0518
  113OSM   H18T11790   4.348   1.391   8.982  0.8961  1.5176  0.1957
  113OSM   H18U11791   4.351   1.223   9.000 -0.0508  0.5303 -2.0641
  113OSM    C1F11792   5.238   1.624  10.482 -1.4320 -0.1359  0.6109
  113OSM     OF11793   5.314   1.526  10.483  0.0487 -0.6557 -0.1073
  113OSM    C2F11794   5.276   1.755  10.413  0.0515  0.0287 -0.6538
  113OSM    H2F11795   5.298   1.831  10.491  0.7869 -1.7715  0.9465
  113OSM    H2G11796   5.191   1.790  10.350 -0.0364 -0.9978 -1.1232
  113OSM    C3F11797   5.399   1.762  10.311 -0.2678 -0.3564 -0.2277
  113OSM    H3F11798   5.490   1.710  10.348 -0.7151 -0.3705  0.8697
  113OSM    H3G11799   5.417   1.871  10.301  1.0474 -0.2636  2.3919
  113OSM    C4F11800   5.381   1.690  10.181 -0.1146 -0.0274 -0.4682
  113OSM    H4F11801   5.325   1.598  10.208 -1.6785  1.1503  0.4800
  113OSM    H4G11802   5.482   1.674  10.136  0.7725 -1.9735  1.9506
  113OSM    C5F11803   5.283   1.767  10.086 -0.6870  0.4635  0.5980
  113OSM    H5F11804   5.331   1.867  10.086 -0.6061  0.4273 -0.0005
  113OSM    H5G11805   5.177   1.768  10.119 -0.5777 -0.6367  1.0275
  113OSM    C6F11806   5.273   1.712   9.947 -0.1536 -0.1291 -0.4388
  113OSM    H6F11807   5.257   1.602   9.946 -0.7936 -0.0859  1.2503
  113OSM    H6G11808   5.377   1.735   9.913  0.3028  0.4729  1.2704
  113OSM    C7F11809   5.164   1.772   9.855 -0.5404 -0.7210 -0.8357
  113OSM    H7F11810   5.166   1.883   9.843  0.2694 -0.8782 -2.3604
  113OSM    H7G11811   5.064   1.748   9.897  0.0069  0.3821  1.2665
  113OSM    C8F11812   5.188   1.711   9.716 -0.5987 -0.2624  0.3214
  113OSM    H8F11813   5.100   1.742   9.656  1.5826  1.3554 -2.2186
  113OSM    H8G11814   5.187   1.600   9.716 -0.0010 -0.2998 -1.5808
  113OSM    C9F11815   5.317   1.764   9.648 -0.0445 -0.1355 -1.0096
  113OSM    H9F11816   5.417   1.736   9.683  1.3154  1.8600 -3.0309
  113OSM   C10F11817   5.325   1.845   9.541  0.0877  0.3112 -0.2615
  113OSM   H10F11818   5.424   1.887   9.518  0.2852  0.0783  0.1488
  113OSM   C11F11819   5.216   1.905   9.459 -0.5820  0.5652  0.4644
  113OSM   H11F11820   5.240   2.009   9.428  1.3146 -0.8825 -3.7481
  113OSM   H11G11821   5.116   1.918   9.505 -0.0430  0.5106  1.6958
  113OSM   C12F11822   5.196   1.840   9.318 -0.0635 -0.6936 -0.1989
  113OSM   H12F11823   5.160   1.735   9.327 -2.2045 -0.2422 -2.5049
  113OSM   H12G11824   5.293   1.838   9.264 -0.3194 -0.7226 -0.6618
  113OSM   C13F11825   5.079   1.905   9.236 -0.5026 -0.0615  0.0453
  113OSM   H13F11826   5.092   2.015   9.229 -1.7847  0.3650  2.9967
  113OSM   H13G11827   4.980   1.901   9.287 -2.1381 -2.0688 -2.9042
  113OSM   C14F11828   5.061   1.839   9.102  0.2309 -0.5123  0.1054
  113OSM   H14F11829   4.961   1.868   9.064  0.8792 -0.6156 -1.7789
  113OSM   H14G11830   5.071   1.731   9.126 -0.8747 -1.2454 -2.3820
  113OSM   C15F11831   5.164   1.889   8.996 -0.2813 -0.1489 -0.0918
  113OSM   H15F11832   5.265   1.865   9.034  0.1797  1.5518 -0.1486
  113OSM   H15G11833   5.152   1.999   8.987  1.6955  0.0464 -0.9019
  113OSM   C16F11834   5.139   1.807   8.859 -0.3028  0.0575 -0.2847
  113OSM   H16F11835   5.058   1.851   8.797 -2.4608  0.7302  2.7601
  113OSM   H16G11836   5.121   1.700   8.882  1.5899 -0.8296 -2.5121
  113OSM   C17F11837   5.261   1.813   8.764 -0.4498  0.1696 -0.4806
  113OSM   H17F11838   5.346   1.783   8.828 -0.3737 -1.9403 -1.4799
  113OSM   H17G11839   5.273   1.921   8.738  0.3070  0.1451 -0.2525
  113OSM   C18F11840   5.233   1.727   8.641  0.2787  0.4543  0.7523
  113OSM   H18F11841   5.311   1.747   8.564  0.6812  1.2295  1.3435
  113OSM   H18G11842   5.135   1.759   8.600 -0.8905  0.2465  3.2485
  113OSM   H18H11843   5.225   1.623   8.678  0.9825  0.3805  0.7086
  114OSM      N11844   1.376   1.921  10.983 -0.0703 -0.7702  0.3326
  114OSM    C1511845   1.413   1.809  10.902 -0.9085 -0.1336 -0.5437
  114OSM   H15A11846   1.507   1.813  10.849 -1.7542 -2.3811 -2.3959
  114OSM   H15B11847   1.344   1.791  10.821 -3.2869 -0.1238  1.3631
  114OSM   H15C11848   1.409   1.715  10.955  0.1928 -1.7974 -3.2003
  114OSM    C1411849   1.237   1.895  11.039  0.1042  0.3142  0.1785
  114OSM   H14A11850   1.173   1.857  10.961 -0.0279 -2.1933  1.4233
  114OSM   H14B11851   1.193   1.976  11.095 -1.1290  0.8975 -1.5479
  114OSM   H14C11852   1.255   1.815  11.109 -0.1715 -0.0592 -0.1776
  114OSM    C1311853   1.478   1.931  11.091  0.3786  0.5944  0.1318
  114OSM   H13A11854   1.566   1.976  11.047  0.8329 -0.1757  0.2239
  114OSM   H13B11855   1.495   1.833  11.134  0.6379  0.1043 -1.0548
  114OSM   H13C11856   1.454   1.997  11.173 -0.1061 -1.7157  1.9572
  114OSM    C1211857   1.373   2.047  10.892  0.6756  0.2880  0.6010
  114OSM   H12A11858   1.359   2.136  10.952 -1.4452  0.0158  0.5836
  114OSM   H12B11859   1.283   2.045  10.833  2.3481  0.7671 -2.1543
  114OSM    C1111860   1.491   2.073  10.792  0.0200 -0.0811  0.5344
  114OSM   H11A11861   1.471   2.151  10.716  1.3161 -0.5297 -0.3081
  114OSM   H11B11862   1.501   1.989  10.720  0.2065  0.0063  0.4577
  114OSM      P11863   1.661   2.237  10.907 -0.3126 -0.1879  0.4446
  114OSM    O1311864   1.568   2.311  10.997  0.0477 -0.5725  0.4473
  114OSM    O1411865   1.801   2.242  10.957  0.2056  0.6293  0.2205
  114OSM    O1111866   1.656   2.312  10.767  0.3635 -0.0867 -0.3795
  114OSM    O1211867   1.612   2.094  10.861 -0.3024  0.0413 -0.0019
  114OSM    C1S11868   1.730   2.266  10.641 -0.3093  0.6375 -0.7189
  114OSM    H1S11869   1.709   2.159  10.619  5.2073 -1.4525  2.1557
  114OSM    H1T11870   1.839   2.264  10.664 -0.6736 -0.6767  1.2103
  114OSM     NF11871   1.758   2.312  10.405  0.1149 -0.1235 -0.7319
  114OSM    HNF11872   1.855   2.335  10.403 -0.1256  0.8630 -1.7559
  114OSM    C2S11873   1.687   2.364  10.522  0.4039  0.2485 -0.5219
  114OSM    H2S11874   1.578   2.344  10.512  0.5881 -1.0678 -0.1031
  114OSM    C3S11875   1.705   2.513  10.544 -0.6753 -0.8808 -0.1550
  114OSM    H3S11876   1.811   2.531  10.574 -0.8580 -0.4960  0.2817
  114OSM     O311877   1.627   2.556  10.648 -0.3104 -0.5449 -0.0716
  114OSM    HO311878   1.605   2.481  10.704  0.7473  1.5777  3.4803
  114OSM    C4S11879   1.678   2.585  10.412  0.6266 -0.5591  1.1291
  114OSM    H4S11880   1.579   2.585  10.365 -1.4259  1.0903  4.9244
  114OSM    C5S11881   1.779   2.651  10.348 -0.2054 -0.1450 -0.0420
  114OSM    H5S11882   1.882   2.652  10.387  0.5892 -1.4766 -1.9451
  114OSM    C6S11883   1.756   2.722  10.222 -1.2080  0.2869  0.3503
  114OSM    H6S11884   1.819   2.814  10.220 -3.3333  1.8562 -2.6311
  114OSM    H6T11885   1.655   2.769  10.232 -1.8841 -0.8569 -0.8141
  114OSM    C7S11886   1.776   2.635  10.098  0.1854  0.5908  0.4402
  114OSM    H7S11887   1.712   2.687  10.024  1.3464  1.7165  0.1830
  114OSM    H7T11888   1.731   2.534  10.108  1.2595  0.0914  0.4759
  114OSM    C8S11889   1.911   2.620  10.032 -0.1171 -0.8921 -0.0656
  114OSM    H8S11890   1.985   2.603  10.113  0.1707 -2.5677 -0.6430
  114OSM    H8T11891   1.938   2.717   9.985  1.7671 -0.6379  1.3887
  114OSM    C9S11892   1.914   2.511   9.927  0.1714 -0.2968  0.8891
  114OSM    H9S11893   1.842   2.514   9.842  1.2875 -1.4377 -0.1294
  114OSM    H9T11894   1.895   2.423   9.992  2.8063  0.1996  2.4865
  114OSM   C10S11895   2.053   2.493   9.865 -0.9030 -0.6744 -0.6903
  114OSM   H10S11896   2.058   2.392   9.818  1.0057 -1.1614  0.4398
  114OSM   H10T11897   2.121   2.498   9.952 -2.3988  0.2396  0.4705
  114OSM   C11S11898   2.084   2.590   9.750 -0.3049  1.1232  0.5025
  114OSM   H11S11899   2.106   2.685   9.802 -3.3237  1.0841  2.0845
  114OSM   H11T11900   1.997   2.616   9.687 -0.4651  0.8903  0.6222
  114OSM   C12S11901   2.200   2.542   9.659 -0.4289 -0.1128  0.6253
  114OSM   H12S11902   2.183   2.446   9.607 -0.4242  1.0239 -1.5928
  114OSM   H12T11903   2.290   2.526   9.723 -1.4113 -0.5692  1.9160
  114OSM   C13S11904   2.234   2.640   9.549 -0.0103  0.2205 -0.6974
  114OSM   H13S11905   2.249   2.742   9.589 -1.1173 -0.6935  2.3588
  114OSM   H13T11906   2.148   2.645   9.479  0.3874 -0.3586 -1.2503
  114OSM   C14S11907   2.366   2.605   9.472 -0.2762  1.0635 -0.4921
  114OSM   H14S11908   2.351   2.496   9.458  0.3852  1.0700 -1.3098
  114OSM   H14T11909   2.456   2.633   9.530  0.2097  2.5421 -1.8833
  114OSM   C15S11910   2.362   2.666   9.341  0.0512  0.1752  0.3418
  114OSM   H15S11911   2.348   2.776   9.353  1.7681  0.4079  0.4834
  114OSM   H15T11912   2.272   2.622   9.293  0.3878  0.0292 -0.1634
  114OSM   C16S11913   2.491   2.655   9.257 -0.5452  0.0776  0.0146
  114OSM   H16S11914   2.570   2.720   9.301 -1.5413  0.4378  1.3296
  114OSM   H16T11915   2.470   2.704   9.160 -1.3058  0.1036  0.1891
  114OSM   C17S11916   2.544   2.509   9.227  0.0735 -0.0458 -0.1602
  114OSM   H17S11917   2.449   2.452   9.219 -0.5328  1.0294 -0.9855
  114OSM   H17T11918   2.617   2.476   9.304  1.6034  1.9366 -0.6892
  114OSM   C18S11919   2.616   2.501   9.094 -0.5645  0.1653  0.9046
  114OSM   H18S11920   2.628   2.398   9.054 -0.3197  0.3841  0.4131
  114OSM   H18T11921   2.720   2.535   9.111 -0.4965 -0.1741  1.1670
  114OSM   H18U11922   2.562   2.562   9.018 -1.6542 -1.0573  0.6498
  114OSM    C1F11923   1.705   2.209  10.344 -0.6708 -0.8192  0.0860
  114OSM     OF11924   1.606   2.157  10.385 -0.3035  0.2458  0.1951
  114OSM    C2F11925   1.785   2.168  10.220 -0.4489 -0.0981  0.1665
  114OSM    H2F11926   1.834   2.074  10.257 -0.7406 -0.2084  0.2736
  114OSM    H2G11927   1.871   2.238  10.213 -0.6033 -0.0194 -1.0492
  114OSM    C3F11928   1.712   2.157  10.083  0.0318  0.1829  0.1811
  114OSM    H3F11929   1.666   2.253  10.053  1.4912  1.1343  0.8889
  114OSM    H3G11930   1.626   2.087  10.096  0.1776  0.0081  0.2150
  114OSM    C4F11931   1.799   2.092   9.970  0.0088  0.2895 -0.2533
  114OSM    H4F11932   1.809   1.981   9.971 -1.1094  0.1709 -1.0704
  114OSM    H4G11933   1.906   2.118   9.988  0.0576  0.2310 -0.4617
  114OSM    C5F11934   1.755   2.130   9.824 -0.5566  0.3855 -0.4487
  114OSM    H5F11935   1.717   2.234   9.820 -0.3591  0.4660 -0.2332
  114OSM    H5G11936   1.667   2.067   9.798  0.1757 -1.1845  0.6907
  114OSM    C6F11937   1.865   2.095   9.726  0.4355  0.2449  0.1113
  114OSM    H6F11938   1.904   1.995   9.752 -1.5284 -0.5888  0.0045
  114OSM    H6G11939   1.962   2.148   9.740  0.5945 -0.7788  4.0792
  114OSM    C7F11940   1.812   2.108   9.583 -0.2589  0.3745 -0.2513
  114OSM    H7F11941   1.723   2.041   9.585 -1.2375  1.6192  2.5663
  114OSM    H7G11942   1.889   2.068   9.514 -1.4564 -2.5650 -0.0288
  114OSM    C8F11943   1.758   2.240   9.540 -1.0446 -0.7275 -0.3706
  114OSM    H8F11944   1.676   2.270   9.609  1.6685  1.8843  1.9806
  114OSM    H8G11945   1.725   2.237   9.434 -0.5150  2.8114 -0.7699
  114OSM    C9F11946   1.858   2.350   9.551  0.0767  0.1024  0.2034
  114OSM    H9F11947   1.879   2.394   9.650  2.2489  0.2270 -0.2476
  114OSM   C10F11948   1.928   2.410   9.447 -0.0013 -0.2289 -0.5262
  114OSM   H10F11949   1.996   2.490   9.479 -2.1461  0.4801  2.7212
  114OSM   C11F11950   1.924   2.371   9.299 -0.0248 -0.6101  0.1827
  114OSM   H11F11951   1.817   2.380   9.273 -0.2724  1.4264  1.7008
  114OSM   H11G11952   1.951   2.264   9.289 -3.3857 -1.4110 -2.0259
  114OSM   C12F11953   2.002   2.463   9.204  0.7598 -0.5708  0.5004
  114OSM   H12F11954   2.112   2.450   9.207  0.9385  0.7725  0.3584
  114OSM   H12G11955   1.967   2.568   9.213 -1.5773 -0.7450 -3.9440
  114OSM   C13F11956   1.969   2.428   9.061  0.0668 -0.2288  0.1375
  114OSM   H13F11957   1.867   2.453   9.026  0.5651  1.6777 -0.0536
  114OSM   H13G11958   1.979   2.319   9.043 -0.8583 -0.2915 -0.0334
  114OSM   C14F11959   2.067   2.495   8.960  0.0757 -0.2471  0.0425
  114OSM   H14F11960   2.169   2.454   8.975  0.6935  0.8573 -0.9580
  114OSM   H14G11961   2.064   2.603   8.988  0.4294 -0.6103  1.5857
  114OSM   C15F11962   2.021   2.468   8.811  0.0385 -0.2538  0.1194
  114OSM   H15F11963   1.976   2.368   8.792  1.0001 -0.3947 -1.5793
  114OSM   H15G11964   2.105   2.484   8.740  0.1752 -1.0133  0.1013
  114OSM   C16F11965   1.910   2.567   8.767  0.4349  0.3348 -0.3344
  114OSM   H16F11966   1.941   2.673   8.763  1.3351  0.0656 -0.7031
  114OSM   H16G11967   1.837   2.572   8.851  1.0119  2.3244  0.1133
  114OSM   C17F11968   1.846   2.544   8.627  0.0577 -0.3580  0.2523
  114OSM   H17F11969   1.763   2.617   8.619  1.6793  1.5727  0.4011
  114OSM   H17G11970   1.819   2.436   8.618 -1.2455 -0.1957  1.8055
  114OSM   C18F11971   1.949   2.566   8.514  0.4385 -0.7003  0.1502
  114OSM   H18F11972   1.886   2.572   8.422 -0.1161  0.6337  0.5953
  114OSM   H18G11973   2.025   2.486   8.503  1.8730  0.0652  3.4307
  114OSM   H18H11974   2.005   2.660   8.532 -1.1336 -0.1443  2.5785
  115OSM      N11975   3.983   4.161  10.714  0.2769 -0.3790  0.0136
  115OSM    C1511976   4.019   4.015  10.691  0.5683 -0.0701 -0.7186
  115OSM   H15A11977   4.083   3.983  10.771  2.1684  1.5447 -1.2837
  115OSM   H15B11978   4.078   4.003  10.601  0.1067 -2.1655 -0.7873
  115OSM   H15C11979   3.927   3.958  10.698  0.3996  0.3792  1.0089
  115OSM    C1411980   3.891   4.202  10.608  0.3554 -0.0870  0.5720
  115OSM   H14A11981   3.802   4.142  10.595 -0.8953  2.0625 -1.4740
  115OSM   H14B11982   3.936   4.205  10.510  0.5043 -1.7466  0.5529
  115OSM   H14C11983   3.851   4.299  10.630 -0.4285 -0.5274  1.1106
  115OSM    C1311984   3.912   4.178  10.843  0.1084  0.3240 -0.4343
  115OSM   H13A11985   3.970   4.139  10.925  1.9788  1.1692 -1.2924
  115OSM   H13B11986   3.819   4.123  10.840  0.5464 -0.4901  0.5847
  115OSM   H13C11987   3.888   4.283  10.856  0.3277  0.2054  1.0674
  115OSM    C1211988   4.114   4.252  10.714  0.3582 -0.1452  0.0367
  115OSM   H12A11989   4.091   4.353  10.747 -0.0683  0.3368 -1.6478
  115OSM   H12B11990   4.153   4.263  10.614  0.0331 -0.4144 -0.1206
  115OSM    C1111991   4.228   4.208  10.814  0.5322 -1.0306  0.3806
  115OSM   H11A11992   4.194   4.208  10.919  1.4517 -1.3693  0.6881
  115OSM   H11B11993   4.312   4.282  10.815 -1.5756  1.5283 -0.4456
  115OSM      P11994   4.355   3.990  10.888 -0.2489  0.5417 -0.0948
  115OSM    O1311995   4.438   4.068  10.972 -0.6142 -0.3510 -0.0479
  115OSM    O1411996   4.268   3.890  10.959  0.5109 -1.2562  0.3802
  115OSM    O1111997   4.453   3.914  10.785 -0.3040 -0.0858  0.3226
  115OSM    O1211998   4.275   4.076  10.782  0.3837 -0.8251  0.2483
  115OSM    C1S11999   4.395   3.804  10.712  0.1515 -0.0867 -0.0950
  115OSM    H1S12000   4.285   3.803  10.723  0.3159  0.2658  1.9880
  115OSM    H1T12001   4.449   3.716  10.754  3.5946  2.3000  0.9542
  115OSM     NF12002   4.358   3.719  10.480 -0.0689 -0.0728 -0.2129
  115OSM    HNF12003   4.394   3.627  10.469  0.1257  0.2722 -3.3682
  115OSM    C2S12004   4.438   3.807  10.561 -1.1220  0.4432  0.2914
  115OSM    H2S12005   4.417   3.904  10.512  0.3432 -0.4274 -2.2357
  115OSM    C3S12006   4.591   3.776  10.545  0.1241  0.6250  0.1144
  115OSM    H3S12007   4.620   3.676  10.583 -0.1840  1.2232  2.0190
  115OSM     O312008   4.673   3.866  10.619 -0.7514  0.0590 -0.4873
  115OSM    HO312009   4.621   3.938  10.655  1.6555  2.3349 -1.2035
  115OSM    C4S12010   4.622   3.793  10.401 -0.2265 -0.4682 -0.7309
  115OSM    H4S12011   4.628   3.895  10.360  1.7238 -0.1458  0.2380
  115OSM    C5S12012   4.652   3.688  10.319 -0.5054 -0.8677 -0.1880
  115OSM    H5S12013   4.650   3.585  10.357 -0.6372 -0.4682  0.9171
  115OSM    C6S12014   4.687   3.698  10.170  0.0969  0.6278 -0.9202
  115OSM    H6S12015   4.639   3.622  10.104  1.4314  0.5736 -1.8809
  115OSM    H6T12016   4.796   3.685  10.187 -0.2459  1.3116  2.5497
  115OSM    C7S12017   4.645   3.834  10.100 -0.5604 -0.5759  0.2720
  115OSM    H7S12018   4.688   3.922  10.152 -1.5967  0.2299 -0.2103
  115OSM    H7T12019   4.535   3.842  10.111 -0.7615  0.8629 -2.0425
  115OSM    C8S12020   4.674   3.828   9.950 -0.5467  0.0146  0.2022
  115OSM    H8S12021   4.625   3.737   9.911 -2.1645  0.6350  0.7044
  115OSM    H8T12022   4.784   3.819   9.943 -0.5875  0.1330 -0.6363
  115OSM    C9S12023   4.618   3.945   9.866 -0.2362  0.3513  0.2147
  115OSM    H9S12024   4.668   4.038   9.901  0.4122  0.9362 -2.0773
  115OSM    H9T12025   4.508   3.940   9.877 -0.0611 -1.1689  1.7023
  115OSM   C10S12026   4.661   3.924   9.721 -0.1869  0.1604  0.3110
  115OSM   H10S12027   4.627   3.828   9.677  0.2920  0.0453  0.1862
  115OSM   H10T12028   4.771   3.908   9.723 -0.0504  1.0448  2.0599
  115OSM   C11S12029   4.624   4.044   9.633  0.2005  0.0648 -0.1802
  115OSM   H11S12030   4.660   4.131   9.691 -0.5870  0.0509  0.3427
  115OSM   H11T12031   4.515   4.056   9.615 -0.4607  1.4270  3.8496
  115OSM   C12S12032   4.699   4.057   9.494  0.0868 -0.7675 -0.1255
  115OSM   H12S12033   4.655   3.977   9.432 -1.4784 -0.7190  0.8661
  115OSM   H12T12034   4.803   4.028   9.523  0.6558  2.7491  2.0105
  115OSM   C13S12035   4.673   4.186   9.419  0.6098  0.1022  0.4248
  115OSM   H13S12036   4.690   4.261   9.499  0.2940 -1.3459  1.8944
  115OSM   H13T12037   4.570   4.198   9.381 -1.0438 -1.1025  4.1196
  115OSM   C14S12038   4.781   4.195   9.310 -0.5658 -0.3371 -0.1104
  115OSM   H14S12039   4.800   4.097   9.260  0.6476 -0.4930  0.6202
  115OSM   H14T12040   4.877   4.227   9.356 -1.7299  0.7229  1.7050
  115OSM   C15S12041   4.755   4.306   9.203  0.6793 -0.0108  0.6773
  115OSM   H15S12042   4.831   4.304   9.122 -0.5030 -1.5702 -0.4496
  115OSM   H15T12043   4.759   4.405   9.253  1.0694 -0.6035  1.8397
  115OSM   C16S12044   4.626   4.269   9.122 -0.1690 -0.1396 -0.2688
  115OSM   H16S12045   4.538   4.277   9.190  1.8657  0.0319  2.5437
  115OSM   H16T12046   4.631   4.160   9.106  0.7267 -0.1519  0.0334
  115OSM   C17S12047   4.611   4.352   8.995 -0.0293 -0.1787  0.0422
  115OSM   H17S12048   4.635   4.460   9.012  1.3630 -0.4081 -0.3103
  115OSM   H17T12049   4.504   4.352   8.966  0.3633 -1.1982 -1.5004
  115OSM   C18S12050   4.698   4.309   8.879 -0.0549  0.2486  0.2216
  115OSM   H18S12051   4.701   4.199   8.866  1.2598  0.4845 -2.1163
  115OSM   H18T12052   4.805   4.331   8.901  0.0779 -0.0777 -0.0891
  115OSM   H18U12053   4.667   4.352   8.782  0.3254 -1.2111 -0.5755
  115OSM    C1F12054   4.237   3.748  10.434  0.1226  0.2729 -0.6897
  115OSM     OF12055   4.179   3.848  10.469 -0.1725 -0.3548  0.5351
  115OSM    C2F12056   4.186   3.654  10.331  0.4065  0.5216 -0.2866
  115OSM    H2F12057   4.139   3.569  10.385 -0.4695  0.3188 -1.3288
  115OSM    H2G12058   4.268   3.618  10.265  0.0154  1.2115 -1.1663
  115OSM    C3F12059   4.080   3.720  10.227 -0.4201  0.0764  0.5169
  115OSM    H3F12060   4.007   3.767  10.296  1.5290  3.7670  0.3469
  115OSM    H3G12061   4.031   3.640  10.168 -2.9690  2.9401 -1.6208
  115OSM    C4F12062   4.138   3.843  10.152 -0.3491 -0.0024 -0.0038
  115OSM    H4F12063   4.199   3.907  10.220  1.0294 -1.5971  0.3244
  115OSM    H4G12064   4.058   3.902  10.102  0.3072 -2.8981 -5.1863
  115OSM    C5F12065   4.236   3.803  10.037  0.1323  0.7749 -0.4285
  115OSM    H5F12066   4.296   3.719  10.076 -1.0295  0.7491  1.3768
  115OSM    H5G12067   4.306   3.886  10.011  1.2322 -0.0598 -0.1968
  115OSM    C6F12068   4.167   3.766   9.904  0.1286 -0.3187 -0.0067
  115OSM    H6F12069   4.070   3.714   9.918  0.6182 -1.0101  0.8619
  115OSM    H6G12070   4.233   3.700   9.844 -1.5619 -2.8298  0.7321
  115OSM    C7F12071   4.150   3.889   9.813  0.1969  0.1238  0.0971
  115OSM    H7F12072   4.138   3.978   9.880  0.2003  0.1542  0.0568
  115OSM    H7G12073   4.058   3.889   9.752 -0.4051 -0.1815  0.9810
  115OSM    C8F12074   4.280   3.904   9.722  0.2794 -0.1393 -0.7458
  115OSM    H8F12075   4.367   3.866   9.780 -0.9991 -2.1545 -0.0203
  115OSM    H8G12076   4.291   4.009   9.688  0.0819  0.1580  0.0677
  115OSM    C9F12077   4.270   3.811   9.604  0.5554 -0.2277 -0.1980
  115OSM    H9F12078   4.326   3.717   9.601 -2.2933 -2.0000 -0.7443
  115OSM   C10F12079   4.200   3.848   9.492 -0.2997 -0.3213 -0.1606
  115OSM   H10F12080   4.197   3.780   9.405 -2.5085 -0.7014  0.1649
  115OSM   C11F12081   4.120   3.976   9.479 -0.5696  0.7050  0.7841
  115OSM   H11F12082   4.112   4.034   9.573  0.0089 -0.6171  1.6742
  115OSM   H11G12083   4.012   3.955   9.467 -0.3113 -1.7080  2.0594
  115OSM   C12F12084   4.182   4.065   9.372  0.1666  0.6458 -0.4080
  115OSM   H12F12085   4.281   4.083   9.419  0.0135  2.9010 -0.8330
  115OSM   H12G12086   4.131   4.164   9.371  0.2849  0.7187  0.4080
  115OSM   C13F12087   4.186   4.009   9.231 -0.1743 -0.0673 -0.1326
  115OSM   H13F12088   4.083   3.990   9.194  1.2090 -0.3638 -4.3418
  115OSM   H13G12089   4.254   3.922   9.241  0.9481  0.9320  1.2213
  115OSM   C14F12090   4.256   4.104   9.126  0.2713  0.6862 -0.0117
  115OSM   H14F12091   4.366   4.092   9.132  0.0686 -0.7459  1.5850
  115OSM   H14G12092   4.230   4.206   9.159  1.2594  0.9460 -0.0090
  115OSM   C15F12093   4.189   4.098   8.990  0.2901 -0.3229  0.0407
  115OSM   H15F12094   4.106   4.167   8.962  0.6312 -0.2700 -0.8600
  115OSM   H15G12095   4.158   3.995   8.965 -0.4114  0.0673 -0.7685
  115OSM   C16F12096   4.299   4.136   8.897 -0.6575  0.2042  0.5037
  115OSM   H16F12097   4.390   4.078   8.926  1.1959  3.0428  0.8833
  115OSM   H16G12098   4.319   4.241   8.929 -0.7286  0.6648 -0.8953
  115OSM   C17F12099   4.260   4.138   8.744  0.2605 -0.1757  0.3575
  115OSM   H17F12100   4.159   4.179   8.726  1.5942  1.9732 -3.2854
  115OSM   H17G12101   4.256   4.032   8.710 -1.2577 -0.3138  0.8802
  115OSM   C18F12102   4.353   4.218   8.650  0.2704 -0.4231  0.8662
  115OSM   H18F12103   4.455   4.183   8.624  0.9532  2.4041 -0.6125
  115OSM   H18G12104   4.361   4.323   8.685  2.1572 -0.6670  1.2760
  115OSM   H18H12105   4.306   4.226   8.550 -3.9495 -0.8178  2.5906
  116OSM      N12106   0.877   6.643  10.767 -0.0432 -0.3332 -0.0374
  116OSM    C1512107   0.761   6.682  10.846 -0.0174  0.6716 -0.1673
  116OSM   H15A12108   0.742   6.624  10.935 -4.1281 -2.4462 -2.7127
  116OSM   H15B12109   0.683   6.673  10.772  0.2403  1.3705 -0.5281
  116OSM   H15C12110   0.762   6.786  10.871  0.7425  0.4924  0.5942
  116OSM    C1412111   0.901   6.747  10.659  0.6275  0.6125 -0.2875
  116OSM   H14A12112   0.908   6.848  10.698 -1.0767  1.1841 -1.3225
  116OSM   H14B12113   0.821   6.754  10.586  0.3496  1.8301  0.1025
  116OSM   H14C12114   0.990   6.729  10.601 -0.7427 -2.9484 -1.6102
  116OSM    C1312115   0.995   6.645  10.858 -0.4404  0.3058 -0.3377
  116OSM   H13A12116   0.995   6.568  10.933  2.0847  0.3197 -0.2696
  116OSM   H13B12117   1.000   6.738  10.911  0.8710  0.0511  0.0168
  116OSM   H13C12118   1.089   6.645  10.805  0.5364 -1.0997  1.3055
  116OSM    C1212119   0.876   6.505  10.702  0.0165  0.1392  0.1877
  116OSM   H12A12120   0.884   6.430  10.779 -1.3749  0.5354  0.7589
  116OSM   H12B12121   0.959   6.497  10.634  0.3480  0.2235  0.5781
  116OSM    C1112122   0.743   6.462  10.635 -0.3844  0.1735  0.0277
  116OSM   H11A12123   0.761   6.368  10.578 -3.6121  0.4871 -1.7365
  116OSM   H11B12124   0.721   6.534  10.553  0.1274 -2.0323 -2.2001
  116OSM      P12125   0.628   6.295  10.792  0.2281 -0.1327 -0.0519
  116OSM    O1312126   0.754   6.278  10.864 -0.1220 -0.1016 -0.5080
  116OSM    O1412127   0.494   6.286  10.862 -0.2751  0.0992 -0.4085
  116OSM    O1112128   0.631   6.201  10.661  0.1511  0.2492  0.5446
  116OSM    O1212129   0.629   6.439  10.725 -0.5252 -0.4060 -0.6282
  116OSM    C1S12130   0.513   6.224  10.572  0.2348 -0.2592  0.5513
  116OSM    H1S12131   0.495   6.331  10.546  1.9822 -0.0457  0.0340
  116OSM    H1T12132   0.422   6.186  10.622  0.8512 -0.9270  1.1860
  116OSM     NF12133   0.420   6.168  10.349 -0.1181 -0.4026  0.2220
  116OSM    HNF12134   0.394   6.086  10.299  0.1844  0.2908 -1.1143
  116OSM    C2S12135   0.535   6.155  10.433 -0.0536  0.4874 -0.1296
  116OSM    H2S12136   0.612   6.215  10.380  1.6641 -1.7821 -0.3748
  116OSM    C3S12137   0.595   6.009  10.445 -0.1604 -1.1344 -0.3928
  116OSM    H3S12138   0.534   5.938  10.504  2.2821 -2.3219  0.7944
  116OSM     O312139   0.722   5.998  10.514 -0.4859  0.5545 -0.2985
  116OSM    HO312140   0.729   6.074  10.573  1.5364 -1.1442  1.8425
  116OSM    C4S12141   0.608   5.953  10.305  0.2843  0.4365  0.2545
  116OSM    H4S12142   0.695   6.000  10.256  0.0632  0.1307 -0.4414
  116OSM    C5S12143   0.532   5.863  10.240  0.1614  0.9125 -0.3555
  116OSM    H5S12144   0.447   5.812  10.286  0.8832 -1.2517 -1.2969
  116OSM    C6S12145   0.570   5.817  10.099  0.3251 -0.4171 -0.4851
  116OSM    H6S12146   0.482   5.812  10.032 -0.1396  1.6009 -0.0730
  116OSM    H6T12147   0.627   5.721  10.092  1.0397  0.0431 -1.1831
  116OSM    C7S12148   0.671   5.917  10.024  0.3752 -0.2057 -0.0711
  116OSM    H7S12149   0.753   5.910  10.099 -0.1140  0.7733  0.5654
  116OSM    H7T12150   0.631   6.020  10.022  0.1898 -0.2846 -1.6313
  116OSM    C8S12151   0.719   5.872   9.885  0.0765  0.1625  0.3251
  116OSM    H8S12152   0.760   5.768   9.888  1.2427  0.5176 -1.5867
  116OSM    H8T12153   0.803   5.941   9.865  0.1015  0.0840  0.1582
  116OSM    C9S12154   0.609   5.899   9.782 -0.0889 -0.3018 -1.0734
  116OSM    H9S12155   0.578   6.005   9.788 -0.3461 -0.4586  1.6949
  116OSM    H9T12156   0.527   5.826   9.801  1.7491 -2.0619  0.6451
  116OSM   C10S12157   0.660   5.887   9.634 -0.4781 -0.2538  0.3667
  116OSM   H10S12158   0.731   5.802   9.636  1.2874  1.1549  0.7416
  116OSM   H10T12159   0.718   5.976   9.599 -0.8403  0.3341  1.2016
  116OSM   C11S12160   0.548   5.878   9.532  0.7224  0.0841  0.3010
  116OSM   H11S12161   0.485   5.969   9.525 -1.5145 -1.4525 -1.1090
  116OSM   H11T12162   0.482   5.793   9.560  0.2228  0.7687  1.2576
  116OSM   C12S12163   0.600   5.855   9.390  0.2666 -0.3491 -0.8053
  116OSM   H12S12164   0.645   5.954   9.366 -0.7750  1.7421  4.4249
  116OSM   H12T12165   0.515   5.841   9.320 -1.3195 -0.6139  1.0700
  116OSM   C13S12166   0.703   5.746   9.369 -0.6732  0.3409 -0.4532
  116OSM   H13S12167   0.662   5.651   9.408  0.9553 -0.2460 -0.0948
  116OSM   H13T12168   0.793   5.766   9.431 -0.9092 -0.1173  0.0413
  116OSM   C14S12169   0.744   5.753   9.217 -0.6734  0.2885 -0.0641
  116OSM   H14S12170   0.833   5.689   9.202  0.3488  0.3799  4.2015
  116OSM   H14T12171   0.776   5.859   9.209 -2.3747  0.7759 -0.9645
  116OSM   C15S12172   0.641   5.719   9.108 -0.0518  0.4637 -0.1318
  116OSM   H15S12173   0.543   5.767   9.124  0.1929  0.8390  0.2461
  116OSM   H15T12174   0.628   5.610   9.125  0.0489  0.2394 -1.3862
  116OSM   C16S12175   0.687   5.746   8.964  0.3090  0.8219  0.1565
  116OSM   H16S12176   0.793   5.712   8.957  0.3244  0.2097  2.5672
  116OSM   H16T12177   0.683   5.853   8.937 -0.7179  0.9558  0.8015
  116OSM   C17S12178   0.616   5.647   8.864 -0.2520 -0.0604 -0.2279
  116OSM   H17S12179   0.512   5.684   8.850 -0.6216 -2.0890 -4.3950
  116OSM   H17T12180   0.614   5.553   8.922  1.7049  0.5741  0.9643
  116OSM   C18S12181   0.690   5.643   8.733 -0.4572  0.0739  0.0971
  116OSM   H18S12182   0.688   5.741   8.679  0.2568  0.4393  0.7101
  116OSM   H18T12183   0.656   5.577   8.651  0.2062  1.4545 -1.3497
  116OSM   H18U12184   0.798   5.628   8.756  0.4482  3.0094 -1.6159
  116OSM    C1F12185   0.374   6.287  10.310  0.8027 -0.0622  0.6278
  116OSM     OF12186   0.441   6.387  10.317 -0.4011  0.0110  0.2500
  116OSM    C2F12187   0.235   6.283  10.244 -0.8948 -0.5479  0.1268
  116OSM    H2F12188   0.199   6.388  10.240  0.6556  0.0007 -0.1300
  116OSM    H2G12189   0.172   6.221  10.311 -2.4168  0.7902 -0.0059
  116OSM    C3F12190   0.220   6.230  10.099 -0.4225 -0.4239 -0.2942
  116OSM    H3F12191   0.285   6.293  10.035 -1.8005 -0.0864 -1.4229
  116OSM    H3G12192   0.117   6.243  10.059  0.6374 -0.1330 -3.1663
  116OSM    C4F12193   0.249   6.090  10.070 -0.4048 -0.0499 -0.4020
  116OSM    H4F12194   0.183   6.020  10.125 -0.1277  0.5781  0.7778
  116OSM    H4G12195   0.353   6.068  10.102 -0.8416 -1.0142  0.4238
  116OSM    C5F12196   0.234   6.062   9.918  0.3384  0.4836 -0.9287
  116OSM    H5F12197   0.321   6.092   9.856  0.4589  0.2952 -0.8509
  116OSM    H5G12198   0.154   6.123   9.871  0.2577 -0.9633 -2.7762
  116OSM    C6F12199   0.201   5.914   9.882 -0.5562  0.7489  0.5272
  116OSM    H6F12200   0.156   5.869   9.973 -2.1218 -1.8312 -1.3713
  116OSM    H6G12201   0.295   5.857   9.864 -2.2091 -1.1711 -3.1523
  116OSM    C7F12202   0.117   5.888   9.759 -0.1643  0.1446 -0.3346
  116OSM    H7F12203   0.178   5.927   9.675  0.6089 -2.7032 -1.1978
  116OSM    H7G12204   0.021   5.944   9.766  1.2555  2.7147 -0.1910
  116OSM    C8F12205   0.098   5.738   9.731 -0.2606  0.3925 -0.1264
  116OSM    H8F12206   0.195   5.687   9.748 -0.5776 -1.2442 -2.7051
  116OSM    H8G12207   0.067   5.712   9.628  0.0238 -1.6747  0.2505
  116OSM    C9F12208   0.006   5.675   9.829 -0.2448 -0.1958  0.2864
  116OSM    H9F12209   0.014   5.724   9.927  2.1961  0.5341 -0.2008
  116OSM   C10F12210  -0.086   5.581   9.812  0.8375  0.1804 -0.4141
  116OSM   H10F12211  -0.142   5.560   9.904  2.2911 -0.3544  0.3840
  116OSM   C11F12212  -0.135   5.517   9.687  0.2365  0.1016  0.7900
  116OSM   H11F12213  -0.153   5.595   9.610  1.4638  1.3584  1.7400
  116OSM   H11G12214  -0.225   5.455   9.708  1.3556 -2.1234 -0.5833
  116OSM   C12F12215  -0.021   5.420   9.634  0.7634 -0.1652  0.2712
  116OSM   H12F12216   0.073   5.473   9.608 -0.2629  0.5971 -2.2052
  116OSM   H12G12217  -0.063   5.374   9.541  0.3878  0.2751  0.2197
  116OSM   C13F12218  -0.004   5.300   9.732  0.0834  0.4660 -0.1539
  116OSM   H13F12219  -0.108   5.262   9.742 -0.2503  1.7418  1.8475
  116OSM   H13G12220   0.023   5.336   9.834 -1.2127  1.4553 -0.1357
  116OSM   C14F12221   0.087   5.185   9.692  0.6888  0.1781 -0.4699
  116OSM   H14F12222   0.189   5.229   9.697  0.8980 -0.4047  0.8587
  116OSM   H14G12223   0.060   5.176   9.584 -1.4811 -1.0839  0.1118
  116OSM   C15F12224   0.069   5.047   9.762  0.3226 -0.8695 -0.1565
  116OSM   H15F12225   0.092   5.048   9.870  2.7212  1.2942 -0.5890
  116OSM   H15G12226   0.143   4.980   9.714  0.7628  0.0104 -0.7294
  116OSM   C16F12227  -0.078   5.003   9.730  0.2065  0.0643 -0.0800
  116OSM   H16F12228  -0.089   5.023   9.622  1.6287 -0.8782 -0.4293
  116OSM   H16G12229  -0.160   5.058   9.781 -0.8386 -2.0995  0.6764
  116OSM   C17F12230  -0.105   4.862   9.772 -0.9796 -0.6087 -0.4791
  116OSM   H17F12231  -0.017   4.796   9.754 -0.2219 -0.0249  0.9583
  116OSM   H17G12232  -0.190   4.829   9.709 -0.2610 -1.5752 -0.9851
  116OSM   C18F12233  -0.146   4.843   9.918 -0.7092 -0.5944 -0.3274
  116OSM   H18F12234  -0.060   4.850   9.987 -1.6160  0.0294  0.7577
  116OSM   H18G12235  -0.194   4.744   9.929  2.8549 -3.1440 -4.2306
  116OSM   H18H12236  -0.211   4.929   9.943  0.2745  0.1180 -0.1769
  117OSM      N12237   4.210   0.509  11.122  0.3296 -0.6717  0.2008
  117OSM    C1512238   4.141   0.592  11.226 -0.4994 -0.6256  0.5671
  117OSM   H15A12239   4.076   0.528  11.285  0.1332  0.8200  2.9621
  117OSM   H15B12240   4.085   0.671  11.179  0.9916  0.0868 -0.0662
  117OSM   H15C12241   4.209   0.637  11.297  0.2417 -0.9733  0.0876
  117OSM    C1412242   4.311   0.418  11.173 -0.4500 -0.4821  0.6429
  117OSM   H14A12243   4.362   0.469  11.254 -0.5035  0.4754  0.0914
  117OSM   H14B12244   4.385   0.398  11.097 -0.2253  0.2913  0.6421
  117OSM   H14C12245   4.281   0.321  11.209 -1.8304 -0.4961 -0.4391
  117OSM    C1312246   4.111   0.420  11.047  0.3775  0.1343 -0.1196
  117OSM   H13A12247   4.065   0.343  11.107 -1.9611  0.7232 -1.0575
  117OSM   H13B12248   4.154   0.383  10.955 -0.5006  0.3946 -0.6462
  117OSM   H13C12249   4.037   0.490  11.014  0.0836 -0.1877 -0.1517
  117OSM    C1212250   4.261   0.611  11.020 -0.1017  0.3169  0.3025
  117OSM   H12A12251   4.340   0.663  11.073  3.6238 -3.1451 -1.3085
  117OSM   H12B12252   4.181   0.682  11.005  0.3001  0.4634 -1.3130
  117OSM    C1112253   4.320   0.551  10.884 -0.5324 -0.4929 -0.3723
  117OSM   H11A12254   4.338   0.648  10.833 -1.1680 -0.4815 -0.5830
  117OSM   H11B12255   4.256   0.494  10.814 -1.1603 -0.3301  0.0618
  117OSM      P12256   4.574   0.548  10.927 -0.1294 -0.2480 -0.4071
  117OSM    O1312257   4.553   0.692  10.963  0.0987  0.6940 -0.4679
  117OSM    O1412258   4.662   0.462  11.005  0.6210  0.1194 -0.0099
  117OSM    O1112259   4.637   0.544  10.784 -0.0298  0.5261 -0.1900
  117OSM    O1212260   4.438   0.472  10.912  0.5827 -0.1444 -0.1621
  117OSM    C1S12261   4.663   0.427  10.710  0.4354 -0.3902 -0.2017
  117OSM    H1S12262   4.565   0.383  10.682 -0.8390  1.3732  1.2248
  117OSM    H1T12263   4.721   0.354  10.771  0.8806 -1.3874 -1.7745
  117OSM     NF12264   4.791   0.360  10.502 -0.6677  0.7392  0.0452
  117OSM    HNF12265   4.874   0.309  10.525 -0.7271  0.5440 -0.1643
  117OSM    C2S12266   4.761   0.462  10.598 -0.2802  0.9476  0.2157
  117OSM    H2S12267   4.726   0.543  10.531  0.4546  0.4775 -0.7651
  117OSM    C3S12268   4.895   0.511  10.650 -0.6250 -0.2671 -0.6978
  117OSM    H3S12269   4.941   0.425  10.703 -2.3759 -1.5698 -1.2231
  117OSM     O312270   4.889   0.621  10.745 -0.1289  0.1956 -0.5464
  117OSM    HO312271   4.794   0.620  10.759 -0.2414 -0.1980 -1.3216
  117OSM    C4S12272   4.984   0.557  10.536 -0.5439  0.3392 -0.3574
  117OSM    H4S12273   5.074   0.493  10.530 -1.1603 -0.4351 -2.6055
  117OSM    C5S12274   4.955   0.655  10.442  0.2298  0.6087  0.2888
  117OSM    H5S12275   4.862   0.711  10.459 -0.0543  0.4663 -0.6913
  117OSM    C6S12276   5.039   0.692  10.321  1.0790 -0.0703 -0.4325
  117OSM    H6S12277   4.975   0.690  10.230 -0.5136  1.1242  0.5989
  117OSM    H6T12278   5.125   0.625  10.299  0.9025 -0.5699  0.3673
  117OSM    C7S12279   5.075   0.841  10.334  0.5743 -0.1758 -0.7014
  117OSM    H7S12280   5.125   0.865  10.430  0.3863  1.5698 -1.0137
  117OSM    H7T12281   4.980   0.898  10.328  0.6137 -0.0512 -0.1522
  117OSM    C8S12282   5.168   0.896  10.224  0.3728 -0.2492 -0.2028
  117OSM    H8S12283   5.123   0.888  10.122  1.7492 -0.8964 -0.7763
  117OSM    H8T12284   5.257   0.833  10.243 -0.5973 -1.0073  2.2016
  117OSM    C9S12285   5.199   1.044  10.252 -0.2619  0.0814  0.4312
  117OSM    H9S12286   5.283   1.064  10.321 -0.3558  3.0818 -0.1663
  117OSM    H9T12287   5.111   1.095  10.298 -0.9290  0.1155 -0.8215
  117OSM   C10S12288   5.220   1.133  10.131  0.6749 -0.3339  0.4437
  117OSM   H10S12289   5.140   1.108  10.059  0.8073  1.8261 -0.5450
  117OSM   H10T12290   5.318   1.096  10.094  0.0992 -0.6234 -0.8454
  117OSM   C11S12291   5.224   1.285  10.168  0.7141 -0.0397  0.5037
  117OSM   H11S12292   5.279   1.350  10.097  5.4299 -0.8734  3.0044
  117OSM   H11T12293   5.274   1.279  10.267  0.0451 -4.1037  0.7885
  117OSM   C12S12294   5.078   1.346  10.193  0.1539 -0.7323  0.4518
  117OSM   H12S12295   5.084   1.453  10.221 -2.1271  0.5784 -3.3311
  117OSM   H12T12296   5.026   1.299  10.279  1.4120 -4.4221 -0.5892
  117OSM   C13S12297   4.986   1.335  10.069 -0.1514 -0.7043  0.0864
  117OSM   H13S12298   4.892   1.388  10.097  0.2881  1.7248 -2.5016
  117OSM   H13T12299   4.971   1.225  10.068  0.5506 -0.8051  0.0473
  117OSM   C14S12300   5.039   1.403   9.940  0.5554  0.1341 -0.2369
  117OSM   H14S12301   5.144   1.376   9.916  0.9561  2.9965 -2.0860
  117OSM   H14T12302   5.028   1.512   9.957 -0.9783  0.1348 -1.0371
  117OSM   C15S12303   4.971   1.359   9.812  0.1892  0.5467 -0.0291
  117OSM   H15S12304   5.016   1.408   9.723  0.5112  0.0094 -0.1703
  117OSM   H15T12305   4.866   1.393   9.821  0.6343  1.7560  0.7881
  117OSM   C16S12306   4.973   1.206   9.774 -0.0380 -0.2154 -0.7491
  117OSM   H16S12307   4.902   1.159   9.845  3.2594 -0.8192  2.3966
  117OSM   H16T12308   5.072   1.159   9.792 -0.9708 -0.7947  4.2862
  117OSM   C17S12309   4.916   1.186   9.636 -0.3183 -0.3080  0.0790
  117OSM   H17S12310   4.835   1.260   9.622 -0.3027 -0.5115 -1.3361
  117OSM   H17T12311   4.875   1.083   9.622 -1.8404  0.2183  0.5465
  117OSM   C18S12312   5.017   1.203   9.515 -0.0514  0.7145 -0.4690
  117OSM   H18S12313   4.966   1.163   9.425 -0.6041  0.5089 -0.0733
  117OSM   H18T12314   5.112   1.148   9.529  0.6234  1.2659 -2.5807
  117OSM   H18U12315   5.042   1.308   9.491  0.0129  0.2003 -2.8784
  117OSM    C1F12316   4.695   0.312  10.420  0.3385  0.6634 -0.0651
  117OSM     OF12317   4.586   0.367  10.397 -0.1205 -0.0742  0.6791
  117OSM    C2F12318   4.729   0.173  10.359 -0.3661 -0.8204 -0.4809
  117OSM    H2F12319   4.637   0.121  10.325  0.2731 -2.9730  0.9006
  117OSM    H2G12320   4.765   0.117  10.448  0.2195  0.6528  0.2454
  117OSM    C3F12321   4.833   0.162  10.255 -0.4205  0.1312  0.4258
  117OSM    H3F12322   4.867   0.057  10.248  0.1352  0.2320  1.4330
  117OSM    H3G12323   4.926   0.210  10.292 -0.0147 -0.8442  0.6796
  117OSM    C4F12324   4.792   0.220  10.122  0.1589  0.2952  0.6537
  117OSM    H4F12325   4.805   0.330  10.111  0.4414  0.3076  1.0795
  117OSM    H4G12326   4.684   0.206  10.100  0.3956 -0.5847  0.0071
  117OSM    C5F12327   4.859   0.154  10.004 -0.3677  0.4266 -0.4706
  117OSM    H5F12328   4.860   0.043  10.018 -1.0090  0.6165  1.2873
  117OSM    H5G12329   4.961   0.198  10.005 -0.9161  1.7376 -0.5322
  117OSM    C6F12330   4.810   0.206   9.865  0.5284  0.8734 -0.4526
  117OSM    H6F12331   4.825   0.316   9.857  0.9114  0.8831  0.3705
  117OSM    H6G12332   4.700   0.186   9.860  0.7129 -0.2412 -0.2101
  117OSM    C7F12333   4.875   0.131   9.758 -0.1970  0.5315 -0.2433
  117OSM    H7F12334   4.867   0.021   9.772 -0.6710  0.6321  0.3235
  117OSM    H7G12335   4.984   0.151   9.750 -0.4909  1.6663 -2.4949
  117OSM    C8F12336   4.820   0.175   9.615 -0.9661  0.4431 -0.2590
  117OSM    H8F12337   4.892   0.125   9.547 -1.9793 -1.2366 -0.1549
  117OSM    H8G12338   4.836   0.283   9.598 -2.7915  0.6463 -0.8779
  117OSM    C9F12339   4.683   0.152   9.564  0.9137  0.1976  0.0695
  117OSM    H9F12340   4.614   0.153   9.650  0.1837  0.7299 -0.5185
  117OSM   C10F12341   4.640   0.129   9.439 -0.4249  0.6101 -0.1930
  117OSM   H10F12342   4.531   0.122   9.428 -0.2957 -0.7222 -0.9481
  117OSM   C11F12343   4.732   0.115   9.324  0.0089 -0.2457  0.6460
  117OSM   H11F12344   4.798   0.028   9.343 -1.7986 -1.4939  1.4838
  117OSM   H11G12345   4.780   0.213   9.304 -3.2659  1.3877 -0.0129
  117OSM   C12F12346   4.667   0.081   9.190 -0.2950  0.5205 -0.2330
  117OSM   H12F12347   4.594   0.159   9.158  0.3509  1.1519 -0.2116
  117OSM   H12G12348   4.616  -0.016   9.202  1.7490 -1.0951 -3.3355
  117OSM   C13F12349   4.772   0.067   9.080  0.1114  0.4380  0.5519
  117OSM   H13F12350   4.825  -0.030   9.089 -0.7173 -0.3513 -2.0133
  117OSM   H13G12351   4.844   0.151   9.076  3.4452 -2.1998 -3.0300
  117OSM   C14F12352   4.714   0.080   8.932  0.2512 -0.0885  0.3154
  117OSM   H14F12353   4.687   0.186   8.913 -0.3567 -0.3414 -0.2368
  117OSM   H14G12354   4.619   0.023   8.932 -0.7618  1.5251 -0.7166
  117OSM   C15F12355   4.808   0.041   8.818  0.2979 -0.1948 -0.1027
  117OSM   H15F12356   4.843  -0.052   8.867 -1.7859 -0.5331  0.8630
  117OSM   H15G12357   4.900   0.099   8.797  1.6035 -1.3641  2.0263
  117OSM   C16F12358   4.728   0.023   8.685 -0.4952  0.2898  0.6012
  117OSM   H16F12359   4.702   0.118   8.634  1.7403  0.3676 -0.5003
  117OSM   H16G12360   4.636  -0.035   8.703 -0.1786 -0.5958 -0.5204
  117OSM   C17F12361   4.803  -0.060   8.583  0.1031  0.0429 -0.0385
  117OSM   H17F12362   4.737  -0.104   8.504 -1.3161  1.0367  0.5452
  117OSM   H17G12363   4.845  -0.143   8.643  0.4073 -1.1241 -1.7943
  117OSM   C18F12364   4.934   0.007   8.534  0.0883  0.0943  0.6925
  117OSM   H18F12365   4.923   0.094   8.465  1.6727  0.0296  0.3010
  117OSM   H18G12366   4.992  -0.069   8.477  0.4445  0.5948  0.3766
  117OSM   H18H12367   5.002   0.031   8.618 -0.0825  0.2151  0.7966
  118OSM      N12368   5.584   1.864  10.914 -0.3709  0.3139  0.2718
  118OSM    C1512369   5.488   1.892  11.025  0.4724 -0.0490 -0.0440
  118OSM   H15A12370   5.501   1.821  11.105  0.2648 -0.7965 -0.6683
  118OSM   H15B12371   5.387   1.909  10.993  0.2861 -1.6158 -0.3288
  118OSM   H15C12372   5.523   1.985  11.068 -0.7735  1.3497 -1.9143
  118OSM    C1412373   5.537   1.736  10.847  0.3184 -0.7484 -0.5956
  118OSM   H14A12374   5.593   1.733  10.755 -1.5740  1.5856 -1.9501
  118OSM   H14B12375   5.432   1.751  10.826  0.6752  2.2983 -0.7644
  118OSM   H14C12376   5.554   1.654  10.915 -0.7305 -0.6432 -0.1916
  118OSM    C1312377   5.573   1.978  10.823  0.2319 -0.5122  0.4329
  118OSM   H13A12378   5.470   1.990  10.793  0.5665  0.2148 -0.4794
  118OSM   H13B12379   5.630   1.964  10.732 -0.1275 -1.0593  0.2868
  118OSM   H13C12380   5.604   2.070  10.870 -0.6994  0.3877 -0.6516
  118OSM    C1212381   5.725   1.851  10.973  0.0594 -0.2944 -1.2379
  118OSM   H12A12382   5.797   1.826  10.896  1.0602 -2.2133  0.2485
  118OSM   H12B12383   5.723   1.767  11.041  0.0413 -0.3350 -1.2888
  118OSM    C1112384   5.775   1.986  11.054  1.1843  0.6061 -0.0065
  118OSM   H11A12385   5.708   1.998  11.142 -0.3035 -2.6449 -0.5785
  118OSM   H11B12386   5.757   2.078  10.994  0.9170  1.4359  1.3005
  118OSM      P12387   6.011   2.052  11.028 -0.2970 -0.0538 -0.3351
  118OSM    O1312388   6.005   2.198  11.054  0.5485 -0.2306  0.0289
  118OSM    O1412389   6.146   1.992  11.053  0.2807  0.1015 -0.1624
  118OSM    O1112390   5.969   2.034  10.878  0.1869  0.2115  0.1408
  118OSM    O1212391   5.906   1.968  11.100  0.3328  0.1451 -0.2927
  118OSM    C1S12392   6.056   2.098  10.780  0.3139  0.3390 -0.0706
  118OSM    H1S12393   6.156   2.050  10.787  1.4753  2.5630 -0.3256
  118OSM    H1T12394   6.056   2.206  10.804  0.8859 -0.0670  1.9125
  118OSM     NF12395   6.102   2.095  10.535 -0.8519 -0.6844 -0.1018
  118OSM    HNF12396   6.099   2.178  10.480 -1.2675 -0.9537 -0.4951
  118OSM    C2S12397   5.997   2.082  10.635 -1.0153  0.5020  0.8176
  118OSM    H2S12398   5.958   1.980  10.617 -1.1470  0.9258 -1.6523
  118OSM    C3S12399   5.887   2.183  10.620 -0.4045 -0.5321  0.3595
  118OSM    H3S12400   5.938   2.282  10.615 -0.6946 -0.3912  0.2182
  118OSM     O312401   5.811   2.187  10.743  0.6110  0.0296  0.0843
  118OSM    HO312402   5.859   2.121  10.793  2.0974 -0.3790 -1.7757
  118OSM    C4S12403   5.808   2.172  10.495  1.6011  0.3426  0.0431
  118OSM    H4S12404   5.854   2.221  10.408  1.6145  1.3669  0.6171
  118OSM    C5S12405   5.693   2.103  10.467 -0.6721  0.0259 -0.0440
  118OSM    H5S12406   5.659   2.034  10.545  1.1351  0.4419  1.1727
  118OSM    C6S12407   5.616   2.106  10.336 -1.0969  0.2173  0.0124
  118OSM    H6S12408   5.524   2.167  10.342 -0.4148  1.2018  1.0124
  118OSM    H6T12409   5.580   2.002  10.323 -1.3491  0.1158  1.4038
  118OSM    C7S12410   5.690   2.149  10.207 -0.5773 -0.5151  0.0646
  118OSM    H7S12411   5.765   2.072  10.180  1.3429  2.2063 -2.9863
  118OSM    H7T12412   5.748   2.242  10.221  1.5174 -1.9733  1.8052
  118OSM    C8S12413   5.586   2.166  10.092 -0.1164  0.6756 -0.3647
  118OSM    H8S12414   5.520   2.254  10.104 -0.5306  0.5414 -1.4790
  118OSM    H8T12415   5.517   2.079  10.095  0.2871  0.3302 -0.8852
  118OSM    C9S12416   5.651   2.190   9.952  0.6457  0.5224  0.2930
  118OSM    H9S12417   5.722   2.109   9.921  3.3450  2.8420 -0.0194
  118OSM    H9T12418   5.719   2.278   9.952 -0.4415  1.3960 -0.8888
  118OSM   C10S12419   5.539   2.205   9.855  0.2147 -0.6581  0.3894
  118OSM   H10S12420   5.504   2.309   9.873  3.3607  0.5373  0.2183
  118OSM   H10T12421   5.464   2.128   9.881  1.2945 -1.8579  0.0142
  118OSM   C11S12422   5.560   2.182   9.704 -0.3289 -0.2375  0.4025
  118OSM   H11S12423   5.567   2.074   9.680 -0.7635  0.0992 -1.3699
  118OSM   H11T12424   5.655   2.224   9.662  0.2096 -1.8622 -0.0925
  118OSM   C12S12425   5.447   2.242   9.613 -0.3328  0.4731  0.2021
  118OSM   H12S12426   5.442   2.353   9.626 -1.0278  0.3383  1.2033
  118OSM   H12T12427   5.351   2.197   9.647 -1.2056 -0.0568 -2.6506
  118OSM   C13S12428   5.465   2.209   9.465 -0.1643 -0.0236  0.3336
  118OSM   H13S12429   5.463   2.098   9.453  0.6342 -0.0724  0.6094
  118OSM   H13T12430   5.561   2.245   9.422  0.6674 -1.0003  1.3232
  118OSM   C14S12431   5.349   2.279   9.387 -0.0581 -0.2350 -0.0254
  118OSM   H14S12432   5.377   2.385   9.371 -0.3780 -0.2009 -0.3828
  118OSM   H14T12433   5.257   2.272   9.448  1.0669 -0.1499  1.7369
  118OSM   C15S12434   5.334   2.220   9.242  0.5012 -0.0394 -0.2407
  118OSM   H15S12435   5.252   2.279   9.196 -0.0751 -0.0776  0.7140
  118OSM   H15T12436   5.302   2.114   9.247  1.5804 -0.4545 -1.4931
  118OSM   C16S12437   5.457   2.238   9.158 -0.5595 -0.6553 -0.3068
  118OSM   H16S12438   5.531   2.167   9.201 -2.2566 -2.1146  0.3449
  118OSM   H16T12439   5.494   2.343   9.157 -1.2053 -0.3559  2.2588
  118OSM   C17S12440   5.441   2.206   9.006 -0.9076  0.3986  0.8640
  118OSM   H17S12441   5.376   2.290   8.973 -0.4652  1.2410  2.0505
  118OSM   H17T12442   5.391   2.107   8.999  0.4180 -0.2075 -0.8001
  118OSM   C18S12443   5.565   2.204   8.914 -0.0505 -0.2410 -0.4978
  118OSM   H18S12444   5.631   2.118   8.938 -0.6602 -0.7128 -0.4605
  118OSM   H18T12445   5.635   2.288   8.929 -0.3919 -0.1286  0.5651
  118OSM   H18U12446   5.535   2.193   8.808  1.2468 -2.0551 -0.7306
  118OSM    C1F12447   6.208   2.008  10.520 -0.4266  0.1182 -0.0768
  118OSM     OF12448   6.214   1.905  10.586  0.6115 -0.2029  0.2744
  118OSM    C2F12449   6.325   2.053  10.428  0.6437 -0.1210 -1.0318
  118OSM    H2F12450   6.418   2.020  10.478  0.0892  1.4229  1.1807
  118OSM    H2G12451   6.325   2.164  10.419  0.8552 -0.0123  0.1323
  118OSM    C3F12452   6.321   2.007  10.286 -0.6339 -0.2774 -0.3967
  118OSM    H3F12453   6.350   1.900  10.276  0.1662  0.0220 -1.4658
  118OSM    H3G12454   6.406   2.059  10.238 -0.7291  0.0002 -0.2651
  118OSM    C4F12455   6.188   2.025  10.216  0.5443  0.6777 -0.0913
  118OSM    H4F12456   6.156   2.130  10.229 -0.5835  0.4770 -1.1074
  118OSM    H4G12457   6.105   1.966  10.260  0.5809  1.0431  0.4770
  118OSM    C5F12458   6.210   2.001  10.068 -0.1339  0.1407  0.3482
  118OSM    H5F12459   6.238   1.898  10.038 -0.8385 -1.3086  4.1342
  118OSM    H5G12460   6.298   2.067  10.051  1.3776 -1.7003  0.6664
  118OSM    C6F12461   6.087   2.048   9.984  0.6810  0.4564  0.5784
  118OSM    H6F12462   6.057   2.151  10.010  1.5412  0.5643  1.1655
  118OSM    H6G12463   5.993   1.988   9.983  1.2580 -0.4930 -0.8775
  118OSM    C7F12464   6.131   2.043   9.835 -0.1903 -0.1428 -0.2457
  118OSM    H7F12465   6.050   2.079   9.769 -0.6390 -1.5579 -0.4932
  118OSM    H7G12466   6.144   1.937   9.803 -0.2599 -0.0794 -0.4825
  118OSM    C8F12467   6.262   2.112   9.795  0.1115 -0.2469  0.8774
  118OSM    H8F12468   6.268   2.092   9.686 -0.7830 -3.1203  1.2589
  118OSM    H8G12469   6.354   2.060   9.831  0.5697 -0.7534 -0.9232
  118OSM    C9F12470   6.250   2.256   9.833 -0.2881  0.5249 -0.1881
  118OSM    H9F12471   6.252   2.272   9.942 -0.5205 -0.6572 -0.0063
  118OSM   C10F12472   6.249   2.368   9.758 -0.4008  0.3426 -0.3693
  118OSM   H10F12473   6.240   2.469   9.800 -0.9218  0.9995 -1.9744
  118OSM   C11F12474   6.260   2.368   9.609 -0.3755 -0.8167  0.0227
  118OSM   H11F12475   6.284   2.268   9.566  0.5940 -0.0621 -1.2737
  118OSM   H11G12476   6.347   2.432   9.584 -0.8172 -0.6557 -1.1745
  118OSM   C12F12477   6.130   2.416   9.544  0.1487 -0.2386  0.3950
  118OSM   H12F12478   6.113   2.524   9.566 -0.1283 -0.5630  1.8898
  118OSM   H12G12479   6.052   2.356   9.595  0.7112  0.2615  1.9124
  118OSM   C13F12480   6.150   2.400   9.394 -0.2166  0.4286  0.0183
  118OSM   H13F12481   6.241   2.457   9.365  0.4234  0.0120  1.1519
  118OSM   H13G12482   6.070   2.445   9.331  0.2525 -0.0014 -0.9114
  118OSM   C14F12483   6.171   2.263   9.333  0.5909 -0.1108  0.6000
  118OSM   H14F12484   6.279   2.236   9.339  0.9161  0.3950 -1.9432
  118OSM   H14G12485   6.146   2.273   9.226  2.6444 -0.1925  0.0665
  118OSM   C15F12486   6.096   2.141   9.385  0.8611 -0.0394 -0.3182
  118OSM   H15F12487   6.129   2.122   9.489  0.8684 -1.5183 -0.5674
  118OSM   H15G12488   6.115   2.047   9.328 -2.2824 -0.7413 -0.3922
  118OSM   C16F12489   5.941   2.169   9.374 -0.2330 -0.1955 -0.4760
  118OSM   H16F12490   5.926   2.263   9.431  2.0459 -0.6973  1.0881
  118OSM   H16G12491   5.880   2.092   9.426 -0.3517  0.8905  1.0627
  118OSM   C17F12492   5.876   2.184   9.232 -0.6082  0.6047 -0.2391
  118OSM   H17F12493   5.908   2.279   9.184  1.7306 -0.7040 -1.4577
  118OSM   H17G12494   5.768   2.190   9.257 -0.3592 -0.3999  1.2033
  118OSM   C18F12495   5.922   2.071   9.136  0.1357  0.1557  0.4072
  118OSM   H18F12496   5.888   2.105   9.036  0.2988  3.7943  1.4396
  118OSM   H18G12497   5.875   1.981   9.180  1.0420 -0.1592  0.7610
  118OSM   H18H12498   6.032   2.060   9.125 -0.1656 -2.0512 -1.1793
  119OSM      N12499   6.098   1.661  11.201 -0.0528 -0.3405  0.0346
  119OSM    C1512500   6.169   1.779  11.253  0.3764 -0.0920  0.1845
  119OSM   H15A12501   6.151   1.866  11.192 -0.2306 -0.0488  0.4236
  119OSM   H15B12502   6.276   1.769  11.253  0.2294 -2.0706  0.5291
  119OSM   H15C12503   6.128   1.801  11.350 -0.6488  0.8065 -0.4305
  119OSM    C1412504   6.118   1.550  11.307 -0.2921 -0.3833  0.6371
  119OSM   H14A12505   6.063   1.573  11.397  0.3354  2.4497  0.3939
  119OSM   H14B12506   6.223   1.548  11.330  0.2208  1.6332 -1.2050
  119OSM   H14C12507   6.089   1.453  11.269  0.6232  0.3618 -2.2080
  119OSM    C1312508   5.951   1.688  11.192  0.5325  0.4517 -0.4871
  119OSM   H13A12509   5.917   1.764  11.123 -1.9364 -1.6454 -1.7785
  119OSM   H13B12510   5.923   1.718  11.292  1.8274 -0.4520  0.1702
  119OSM   H13C12511   5.901   1.594  11.173  0.0665  0.3939  0.9303
  119OSM    C1212512   6.154   1.624  11.069 -0.4387  0.6418 -0.1221
  119OSM   H12A12513   6.257   1.592  11.075 -0.8583 -1.4854 -2.6901
  119OSM   H12B12514   6.162   1.714  11.010 -1.0145  0.8688  0.1291
  119OSM    C1112515   6.081   1.512  10.989  0.2286 -0.0943  0.1901
  119OSM   H11A12516   6.120   1.529  10.886  2.4689 -0.1168  0.9926
  119OSM   H11B12517   5.973   1.537  10.997  0.6343  1.8061  0.1627
  119OSM      P12518   6.265   1.326  11.008  0.0219 -0.2343  0.0365
  119OSM    O1312519   6.358   1.440  10.982 -0.3387  0.1844 -0.3480
  119OSM    O1412520   6.293   1.253  11.136 -0.5103 -0.1673  0.1235
  119OSM    O1112521   6.255   1.240  10.878 -0.4247  0.5791  0.5743
  119OSM    O1212522   6.113   1.380  11.039 -0.7004 -0.5132  0.5576
  119OSM    C1S12523   6.130   1.220  10.799 -0.5444  0.1967  0.3301
  119OSM    H1S12524   6.094   1.318  10.761 -1.0624  0.1557  0.7171
  119OSM    H1T12525   6.049   1.176  10.861  0.1441 -0.6807  0.6317
  119OSM     NF12526   6.045   1.109  10.594 -0.3581  0.2372 -0.4003
  119OSM    HNF12527   5.977   1.039  10.614 -0.7025  1.1112  1.7651
  119OSM    C2S12528   6.152   1.112  10.688  0.0701  0.5783  0.0560
  119OSM    H2S12529   6.250   1.143  10.644  1.9493 -2.1106  2.0220
  119OSM    C3S12530   6.174   0.965  10.753 -0.0572 -0.3627  0.1714
  119OSM    H3S12531   6.087   0.940  10.817 -0.2074 -1.8255 -0.5732
  119OSM     O312532   6.289   0.979  10.837  0.3607  0.1045  1.0681
  119OSM    HO312533   6.288   1.075  10.842  0.1093  0.1195  0.7545
  119OSM    C4S12534   6.203   0.855  10.651  0.5343 -0.1708 -0.3294
  119OSM    H4S12535   6.311   0.854  10.628  0.8894  1.1301  1.1032
  119OSM    C5S12536   6.124   0.752  10.628 -0.1135  0.2616  0.2610
  119OSM    H5S12537   6.036   0.743  10.694 -1.2513  1.0401 -1.1006
  119OSM    C6S12538   6.139   0.629  10.539 -0.7619 -0.0741 -0.0106
  119OSM    H6S12539   6.049   0.614  10.476  0.2816  0.3063 -1.6800
  119OSM    H6T12540   6.157   0.542  10.605  0.9196  1.0890  1.1482
  119OSM    C7S12541   6.271   0.629  10.450 -0.6164 -0.3193  0.1984
  119OSM    H7S12542   6.365   0.659  10.501 -1.6273  0.4437  1.6849
  119OSM    H7T12543   6.257   0.705  10.370  0.0529  0.2195  0.5802
  119OSM    C8S12544   6.295   0.497  10.364  0.3369  0.1862 -1.1436
  119OSM    H8S12545   6.194   0.471  10.323 -1.3494  1.5728  1.8446
  119OSM    H8T12546   6.320   0.417  10.437  0.2503  1.8746  0.8190
  119OSM    C9S12547   6.405   0.501  10.267  0.2137 -1.1815 -0.0004
  119OSM    H9S12548   6.434   0.394  10.257 -2.6851 -2.0906  0.5298
  119OSM    H9T12549   6.492   0.558  10.307 -0.5932 -0.5569  0.8835
  119OSM   C10S12550   6.378   0.551  10.125  0.4289  0.6169 -0.5579
  119OSM   H10S12551   6.324   0.648  10.129 -0.8006  0.0462 -2.1522
  119OSM   H10T12552   6.305   0.483  10.076  1.3307 -1.4683  0.8172
  119OSM   C11S12553   6.496   0.552  10.033 -0.2339  0.2735  0.0218
  119OSM   H11S12554   6.549   0.455  10.027 -0.0257  0.4433 -1.0802
  119OSM   H11T12555   6.590   0.600  10.068 -0.7125  0.5925  0.8977
  119OSM   C12S12556   6.457   0.613   9.899  0.5440  0.6240 -0.1279
  119OSM   H12S12557   6.369   0.550   9.876  0.0162  0.6603  1.7079
  119OSM   H12T12558   6.525   0.601   9.811  0.7664 -2.9595  0.4225
  119OSM   C13S12559   6.422   0.758   9.909 -0.0399 -0.5387 -0.2840
  119OSM   H13S12560   6.503   0.827   9.942 -0.1759  0.7660 -2.4693
  119OSM   H13T12561   6.346   0.781   9.986  0.3045  0.8519 -0.3169
  119OSM   C14S12562   6.386   0.815   9.775 -0.8012  0.4315  0.8056
  119OSM   H14S12563   6.303   0.761   9.724  0.5902  0.3161 -1.5039
  119OSM   H14T12564   6.472   0.790   9.709 -1.0158  0.4696  0.5103
  119OSM   C15S12565   6.357   0.966   9.771 -0.3903 -0.3874 -0.5204
  119OSM   H15S12566   6.437   1.015   9.830 -0.1400 -0.7542 -0.5490
  119OSM   H15T12567   6.253   0.979   9.806 -0.5790  1.0094 -1.5145
  119OSM   C16S12568   6.388   1.034   9.632 -0.1198  0.2305  0.0301
  119OSM   H16S12569   6.344   0.977   9.548  0.9372  2.1942 -1.9587
  119OSM   H16T12570   6.497   1.024   9.609 -0.0635 -2.1826  1.0569
  119OSM   C17S12571   6.345   1.180   9.627 -0.0867  0.3251 -1.1822
  119OSM   H17S12572   6.360   1.207   9.520  1.9711  1.8419 -0.5917
  119OSM   H17T12573   6.415   1.245   9.684  1.1987 -1.0603 -1.1202
  119OSM   C18S12574   6.194   1.202   9.656 -0.4457  0.5495 -0.8488
  119OSM   H18S12575   6.171   1.298   9.606 -1.9226  1.4409  1.3653
  119OSM   H18T12576   6.180   1.211   9.766 -0.7950  1.1809 -0.9435
  119OSM   H18U12577   6.127   1.130   9.604 -0.2905  0.5585 -1.0630
  119OSM    C1F12578   5.990   1.208  10.527 -0.5920 -0.0365  0.9515
  119OSM     OF12579   6.052   1.305  10.493 -0.0961 -0.5470 -0.5705
  119OSM    C2F12580   5.842   1.208  10.513  0.1657  0.6172  0.6065
  119OSM    H2F12581   5.792   1.234  10.609 -2.1936  3.1711 -1.1652
  119OSM    H2G12582   5.816   1.102  10.492 -0.1230  0.6722  0.6755
  119OSM    C3F12583   5.789   1.303  10.406  0.1993 -0.4572  0.0297
  119OSM    H3F12584   5.832   1.272  10.308 -1.3165  1.7137 -1.4077
  119OSM    H3G12585   5.832   1.404  10.424  2.2063 -0.7278 -2.6155
  119OSM    C4F12586   5.635   1.309  10.399 -0.1336 -1.0236  0.7727
  119OSM    H4F12587   5.579   1.345  10.488 -2.2815  0.5048 -1.0750
  119OSM    H4G12588   5.602   1.203  10.391  1.8645 -1.5583 -1.3170
  119OSM    C5F12589   5.591   1.391  10.277 -0.1913 -0.3633 -0.8240
  119OSM    H5F12590   5.652   1.484  10.283  0.2413 -0.6999  0.4115
  119OSM    H5G12591   5.486   1.427  10.281  0.0314  0.3465 -1.1898
  119OSM    C6F12592   5.608   1.323  10.140  0.5411 -0.2676  0.1168
  119OSM    H6F12593   5.535   1.239  10.133  0.2846 -0.0211 -0.1888
  119OSM    H6G12594   5.711   1.282  10.134  0.0009 -1.9920  1.5185
  119OSM    C7F12595   5.564   1.412  10.026  0.4613  0.6744  0.0980
  119OSM    H7F12596   5.607   1.514  10.031  0.2455  0.8500 -1.2095
  119OSM    H7G12597   5.456   1.432  10.040  0.4457 -0.5166  2.1537
  119OSM    C8F12598   5.578   1.353   9.886  0.2887  0.4544 -0.0249
  119OSM    H8F12599   5.677   1.303   9.878 -0.8373 -1.6975 -1.3084
  119OSM    H8G12600   5.585   1.433   9.809 -2.0083 -1.7548 -2.6961
  119OSM    C9F12601   5.457   1.256   9.866  0.1605  0.1295 -0.3221
  119OSM    H9F12602   5.454   1.165   9.928  0.5775  0.0685 -0.3893
  119OSM   C10F12603   5.363   1.262   9.771  0.6844 -0.2206  0.1430
  119OSM   H10F12604   5.307   1.169   9.756  2.3063 -0.9727 -1.7474
  119OSM   C11F12605   5.347   1.369   9.665  0.4809  0.3934  0.9587
  119OSM   H11F12606   5.379   1.472   9.691  1.2141  0.7388 -1.0834
  119OSM   H11G12607   5.238   1.387   9.651  0.0336 -3.4273 -2.4285
  119OSM   C12F12608   5.396   1.333   9.524 -0.9024 -0.1497  0.4421
  119OSM   H12F12609   5.349   1.234   9.510 -0.3073 -0.4306  0.4165
  119OSM   H12G12610   5.505   1.311   9.528 -1.1714 -1.3956  2.1655
  119OSM   C13F12611   5.356   1.439   9.421 -0.2819 -0.4246  0.1227
  119OSM   H13F12612   5.385   1.545   9.435 -0.0672  0.2967 -4.2445
  119OSM   H13G12613   5.246   1.437   9.406 -0.4056  1.8004  0.3597
  119OSM   C14F12614   5.396   1.420   9.271  0.3376 -0.5297 -0.4937
  119OSM   H14F12615   5.494   1.464   9.242  1.2046 -1.7040  0.5813
  119OSM   H14G12616   5.327   1.479   9.207  0.5456 -0.2833 -0.4984
  119OSM   C15F12617   5.390   1.269   9.230  0.1354 -0.5085  0.6422
  119OSM   H15F12618   5.286   1.239   9.253  0.2483  0.0533  1.9915
  119OSM   H15G12619   5.455   1.206   9.295 -0.6815 -1.7412  0.2876
  119OSM   C16F12620   5.438   1.257   9.082 -0.2121 -0.3798 -0.4658
  119OSM   H16F12621   5.546   1.284   9.076 -0.7528  2.1817  0.3050
  119OSM   H16G12622   5.382   1.328   9.018 -0.9331 -0.9206 -0.4426
  119OSM   C17F12623   5.402   1.120   9.019 -0.4814 -0.3073  0.2577
  119OSM   H17F12624   5.291   1.123   9.016 -0.4457  0.2013 -1.4873
  119OSM   H17G12625   5.455   1.036   9.069  2.9040  0.2410 -2.0209
  119OSM   C18F12626   5.442   1.099   8.873 -0.5579 -0.2599  0.4715
  119OSM   H18F12627   5.405   1.171   8.797 -0.7041  0.2016  0.9707
  119OSM   H18G12628   5.399   1.005   8.833 -0.7060  1.1831 -3.1621
  119OSM   H18H12629   5.550   1.074   8.871 -0.1155  1.5716 -1.3876
  120OSM      N12630   6.035   4.779  10.824 -0.0056  0.5660 -0.3187
  120OSM    C1512631   6.024   4.906  10.742  0.2224 -0.5007  0.4076
  120OSM   H15A12632   5.946   4.910  10.668  1.5245 -0.6972 -1.0294
  120OSM   H15B12633   6.122   4.932  10.704  0.0652 -1.7702 -0.9470
  120OSM   H15C12634   6.003   4.991  10.804 -0.3714 -0.7298  0.5274
  120OSM    C1412635   6.118   4.825  10.939  0.1990 -0.2931  0.0694
  120OSM   H14A12636   6.219   4.854  10.913  0.5282  1.2545  2.7371
  120OSM   H14B12637   6.128   4.741  11.006 -1.4691 -1.0537 -0.5808
  120OSM   H14C12638   6.074   4.912  10.986  3.0506 -0.0128  2.5806
  120OSM    C1312639   5.902   4.739  10.867  0.0457  0.4432 -0.8672
  120OSM   H13A12640   5.854   4.821  10.918 -2.9757 -1.8632  0.2816
  120OSM   H13B12641   5.913   4.663  10.944 -1.5165  1.6380  0.6111
  120OSM   H13C12642   5.841   4.702  10.786 -1.6198  0.9233  0.1346
  120OSM    C1212643   6.092   4.671  10.734 -1.2350 -0.3552  0.2957
  120OSM   H12A12644   6.191   4.698  10.704 -0.1528 -3.3093  0.8211
  120OSM   H12B12645   6.030   4.657  10.647  1.5587  0.2028 -1.9234
  120OSM    C1112646   6.133   4.535  10.804 -0.2464  0.4298  0.2657
  120OSM   H11A12647   6.041   4.495  10.851  0.0694 -1.0771 -0.3703
  120OSM   H11B12648   6.209   4.546  10.884 -1.4936 -0.6319  1.6550
  120OSM      P12649   6.101   4.362  10.605 -0.0713 -0.2621 -0.0665
  120OSM    O1312650   6.189   4.326  10.496 -0.0861  0.1005  0.0435
  120OSM    O1412651   6.044   4.253  10.684 -0.5314 -0.1512 -0.3562
  120OSM    O1112652   5.977   4.443  10.553  0.2178 -0.7259 -0.0508
  120OSM    O1212653   6.189   4.451  10.708  0.4843  0.1554 -0.5352
  120OSM    C1S12654   5.978   4.457  10.409  0.5303 -0.5345 -0.6630
  120OSM    H1S12655   5.962   4.360  10.357 -0.4102 -0.2523 -0.9052
  120OSM    H1T12656   6.074   4.505  10.379 -1.0419  1.5433 -2.6977
  120OSM     NF12657   5.897   4.561  10.209  0.2102 -0.2559 -0.1897
  120OSM    HNF12658   5.952   4.641  10.188 -0.9351  0.3848 -0.8544
  120OSM    C2S12659   5.869   4.544  10.350 -0.6480 -0.3032  0.4534
  120OSM    H2S12660   5.780   4.480  10.362  0.2557 -1.5892  0.4652
  120OSM    C3S12661   5.852   4.673  10.431 -0.8734 -0.3294 -0.4599
  120OSM    H3S12662   5.947   4.731  10.431  0.0943 -1.8334  0.1475
  120OSM     O312663   5.820   4.633  10.568 -0.1309 -1.0869  0.6804
  120OSM    HO312664   5.875   4.555  10.581 -1.3948 -2.0616  0.2588
  120OSM    C4S12665   5.738   4.753  10.366 -0.8911 -0.6170 -0.2650
  120OSM    H4S12666   5.638   4.710  10.383 -1.2850 -0.6857 -2.4621
  120OSM    C5S12667   5.751   4.872  10.298  0.7453 -0.1741 -1.0287
  120OSM    H5S12668   5.849   4.921  10.303 -0.7518  3.0644 -0.4367
  120OSM    C6S12669   5.635   4.944  10.241  0.8281 -0.2439 -0.7250
  120OSM    H6S12670   5.632   5.047  10.284 -1.1062 -0.1619 -0.9498
  120OSM    H6T12671   5.539   4.892  10.260  1.4114 -1.2322 -0.3982
  120OSM    C7S12672   5.634   4.962  10.089  0.1283  0.2252  0.4118
  120OSM    H7S12673   5.532   4.992  10.055  0.2117  1.1881  0.9615
  120OSM    H7T12674   5.645   4.866  10.035 -1.6305 -0.5449  1.3496
  120OSM    C8S12675   5.740   5.057  10.036 -0.2461  0.0901  0.0728
  120OSM    H8S12676   5.840   5.015  10.063 -0.7527 -1.9840 -1.0602
  120OSM    H8T12677   5.733   5.153  10.091 -1.0370  1.8164 -2.8196
  120OSM    C9S12678   5.722   5.070   9.883 -0.2133  0.0270 -0.6370
  120OSM    H9S12679   5.616   5.087   9.855 -1.1189 -2.3780  0.9683
  120OSM    H9T12680   5.746   4.972   9.834 -0.0373  0.6942 -1.9380
  120OSM   C10S12681   5.797   5.196   9.828  0.3355  0.1129  0.1774
  120OSM   H10S12682   5.907   5.181   9.832  0.0262 -2.2814  0.7694
  120OSM   H10T12683   5.769   5.276   9.900 -0.2335  0.3910 -0.3417
  120OSM   C11S12684   5.774   5.232   9.679 -0.1215 -0.2857  0.6100
  120OSM   H11S12685   5.819   5.332   9.657  1.3213 -1.4091 -1.9595
  120OSM   H11T12686   5.668   5.245   9.649  0.3405  0.1004 -0.9413
  120OSM   C12S12687   5.836   5.137   9.576  0.3619  0.8445  0.5237
  120OSM   H12S12688   5.789   5.038   9.589  3.8210 -1.1587 -1.0016
  120OSM   H12T12689   5.945   5.120   9.592  0.9516  0.6527 -2.9692
  120OSM   C13S12690   5.815   5.172   9.426 -0.2512 -0.7109 -0.1028
  120OSM   H13S12691   5.831   5.281   9.411 -0.9694 -0.7359 -1.2262
  120OSM   H13T12692   5.707   5.150   9.407 -1.0117  2.0679  0.6226
  120OSM   C14S12693   5.902   5.096   9.327  0.8658 -0.5405  0.3707
  120OSM   H14S12694   5.875   4.989   9.341 -0.6924  0.0233  2.1435
  120OSM   H14T12695   6.008   5.094   9.359  0.6362 -2.4573  1.1256
  120OSM   C15S12696   5.869   5.139   9.180  0.3657 -0.6808  0.7981
  120OSM   H15S12697   5.886   5.249   9.177 -1.1218 -0.3649  2.1373
  120OSM   H15T12698   5.762   5.136   9.152 -0.0469  1.7670  1.8243
  120OSM   C16S12699   5.951   5.083   9.061  0.1342  0.3570  0.0327
  120OSM   H16S12700   5.919   5.129   8.966 -1.9751 -0.0220  0.5140
  120OSM   H16T12701   5.915   4.978   9.064  1.5316 -0.1406  0.3801
  120OSM   C17S12702   6.104   5.106   9.084  0.4265  0.4872  0.2680
  120OSM   H17S12703   6.169   5.046   9.017 -0.1503  2.4564 -2.1984
  120OSM   H17T12704   6.123   5.083   9.191  0.1863 -0.5735  0.0945
  120OSM   C18S12705   6.151   5.248   9.054 -0.3901 -0.1129  0.4657
  120OSM   H18S12706   6.253   5.271   9.093 -0.7107  1.0937  0.6431
  120OSM   H18T12707   6.082   5.329   9.086  1.6328  1.0434  2.2011
  120OSM   H18U12708   6.159   5.259   8.944  1.4473 -2.3362  0.3055
  120OSM    C1F12709   5.892   4.463  10.109  0.0615  0.0094 -0.3277
  120OSM     OF12710   5.855   4.350  10.133  0.3835  0.3508  0.0954
  120OSM    C2F12711   5.941   4.502   9.974  0.3674  0.4231  0.0990
  120OSM    H2F12712   6.030   4.567   9.990  0.4241 -0.2166  3.1623
  120OSM    H2G12713   5.865   4.564   9.923  0.2897 -0.5258 -0.9680
  120OSM    C3F12714   5.957   4.377   9.886  0.2428  0.4782 -0.6439
  120OSM    H3F12715   5.864   4.319   9.867 -1.3127  1.7911  2.1981
  120OSM    H3G12716   6.028   4.308   9.937  2.5366  0.9246 -3.0213
  120OSM    C4F12717   6.020   4.409   9.751  0.5124 -0.3782 -0.0848
  120OSM    H4F12718   6.117   4.457   9.773 -0.3319  1.0070  0.7766
  120OSM    H4G12719   5.950   4.482   9.704 -1.1937 -0.6709  1.8306
  120OSM    C5F12720   6.037   4.295   9.650  0.3433  0.0534 -0.4550
  120OSM    H5F12721   5.935   4.260   9.624 -0.4858  2.3105 -0.4679
  120OSM    H5G12722   6.087   4.208   9.698  2.1242  0.2654 -1.8182
  120OSM    C6F12723   6.124   4.321   9.527 -0.2301 -0.0222  0.5330
  120OSM    H6F12724   6.218   4.360   9.570 -0.8445  0.6805  1.2793
  120OSM    H6G12725   6.083   4.405   9.467  0.9974 -0.8411 -1.5985
  120OSM    C7F12726   6.149   4.199   9.434 -0.2477 -0.0238 -0.1979
  120OSM    H7F12727   6.057   4.175   9.377 -0.3436 -0.6601  0.2072
  120OSM    H7G12728   6.164   4.109   9.498 -0.6055 -2.1045 -2.8708
  120OSM    C8F12729   6.272   4.209   9.335 -0.2782  0.1171 -0.0399
  120OSM    H8F12730   6.241   4.297   9.275 -2.9070  0.4667  1.6362
  120OSM    H8G12731   6.261   4.116   9.275 -2.9992 -0.0849  0.6547
  120OSM    C9F12732   6.408   4.217   9.396  0.7476 -0.6317 -0.0181
  120OSM    H9F12733   6.406   4.234   9.504  0.7626  1.1952 -0.2735
  120OSM   C10F12734   6.525   4.208   9.329 -0.4509  0.0470 -0.0776
  120OSM   H10F12735   6.620   4.203   9.386 -0.2930 -0.5178 -0.3770
  120OSM   C11F12736   6.539   4.166   9.189 -0.1711  1.1420 -0.0437
  120OSM   H11F12737   6.611   4.227   9.129  1.0342  1.2859  1.4851
  120OSM   H11G12738   6.440   4.159   9.139 -1.6840 -0.6080  2.9289
  120OSM   C12F12739   6.604   4.025   9.196  0.3552 -0.1959  0.0419
  120OSM   H12F12740   6.534   3.956   9.248  2.0194 -2.1308 -0.1842
  120OSM   H12G12741   6.704   4.018   9.244  1.3469  2.8262 -1.3657
  120OSM   C13F12742   6.612   3.973   9.055  0.6577  0.2932 -0.6103
  120OSM   H13F12743   6.711   3.926   9.035  0.5577 -0.3096  0.2617
  120OSM   H13G12744   6.601   4.049   8.975 -0.1110 -1.2514 -2.0402
  120OSM   C14F12745   6.506   3.859   9.035 -0.2322 -0.7043 -0.0113
  120OSM   H14F12746   6.403   3.901   9.037  0.9168  2.4726 -0.9017
  120OSM   H14G12747   6.528   3.779   9.108  0.5965  0.6003  1.2190
  120OSM   C15F12748   6.531   3.790   8.900 -0.4676 -1.2694  0.1640
  120OSM   H15F12749   6.630   3.739   8.891  0.1252 -0.1354  0.0411
  120OSM   H15G12750   6.517   3.857   8.813 -1.9016 -1.0535  0.5425
  120OSM   C16F12751   6.438   3.673   8.893  0.0429  0.2142  0.1832
  120OSM   H16F12752   6.332   3.700   8.914 -0.4401 -1.0856 -0.4235
  120OSM   H16G12753   6.465   3.612   8.981 -1.4969 -1.3259 -0.3300
  120OSM   C17F12754   6.441   3.581   8.770  0.5753 -0.1440 -0.0079
  120OSM   H17F12755   6.379   3.489   8.780  3.8961 -2.4491  0.8801
  120OSM   H17G12756   6.545   3.544   8.781  0.5784  0.4392  2.6170
  120OSM   C18F12757   6.427   3.654   8.630  0.7124  0.7988 -0.2823
  120OSM   H18F12758   6.431   3.574   8.553 -1.4254  0.5684 -0.2150
  120OSM   H18G12759   6.508   3.727   8.608 -1.4038  2.9745 -1.2278
  120OSM   H18H12760   6.327   3.701   8.636  0.3146 -0.0812  0.2366
  121OSM      N12761   3.431   0.688  10.807  0.3329  0.1319  0.1234
  121OSM    C1512762   3.430   0.812  10.718  0.5621  0.6650 -0.4540
  121OSM   H15A12763   3.525   0.864  10.727  0.1549  1.3508 -0.1015
  121OSM   H15B12764   3.352   0.879  10.752 -0.6469 -0.1920 -1.4730
  121OSM   H15C12765   3.417   0.784  10.615 -0.7858  1.0663 -0.4125
  121OSM    C1412766   3.295   0.624  10.792  0.0053  0.2271 -0.4044
  121OSM   H14A12767   3.297   0.524  10.834  0.5989  0.4843  0.2086
  121OSM   H14B12768   3.260   0.612  10.691 -2.4851  0.1925  0.3862
  121OSM   H14C12769   3.220   0.674  10.852  1.1376 -0.3374  1.6104
  121OSM    C1312770   3.538   0.599  10.757  0.2339  0.2111 -0.0788
  121OSM   H13A12771   3.627   0.660  10.760 -1.8613  3.4819  0.7522
  121OSM   H13B12772   3.516   0.575  10.654  0.1866 -0.6866  0.1320
  121OSM   H13C12773   3.545   0.510  10.818 -1.3266 -1.2299 -1.8626
  121OSM    C1212774   3.457   0.715  10.958 -0.0427 -0.1415  0.8270
  121OSM   H12A12775   3.473   0.627  11.018 -0.1582  1.6990  3.7512
  121OSM   H12B12776   3.372   0.766  10.999 -0.8251 -1.7010  1.1945
  121OSM    C1112777   3.585   0.793  10.992  0.8397 -0.0432 -0.6254
  121OSM   H11A12778   3.571   0.813  11.100  0.0554  0.6356 -0.8426
  121OSM   H11B12779   3.576   0.896  10.951  1.5045  0.3834  0.2599
  121OSM      P12780   3.819   0.711  11.059 -0.4862  0.5624  0.0798
  121OSM    O1312781   3.828   0.838  11.137 -0.2257 -0.1434  0.3807
  121OSM    O1412782   3.811   0.585  11.133 -0.8897 -0.0767  0.1860
  121OSM    O1112783   3.950   0.705  10.963 -0.3305  0.6794 -0.7954
  121OSM    O1212784   3.700   0.714  10.957 -0.1958 -0.0070  0.3538
  121OSM    C1S12785   3.945   0.686  10.824 -0.5163 -0.0855 -0.4098
  121OSM    H1S12786   3.847   0.650  10.786  0.2549 -1.9780 -0.7197
  121OSM    H1T12787   4.015   0.605  10.792 -2.0156 -2.1247  1.1672
  121OSM     NF12788   3.950   0.817  10.610  1.0934  0.1557 -0.0124
  121OSM    HNF12789   4.035   0.813  10.559  1.0957 -2.1187  0.0578
  121OSM    C2S12790   3.973   0.825  10.756 -0.6436  0.0618  0.3210
  121OSM    H2S12791   3.898   0.896  10.798 -1.1503  0.5003 -1.2449
  121OSM    C3S12792   4.120   0.879  10.777  0.1985 -0.2038 -0.1598
  121OSM    H3S12793   4.194   0.813  10.725 -0.7120  0.4959 -2.4640
  121OSM     O312794   4.150   0.898  10.916  0.2032  1.5617 -0.4514
  121OSM    HO312795   4.068   0.865  10.953  0.2566 -1.4282 -2.6097
  121OSM    C4S12796   4.127   1.017  10.707 -0.5912 -0.1534  0.3168
  121OSM    H4S12797   4.057   1.091  10.748 -0.0303  0.6785 -0.2208
  121OSM    C5S12798   4.217   1.059  10.611  0.3664 -0.1682 -0.2881
  121OSM    H5S12799   4.298   0.992  10.577  1.5302 -0.1611  2.2548
  121OSM    C6S12800   4.232   1.197  10.543 -0.4902 -0.4648  0.0074
  121OSM    H6S12801   4.314   1.189  10.469  1.1474 -0.2823  1.7290
  121OSM    H6T12802   4.273   1.270  10.616 -2.3206  0.9533 -0.3157
  121OSM    C7S12803   4.107   1.263  10.485  0.1485 -0.6558 -0.8740
  121OSM    H7S12804   4.051   1.308  10.570  1.3621  1.5995 -1.1753
  121OSM    H7T12805   4.039   1.187  10.442 -3.4819  0.2616  2.5834
  121OSM    C8S12806   4.138   1.376  10.390  0.1153  0.1747 -0.0337
  121OSM    H8S12807   4.236   1.426  10.407  0.1377  0.3429 -0.6230
  121OSM    H8T12808   4.062   1.455  10.410  1.5721  1.8669 -0.8429
  121OSM    C9S12809   4.116   1.337  10.247  0.1448 -0.5706  0.2316
  121OSM    H9S12810   4.007   1.319  10.240  0.4858 -2.4057 -1.1982
  121OSM    H9T12811   4.167   1.242  10.219 -1.8975 -1.4157 -0.8170
  121OSM   C10S12812   4.156   1.439  10.138  0.1137  0.6286 -0.2262
  121OSM   H10S12813   4.264   1.466  10.130 -0.1874  1.7119 -0.7525
  121OSM   H10T12814   4.112   1.537  10.165 -1.0226 -0.4355  2.0817
  121OSM   C11S12815   4.090   1.395  10.002 -0.2484 -0.0552  0.1038
  121OSM   H11S12816   3.979   1.395  10.003 -0.2757  0.4833 -1.3016
  121OSM   H11T12817   4.141   1.304   9.963  1.1518  0.5926  0.3579
  121OSM   C12S12818   4.130   1.489   9.887 -0.4048 -0.5398  0.4839
  121OSM   H12S12819   4.239   1.477   9.870  0.1453 -1.1051  3.7608
  121OSM   H12T12820   4.109   1.597   9.908 -1.5188 -0.2742 -1.7056
  121OSM   C13S12821   4.058   1.452   9.755  0.1990  0.9174 -0.6637
  121OSM   H13S12822   3.950   1.450   9.780 -0.0640  2.2511 -1.5845
  121OSM   H13T12823   4.077   1.350   9.716 -0.8574  0.5653 -0.2876
  121OSM   C14S12824   4.091   1.557   9.644 -0.4027 -0.1663 -0.5312
  121OSM   H14S12825   4.201   1.553   9.623 -0.4554  1.5369 -1.2837
  121OSM   H14T12826   4.061   1.654   9.689 -1.8193 -1.8784  2.4132
  121OSM   C15S12827   4.015   1.528   9.519 -0.0284  0.0949  0.1570
  121OSM   H15S12828   4.049   1.607   9.449  1.9268  0.3973  1.3641
  121OSM   H15T12829   3.906   1.542   9.535  0.1876  1.5399  0.4242
  121OSM   C16S12830   4.034   1.392   9.455 -0.1352 -0.0566  0.1777
  121OSM   H16S12831   3.999   1.311   9.524 -1.2227  0.0665 -0.2141
  121OSM   H16T12832   4.144   1.378   9.447  0.2593  0.5217  3.3408
  121OSM   C17S12833   3.963   1.385   9.321 -0.0064  0.5302 -0.0216
  121OSM   H17S12834   3.994   1.467   9.253  0.0946  0.0990 -0.5000
  121OSM   H17T12835   3.853   1.393   9.329 -0.1591 -0.8537 -0.3988
  121OSM   C18S12836   3.989   1.252   9.257 -0.0069 -0.3681  0.2895
  121OSM   H18S12837   3.965   1.175   9.334  1.5141  1.0066  2.2256
  121OSM   H18T12838   4.098   1.238   9.241  0.0804  0.6285 -0.0529
  121OSM   H18U12839   3.934   1.231   9.163  1.2260 -0.3950 -0.4442
  121OSM    C1F12840   3.829   0.813  10.559 -0.0814 -0.1990  0.4797
  121OSM     OF12841   3.739   0.865  10.619  0.2819 -0.2335 -0.0152
  121OSM    C2F12842   3.813   0.753  10.421  0.3453  0.2142 -0.1485
  121OSM    H2F12843   3.893   0.678  10.402  2.4131  1.6792  2.1464
  121OSM    H2G12844   3.822   0.837  10.348  1.2867  0.9519  0.7953
  121OSM    C3F12845   3.675   0.687  10.405  0.4368 -0.1991  0.1709
  121OSM    H3F12846   3.585   0.738  10.446 -0.3775 -1.4151 -0.0463
  121OSM    H3G12847   3.666   0.601  10.475 -1.0906  1.8961  2.7602
  121OSM    C4F12848   3.645   0.627  10.266  0.1333 -0.2167 -0.6100
  121OSM    H4F12849   3.588   0.532  10.274 -1.9006  0.9095 -1.1374
  121OSM    H4G12850   3.742   0.591  10.224  0.3873 -1.1963  0.7225
  121OSM    C5F12851   3.568   0.719  10.179 -0.0015 -0.2677 -0.0829
  121OSM    H5F12852   3.602   0.824  10.188  0.9153 -0.7060  2.3732
  121OSM    H5G12853   3.461   0.717  10.211  0.5870 -2.1043  2.0763
  121OSM    C6F12854   3.551   0.677  10.028  0.3593 -0.1266 -0.0805
  121OSM    H6F12855   3.525   0.569  10.023  0.7632 -0.2017 -0.8366
  121OSM    H6G12856   3.655   0.679   9.987  0.0431 -0.0630 -0.9054
  121OSM    C7F12857   3.448   0.748   9.946 -0.4554  0.5016  0.5977
  121OSM    H7F12858   3.466   0.858   9.944  1.5536  0.2176  1.0217
  121OSM    H7G12859   3.356   0.728  10.004 -1.1029  0.0309 -0.5544
  121OSM    C8F12860   3.450   0.690   9.804  0.1283 -0.4763 -0.1812
  121OSM    H8F12861   3.383   0.752   9.740 -2.2073 -0.7374  1.8462
  121OSM    H8G12862   3.418   0.584   9.799  1.6555 -1.2266  2.9437
  121OSM    C9F12863   3.590   0.696   9.746  0.4856 -0.4080  0.1913
  121OSM    H9F12864   3.650   0.607   9.770 -0.9594 -1.4343  0.1755
  121OSM   C10F12865   3.654   0.781   9.659  0.5398  0.0966 -0.3709
  121OSM   H10F12866   3.760   0.762   9.638  1.1062  2.0329  0.5422
  121OSM   C11F12867   3.579   0.894   9.602  0.1842  0.4479 -0.4108
  121OSM   H11F12868   3.648   0.981   9.611  0.3929  0.2988 -0.5643
  121OSM   H11G12869   3.485   0.910   9.660  0.8057  1.6713  0.3114
  121OSM   C12F12870   3.538   0.900   9.452 -0.9633  1.0166  0.0541
  121OSM   H12F12871   3.475   0.989   9.431 -3.3565 -0.6673 -0.3477
  121OSM   H12G12872   3.481   0.807   9.428  0.8858  0.0338 -0.7206
  121OSM   C13F12873   3.665   0.906   9.366 -0.5972 -0.1018 -0.6102
  121OSM   H13F12874   3.728   0.816   9.380 -1.8873 -0.5494  4.2194
  121OSM   H13G12875   3.722   0.999   9.388  0.1192 -0.5671 -0.4699
  121OSM   C14F12876   3.632   0.913   9.212 -0.0994  0.1337 -0.3086
  121OSM   H14F12877   3.558   0.994   9.191  0.6990  0.9894  0.1408
  121OSM   H14G12878   3.566   0.826   9.191  0.1805 -0.0169 -0.5677
  121OSM   C15F12879   3.761   0.885   9.135  0.4060 -0.0459  0.5574
  121OSM   H15F12880   3.786   0.778   9.150 -3.4719 -0.8459  2.2757
  121OSM   H15G12881   3.851   0.941   9.170  0.3387  1.1388 -1.0310
  121OSM   C16F12882   3.746   0.910   8.982  0.7246  0.0648  0.1181
  121OSM   H16F12883   3.681   0.829   8.944 -0.8245 -0.0392  2.7644
  121OSM   H16G12884   3.848   0.897   8.940  1.0718  0.8549  0.6806
  121OSM   C17F12885   3.691   1.049   8.954  0.5869  0.4340 -0.7456
  121OSM   H17F12886   3.753   1.123   9.008  0.7361  1.7868 -2.6754
  121OSM   H17G12887   3.590   1.063   8.998 -0.0490 -0.4354 -1.8629
  121OSM   C18F12888   3.691   1.078   8.810  0.3115  0.8335 -0.2510
  121OSM   H18F12889   3.677   1.188   8.802 -1.9934  0.6500  0.6189
  121OSM   H18G12890   3.607   1.024   8.761  0.7784  1.7928 -2.2122
  121OSM   H18H12891   3.784   1.048   8.757 -1.3125 -2.0412 -1.7232
  122OSM      N12892   6.327   5.325  10.744 -0.7968  0.2493 -0.4668
  122OSM    C1512893   6.305   5.465  10.793 -1.4181  0.5807 -0.1383
  122OSM   H15A12894   6.240   5.524  10.731 -0.3651  2.9470  0.8939
  122OSM   H15B12895   6.398   5.519  10.798 -1.2408  0.1481  2.1348
  122OSM   H15C12896   6.260   5.467  10.891  1.2257  0.4678  1.1714
  122OSM    C1412897   6.396   5.332  10.607  0.3860 -0.3576 -0.0814
  122OSM   H14A12898   6.485   5.392  10.620 -0.5180  0.7383  1.6044
  122OSM   H14B12899   6.329   5.379  10.537 -1.8352 -0.2267  1.9789
  122OSM   H14C12900   6.424   5.237  10.566 -0.1453 -0.2163 -0.7796
  122OSM    C1312901   6.410   5.245  10.835  0.2124 -0.7018 -0.1303
  122OSM   H13A12902   6.424   5.148  10.789  1.6843  0.8326 -3.2140
  122OSM   H13B12903   6.360   5.233  10.930  1.3432  2.4343  0.9940
  122OSM   H13C12904   6.505   5.295  10.849 -0.7247  0.6214  2.0446
  122OSM    C1212905   6.187   5.261  10.723  0.1785  0.3782 -0.7272
  122OSM   H12A12906   6.209   5.158  10.699  1.6850  0.1834  1.1870
  122OSM   H12B12907   6.138   5.323  10.650  1.5472  2.2570 -0.1338
  122OSM    C1112908   6.087   5.257  10.840  0.7884  0.1769 -0.0172
  122OSM   H11A12909   6.064   5.357  10.883  1.3840 -1.0936  3.6233
  122OSM   H11B12910   6.122   5.192  10.923 -2.5958  1.0727  2.3599
  122OSM      P12911   5.817   5.250  10.841 -0.2034 -0.3031  0.2648
  122OSM    O1312912   5.753   5.171  10.949  0.3273 -0.4947  0.2058
  122OSM    O1412913   5.837   5.394  10.878 -0.2993  0.3200 -0.0156
  122OSM    O1112914   5.739   5.245  10.698 -0.4727 -0.0757 -0.1449
  122OSM    O1212915   5.960   5.192  10.804  0.4956 -0.1569 -0.1778
  122OSM    C1S12916   5.777   5.336  10.586 -0.4660  0.9847 -0.7161
  122OSM    H1S12917   5.886   5.323  10.569 -0.5794 -1.1324 -0.0965
  122OSM    H1T12918   5.762   5.443  10.614  0.3579  0.8328  0.3737
  122OSM     NF12919   5.747   5.370  10.352 -0.0593  0.2223 -0.5420
  122OSM    HNF12920   5.706   5.452  10.314 -1.1000  0.6518  1.3377
  122OSM    C2S12921   5.692   5.306  10.463  0.2104 -1.0049  0.2623
  122OSM    H2S12922   5.687   5.196  10.445 -0.4105 -0.8112 -0.8504
  122OSM    C3S12923   5.547   5.343  10.487 -0.6463 -0.0830  0.3471
  122OSM    H3S12924   5.529   5.450  10.508  1.0565  0.2147  0.4402
  122OSM     O312925   5.484   5.272  10.597  0.2273 -0.1006 -0.3118
  122OSM    HO312926   5.559   5.223  10.632 -0.5804 -1.4483 -0.3588
  122OSM    C4S12927   5.467   5.301  10.369  0.4141 -0.4911 -0.1409
  122OSM    H4S12928   5.432   5.197  10.368 -1.5461  0.1478 -0.3543
  122OSM    C5S12929   5.441   5.379  10.265 -1.5899 -0.1138  0.0847
  122OSM    H5S12930   5.478   5.483  10.262 -0.8108 -0.4048 -1.5650
  122OSM    C6S12931   5.367   5.340  10.139 -0.6546  0.5410 -0.0287
  122OSM    H6S12932   5.271   5.396  10.144 -1.1128 -0.1319 -0.9588
  122OSM    H6T12933   5.329   5.235  10.144  0.4971 -0.0164 -2.0307
  122OSM    C7S12934   5.435   5.360   9.999 -0.7646 -0.4062  1.1804
  122OSM    H7S12935   5.359   5.374   9.918  0.0268 -1.5919  0.2068
  122OSM    H7T12936   5.487   5.265   9.977 -0.7053 -0.3606  1.1227
  122OSM    C8S12937   5.524   5.484   9.988  0.6753  0.3908 -0.0703
  122OSM    H8S12938   5.608   5.468  10.059 -0.3043  3.7460  2.0626
  122OSM    H8T12939   5.468   5.577  10.011 -0.4288 -0.1174 -0.6239
  122OSM    C9S12940   5.578   5.496   9.839  1.0781 -0.2069 -0.1729
  122OSM    H9S12941   5.604   5.398   9.794 -0.0461 -0.6456  0.0974
  122OSM    H9T12942   5.660   5.570   9.827  0.1814  0.3516 -4.8730
  122OSM   C10S12943   5.478   5.564   9.748 -0.6119 -0.1413 -0.2116
  122OSM   H10S12944   5.469   5.665   9.793  0.5157  0.7420 -1.8644
  122OSM   H10T12945   5.381   5.511   9.741  0.1581 -1.4338 -1.8915
  122OSM   C11S12946   5.546   5.568   9.610 -0.1239  0.1876  0.4319
  122OSM   H11S12947   5.575   5.467   9.574 -1.7016  0.0264 -0.4765
  122OSM   H11T12948   5.636   5.633   9.619  0.5936 -0.5977 -0.7927
  122OSM   C12S12949   5.444   5.620   9.511 -0.7732  0.3043  0.4151
  122OSM   H12S12950   5.384   5.704   9.552 -0.3371  1.3711 -1.0534
  122OSM   H12T12951   5.377   5.535   9.484  0.8158 -1.5384  1.9485
  122OSM   C13S12952   5.506   5.670   9.382 -0.2872 -0.2919  0.6838
  122OSM   H13S12953   5.563   5.763   9.404  0.2058 -0.8415  1.8063
  122OSM   H13T12954   5.428   5.707   9.312  1.2066  1.4134 -0.1775
  122OSM   C14S12955   5.588   5.563   9.309  0.4190 -0.4642  0.1741
  122OSM   H14S12956   5.547   5.464   9.341  0.3207 -1.5635 -3.0575
  122OSM   H14T12957   5.692   5.571   9.346  0.0569  1.0703  0.9249
  122OSM   C15S12958   5.586   5.574   9.154 -0.3639  0.4047 -1.2323
  122OSM   H15S12959   5.653   5.659   9.132 -0.3790  0.7842  0.1580
  122OSM   H15T12960   5.482   5.594   9.119 -1.8286 -0.2960  2.3365
  122OSM   C16S12961   5.648   5.452   9.094 -0.0843 -0.0807  0.0727
  122OSM   H16S12962   5.568   5.375   9.093 -0.0566 -0.1160  0.3164
  122OSM   H16T12963   5.732   5.416   9.157  0.1173  2.8034  1.6223
  122OSM   C17S12964   5.697   5.481   8.951  0.0271 -0.0766  0.8475
  122OSM   H17S12965   5.738   5.584   8.945 -0.9621  0.2541 -2.5837
  122OSM   H17T12966   5.613   5.481   8.879  0.5180 -0.8666  0.2581
  122OSM   C18S12967   5.798   5.390   8.885 -0.6307 -0.2415 -0.6471
  122OSM   H18S12968   5.850   5.429   8.795 -2.0117 -0.6279 -1.6555
  122OSM   H18T12969   5.736   5.299   8.867  0.0613 -0.7496 -0.4856
  122OSM   H18U12970   5.880   5.371   8.957  0.3991  2.5117 -0.9699
  122OSM    C1F12971   5.854   5.332  10.287  0.0841  0.1013 -0.2763
  122OSM     OF12972   5.909   5.224  10.313  0.4299 -0.2883 -0.6159
  122OSM    C2F12973   5.898   5.419  10.176  0.5534  1.0281  0.5207
  122OSM    H2F12974   5.877   5.522  10.215 -0.3011  0.6742  1.0243
  122OSM    H2G12975   5.838   5.401  10.084 -0.0277 -1.4708  1.3039
  122OSM    C3F12976   6.054   5.416  10.143  0.1614 -0.0954  0.0033
  122OSM    H3F12977   6.119   5.423  10.233  0.2845  1.1843 -0.1659
  122OSM    H3G12978   6.068   5.507  10.081  1.6521 -0.9537 -0.9646
  122OSM    C4F12979   6.090   5.300  10.044 -0.8039  0.1655 -0.5005
  122OSM    H4F12980   6.006   5.304   9.971 -1.4834  0.4379  0.2856
  122OSM    H4G12981   6.089   5.202  10.097 -2.8151  1.0376  1.2030
  122OSM    C5F12982   6.227   5.311   9.981 -0.3472 -0.4751 -1.1818
  122OSM    H5F12983   6.310   5.286  10.050  0.8720  0.8942 -2.0912
  122OSM    H5G12984   6.243   5.420   9.963  1.2780 -0.3516  0.7146
  122OSM    C6F12985   6.240   5.230   9.849 -0.2749 -0.4532  0.0282
  122OSM    H6F12986   6.168   5.270   9.774  1.2166 -0.3250 -1.3816
  122OSM    H6G12987   6.227   5.122   9.870  0.8321 -0.8053 -0.9807
  122OSM    C7F12988   6.379   5.246   9.777  0.2532  0.0551 -0.5963
  122OSM    H7F12989   6.461   5.244   9.852 -1.4175  1.7052  1.3844
  122OSM    H7G12990   6.400   5.346   9.733 -0.6123  0.8629  0.7888
  122OSM    C8F12991   6.405   5.135   9.679 -0.3556 -0.2554  0.7363
  122OSM    H8F12992   6.406   5.037   9.730  1.2662 -0.8684 -0.4076
  122OSM    H8G12993   6.508   5.149   9.642 -0.7746 -1.0729 -0.8093
  122OSM    C9F12994   6.314   5.135   9.556  0.0430 -0.3560  0.1728
  122OSM    H9F12995   6.236   5.057   9.559 -2.0100  1.5902  1.6281
  122OSM   C10F12996   6.319   5.228   9.458  0.0690 -0.4996  0.1079
  122OSM   H10F12997   6.250   5.222   9.373  1.7228  0.2264 -1.3489
  122OSM   C11F12998   6.407   5.353   9.452  0.1168 -0.2613 -0.4090
  122OSM   H11F12999   6.494   5.330   9.517 -0.2509 -1.3702 -0.3000
  122OSM   H11G13000   6.349   5.432   9.505 -1.1921 -1.1477 -0.4898
  122OSM   C12F13001   6.447   5.412   9.316  0.3745 -0.5493 -0.0668
  122OSM   H12F13002   6.505   5.506   9.328  1.1972 -1.1598  0.8638
  122OSM   H12G13003   6.351   5.425   9.261 -0.4980 -1.7746  1.1160
  122OSM   C13F13004   6.535   5.318   9.222  0.0227 -0.2396 -1.2900
  122OSM   H13F13005   6.485   5.220   9.210  0.9160 -0.6347 -1.8546
  122OSM   H13G13006   6.628   5.294   9.278  0.2172 -0.3872 -1.6752
  122OSM   C14F13007   6.573   5.372   9.090  0.4701  0.1569 -0.4726
  122OSM   H14F13008   6.648   5.453   9.103 -0.2254  0.9121 -1.0692
  122OSM   H14G13009   6.487   5.419   9.038 -1.6581 -0.2687  2.3869
  122OSM   C15F13010   6.605   5.250   8.994  0.0110 -0.9789  0.1721
  122OSM   H15F13011   6.505   5.207   8.971 -0.6145 -0.5506  1.9252
  122OSM   H15G13012   6.666   5.169   9.041  2.6911 -0.2536 -1.8589
  122OSM   C16F13013   6.671   5.311   8.868 -0.2807  0.3114  0.1449
  122OSM   H16F13014   6.770   5.356   8.891 -0.2779 -0.4830  1.8884
  122OSM   H16G13015   6.606   5.391   8.828  0.3449  1.2516  0.9390
  122OSM   C17F13016   6.687   5.198   8.767  0.0436  0.3805 -0.6242
  122OSM   H17F13017   6.590   5.145   8.775 -0.5816  1.6506  0.7228
  122OSM   H17G13018   6.760   5.126   8.811 -1.5007 -0.5103  0.5736
  122OSM   C18F13019   6.730   5.243   8.632  0.0039 -0.4443  0.1700
  122OSM   H18F13020   6.650   5.305   8.586  2.0131  0.8864 -1.7389
  122OSM   H18G13021   6.758   5.147   8.583 -0.6392 -0.8965  0.6656
  122OSM   H18H13022   6.821   5.294   8.669 -0.7963 -0.1472  1.8044
  123OSM      N13023   1.740   5.041   5.924 -0.7116 -0.0773  0.6493
  123OSM    C1513024   1.810   4.945   5.828  0.6990 -0.3859  0.2819
  123OSM   H15A13025   1.842   4.858   5.882  1.4418 -2.2445 -2.9243
  123OSM   H15B13026   1.889   5.008   5.789  0.4090 -1.0723 -1.5345
  123OSM   H15C13027   1.750   4.908   5.746 -0.0353 -0.9318  1.0518
  123OSM    C1413028   1.691   5.161   5.843 -0.0081  0.7317 -1.1146
  123OSM   H14A13029   1.638   5.232   5.905 -1.5024 -0.7017 -0.6770
  123OSM   H14B13030   1.618   5.125   5.772 -0.3804 -0.5998 -0.1089
  123OSM   H14C13031   1.771   5.206   5.787  0.4381  1.3325 -0.0231
  123OSM    C1313032   1.621   4.973   5.981  0.4672 -0.3936 -0.5103
  123OSM   H13A13033   1.533   4.976   5.918  0.0122  0.8602  0.1657
  123OSM   H13B13034   1.599   5.012   6.079  2.2597 -0.7796  0.0765
  123OSM   H13C13035   1.650   4.870   5.995  3.1604 -0.4191 -4.6482
  123OSM    C1213036   1.834   5.087   6.032 -0.5141  0.0149 -0.6675
  123OSM   H12A13037   1.883   5.007   6.086  0.7173 -0.5154 -2.4851
  123OSM   H12B13038   1.780   5.145   6.105  1.1684 -0.0455  0.6903
  123OSM    C1113039   1.949   5.184   5.987  0.7259  0.7735 -0.5042
  123OSM   H11A13040   1.994   5.229   6.077 -1.5132 -1.1542  1.7469
  123OSM   H11B13041   1.911   5.268   5.926  0.7393  1.3920  0.3305
  123OSM      P13042   2.163   5.032   5.973 -0.0031  0.7027 -0.0325
  123OSM    O1313043   2.243   4.972   5.858  0.5157 -0.5014 -0.3226
  123OSM    O1413044   2.241   5.121   6.059  0.0799  0.0469 -0.2006
  123OSM    O1113045   2.100   4.913   6.056 -0.2330 -0.5875 -0.1179
  123OSM    O1213046   2.047   5.118   5.908 -0.1237  0.4757 -0.5047
  123OSM    C1S13047   2.191   4.803   6.090 -0.7640  0.1672 -0.1467
  123OSM    H1S13048   2.267   4.772   6.015  1.8474  0.8874  2.0081
  123OSM    H1T13049   2.136   4.712   6.121 -2.9065  1.7403  0.8539
  123OSM     NF13050   2.352   4.736   6.275 -0.1135  0.0853 -0.3440
  123OSM    HNF13051   2.319   4.683   6.353 -1.3381  0.5087 -0.5483
  123OSM    C2S13052   2.265   4.844   6.230  0.0473  0.1101  0.4019
  123OSM    H2S13053   2.332   4.930   6.207  0.4097 -0.1866  0.3358
  123OSM    C3S13054   2.156   4.890   6.334 -0.2237  0.5379 -0.4782
  123OSM    H3S13055   2.070   4.820   6.331  0.1144  0.1167 -0.4208
  123OSM     O313056   2.098   5.015   6.291 -0.4044 -0.1105 -0.6578
  123OSM    HO313057   2.127   5.030   6.201 -0.2637  0.5741 -0.4998
  123OSM    C4S13058   2.209   4.911   6.480  0.5767 -0.1622  1.0016
  123OSM    H4S13059   2.299   4.974   6.494 -0.2028  0.6281  2.7586
  123OSM    C5S13060   2.148   4.854   6.585  0.3800 -0.3276  0.2028
  123OSM    H5S13061   2.075   4.772   6.574 -1.6916  1.4280  0.3447
  123OSM    C6S13062   2.206   4.883   6.722  0.9035  0.5193 -0.3930
  123OSM    H6S13063   2.240   4.986   6.746  0.2421  0.8165 -0.7058
  123OSM    H6T13064   2.287   4.811   6.744 -1.3292 -1.8398  0.5931
  123OSM    C7S13065   2.090   4.845   6.821 -0.2843 -0.5381 -0.3062
  123OSM    H7S13066   2.060   4.741   6.799  2.0591 -1.2143 -0.6361
  123OSM    H7T13067   2.007   4.915   6.795 -0.6415 -1.5831 -2.1513
  123OSM    C8S13068   2.133   4.855   6.966 -0.3806  0.3711  0.7693
  123OSM    H8S13069   2.196   4.765   6.981 -1.3092 -0.3706  0.3710
  123OSM    H8T13070   2.054   4.857   7.044 -0.5991  0.1340  0.5544
  123OSM    C9S13071   2.213   4.981   7.004  0.7676  0.3082  0.2253
  123OSM    H9S13072   2.145   5.064   6.974  0.5135  0.0560  0.1058
  123OSM    H9T13073   2.310   4.985   6.951 -0.1196 -1.2545 -1.6142
  123OSM   C10S13074   2.232   4.988   7.157 -0.6691  0.1310 -0.3620
  123OSM   H10S13075   2.137   5.007   7.212  0.9771 -3.3881  4.3465
  123OSM   H10T13076   2.313   5.059   7.185  0.2581 -1.6216  1.6956
  123OSM   C11S13077   2.290   4.861   7.224 -0.4406 -0.7091  0.1034
  123OSM   H11S13078   2.396   4.863   7.190 -0.1891 -1.0424  0.8656
  123OSM   H11T13079   2.241   4.771   7.182 -0.0513 -0.1048 -1.7505
  123OSM   C12S13080   2.298   4.875   7.372 -0.3516 -0.8653 -0.0119
  123OSM   H12S13081   2.341   4.970   7.412  0.8245 -2.1174  1.8678
  123OSM   H12T13082   2.351   4.791   7.421  0.4955 -0.9884 -1.0872
  123OSM   C13S13083   2.152   4.862   7.431 -0.0883  0.2403 -0.9007
  123OSM   H13S13084   2.097   4.784   7.373  0.4218 -1.2454  0.5205
  123OSM   H13T13085   2.097   4.958   7.426  1.0452  1.1128  1.7811
  123OSM   C14S13086   2.139   4.820   7.575  0.0077 -0.2779 -0.9179
  123OSM   H14S13087   2.196   4.725   7.583  1.3057  0.6387  2.4597
  123OSM   H14T13088   2.030   4.812   7.595  0.0620  4.2236  3.1780
  123OSM   C15S13089   2.189   4.927   7.667  0.7052 -0.1646  0.7295
  123OSM   H15S13090   2.139   5.022   7.641  1.1252  0.6943  2.8069
  123OSM   H15T13091   2.299   4.927   7.653  1.1502  0.7375  3.5200
  123OSM   C16S13092   2.169   4.896   7.817 -0.1729 -0.4787  0.5903
  123OSM   H16S13093   2.235   4.811   7.845 -0.3357 -1.3668 -1.5494
  123OSM   H16T13094   2.062   4.869   7.830  0.4755 -3.9337 -0.3469
  123OSM   C17S13095   2.219   5.021   7.891  0.0604 -0.3612 -0.9112
  123OSM   H17S13096   2.144   5.101   7.869  0.0119  0.7962  2.7388
  123OSM   H17T13097   2.316   5.059   7.854 -0.3052  1.9849  0.3459
  123OSM   C18S13098   2.246   4.994   8.040 -1.0661 -0.0594  1.1507
  123OSM   H18S13099   2.189   4.909   8.084  1.9327 -2.3750  0.9061
  123OSM   H18T13100   2.238   5.085   8.104  0.2023 -0.2752  1.6626
  123OSM   H18U13101   2.350   4.956   8.050 -1.5734 -2.0000 -0.1949
  123OSM    C1F13102   2.466   4.703   6.213  0.3193  0.2635 -0.3137
  123OSM     OF13103   2.505   4.767   6.113 -0.6831  0.0432 -0.5467
  123OSM    C2F13104   2.540   4.581   6.265 -0.0095  0.0470 -0.3736
  123OSM    H2F13105   2.587   4.545   6.171  0.7696  0.9977 -0.3681
  123OSM    H2G13106   2.482   4.495   6.305  1.9093 -0.9742  0.3515
  123OSM    C3F13107   2.642   4.614   6.379 -0.2431 -0.1670  0.5305
  123OSM    H3F13108   2.716   4.676   6.323  0.0426 -2.4303 -1.7971
  123OSM    H3G13109   2.701   4.522   6.402 -2.2413 -2.2617 -2.0822
  123OSM    C4F13110   2.578   4.663   6.505  0.0106  0.3775  0.5030
  123OSM    H4F13111   2.512   4.582   6.543 -0.0623  0.6859  1.0330
  123OSM    H4G13112   2.510   4.749   6.485 -2.6735 -1.8327 -0.6729
  123OSM    C5F13113   2.680   4.689   6.611 -0.5996 -0.3773 -1.0487
  123OSM    H5F13114   2.742   4.766   6.562  0.1203 -0.1656  0.1448
  123OSM    H5G13115   2.742   4.597   6.620  0.3158  0.2229 -1.1126
  123OSM    C6F13116   2.617   4.736   6.740 -0.3695  0.6278 -1.0562
  123OSM    H6F13117   2.546   4.656   6.767 -0.5394  0.9209 -0.6232
  123OSM    H6G13118   2.545   4.821   6.732 -1.7124  0.0044  2.7384
  123OSM    C7F13119   2.725   4.773   6.848  0.7786  0.5538 -0.4625
  123OSM    H7F13120   2.780   4.863   6.814  0.9621  1.1594  1.3541
  123OSM    H7G13121   2.808   4.700   6.854  0.5418  0.3610  4.2454
  123OSM    C8F13122   2.656   4.798   6.986 -0.6018  0.4305  0.4588
  123OSM    H8F13123   2.561   4.856   6.980 -0.0610  1.4017  0.9355
  123OSM    H8G13124   2.730   4.840   7.058  2.3082  1.4420 -2.8170
  123OSM    C9F13125   2.624   4.660   7.045 -0.0392 -0.2383  0.5100
  123OSM    H9F13126   2.533   4.618   7.001 -0.7226  0.9676  0.7280
  123OSM   C10F13127   2.698   4.593   7.138 -0.8861  0.4790 -0.3844
  123OSM   H10F13128   2.679   4.489   7.170 -0.1898  0.8021  1.1976
  123OSM   C11F13129   2.830   4.629   7.198  0.5827  0.1635  0.4713
  123OSM   H11F13130   2.882   4.716   7.153 -1.6679  0.6476 -1.3575
  123OSM   H11G13131   2.910   4.553   7.191  1.4030  1.0357  0.1674
  123OSM   C12F13132   2.805   4.660   7.344  0.6078 -0.6461 -0.3748
  123OSM   H12F13133   2.727   4.737   7.365  0.5166 -0.8765  0.1557
  123OSM   H12G13134   2.892   4.715   7.384 -0.3135  1.5871 -1.3224
  123OSM   C13F13135   2.783   4.535   7.422 -0.0707 -0.5553 -0.2271
  123OSM   H13F13136   2.867   4.466   7.399 -0.3336 -0.5527 -1.2503
  123OSM   H13G13137   2.686   4.483   7.407 -1.0303  0.6456  1.4524
  123OSM   C14F13138   2.788   4.567   7.568  0.2830 -0.2815  0.1819
  123OSM   H14F13139   2.870   4.638   7.591  0.3655  0.7399 -2.7909
  123OSM   H14G13140   2.818   4.476   7.624 -0.2759 -0.0611  0.8535
  123OSM   C15F13141   2.655   4.623   7.630 -0.0704 -0.4276  0.0123
  123OSM   H15F13142   2.569   4.580   7.576  0.3256 -0.4697 -0.5947
  123OSM   H15G13143   2.656   4.730   7.598  1.2337 -0.8634 -1.5350
  123OSM   C16F13144   2.625   4.594   7.776 -0.0709 -0.0624 -0.1038
  123OSM   H16F13145   2.697   4.652   7.838 -0.0922 -0.7611  0.5940
  123OSM   H16G13146   2.635   4.485   7.797  1.3726  0.3955  2.0225
  123OSM   C17F13147   2.482   4.640   7.825  0.0415  0.1800 -0.3069
  123OSM   H17F13148   2.417   4.579   7.759  1.0571 -2.4529  0.9953
  123OSM   H17G13149   2.475   4.748   7.799 -0.8849 -0.0795 -1.1802
  123OSM   C18F13150   2.453   4.622   7.973  0.1736 -0.4057  0.1837
  123OSM   H18F13151   2.471   4.514   7.993 -0.2086 -0.3860  0.6510
  123OSM   H18G13152   2.347   4.649   7.993  0.9028  1.2206  2.2063
  123OSM   H18H13153   2.516   4.687   8.037 -0.5013  0.3770  0.0642
  124OSM      N13154   4.746   1.632   6.118  0.2400 -0.4011 -0.7327
  124OSM    C1513155   4.631   1.714   6.064  0.6172  0.0684  0.4574
  124OSM   H15A13156   4.646   1.813   6.103 -3.0440  0.6631  0.7442
  124OSM   H15B13157   4.532   1.679   6.089  0.2596  0.9891  0.3428
  124OSM   H15C13158   4.644   1.716   5.957  2.3428 -1.5226  0.5715
  124OSM    C1413159   4.718   1.485   6.085  0.2585  0.4164 -0.2438
  124OSM   H14A13160   4.700   1.465   5.981 -1.2828 -1.2617  0.2731
  124OSM   H14B13161   4.628   1.443   6.129  0.2036 -1.1031 -1.7007
  124OSM   H14C13162   4.802   1.423   6.110 -1.0481 -0.0319  3.7838
  124OSM    C1313163   4.874   1.665   6.045 -0.4999 -0.6749  0.0187
  124OSM   H13A13164   4.953   1.595   6.068 -1.1118 -0.6932  2.3069
  124OSM   H13B13165   4.906   1.761   6.084 -1.3037 -0.1024 -0.7145
  124OSM   H13C13166   4.874   1.668   5.938  1.5402 -0.5516 -0.0271
  124OSM    C1213167   4.741   1.654   6.270 -0.3008  0.1251  0.2623
  124OSM   H12A13168   4.829   1.603   6.307  0.9481  0.1147 -2.5150
  124OSM   H12B13169   4.650   1.607   6.304 -1.4337 -0.9067 -3.7496
  124OSM    C1113170   4.747   1.793   6.327 -0.3770  0.2659 -0.4799
  124OSM   H11A13171   4.763   1.779   6.436 -1.1013 -2.3262 -0.6457
  124OSM   H11B13172   4.647   1.840   6.322 -0.7633 -0.0282  2.7486
  124OSM      P13173   4.824   2.020   6.220  0.2816 -0.2672  0.1362
  124OSM    O1313174   4.944   2.074   6.147  0.6690 -0.1448 -0.5644
  124OSM    O1413175   4.698   2.029   6.140 -0.2556 -0.1344  1.0398
  124OSM    O1113176   4.807   2.086   6.368 -0.6658 -0.2866  0.2127
  124OSM    O1213177   4.849   1.879   6.268 -0.3744  0.0455  0.1512
  124OSM    C1S13178   4.915   2.069   6.461 -0.5528 -0.3464 -0.2452
  124OSM    H1S13179   4.997   2.139   6.434  0.5690 -2.3227 -2.4032
  124OSM    H1T13180   4.945   1.963   6.474 -0.6001 -0.3392 -0.0760
  124OSM     NF13181   4.991   2.096   6.698 -0.7335  0.4851  0.0057
  124OSM    HNF13182   5.005   2.008   6.742 -2.6890  0.3449  0.4117
  124OSM    C2S13183   4.876   2.103   6.611 -0.5949  0.0734 -0.2816
  124OSM    H2S13184   4.855   2.212   6.619  1.0922  0.4955 -1.1155
  124OSM    C3S13185   4.761   2.018   6.664  1.0449 -0.5824  0.0645
  124OSM    H3S13186   4.788   1.911   6.676  1.0613 -0.7314 -1.1445
  124OSM     O313187   4.645   2.035   6.579  0.7756  0.0431  0.5778
  124OSM    HO313188   4.682   2.048   6.491  0.3621  0.2224  0.4273
  124OSM    C4S13189   4.713   2.066   6.800 -0.4301 -0.0800 -0.8961
  124OSM    H4S13190   4.722   1.982   6.869 -0.3883  0.2498 -0.4988
  124OSM    C5S13191   4.682   2.185   6.846  0.1594  0.4928  0.5573
  124OSM    H5S13192   4.682   2.271   6.777  0.2866  2.0323  2.3914
  124OSM    C6S13193   4.653   2.218   6.990 -0.2223 -0.1127  0.3336
  124OSM    H6S13194   4.545   2.215   7.017 -0.7520  1.5299 -1.3902
  124OSM    H6T13195   4.708   2.303   7.034  0.0710 -1.7888  3.5142
  124OSM    C7S13196   4.709   2.115   7.097 -0.1169 -0.1477 -0.9053
  124OSM    H7S13197   4.818   2.096   7.086  0.3922 -0.0744  2.7097
  124OSM    H7T13198   4.649   2.022   7.099  0.2343 -0.4730  3.5037
  124OSM    C8S13199   4.699   2.168   7.240  0.8597 -0.2707 -0.0901
  124OSM    H8S13200   4.594   2.200   7.258  0.0752 -2.1911 -0.9773
  124OSM    H8T13201   4.769   2.254   7.240 -0.5563  0.9286 -1.5727
  124OSM    C9S13202   4.726   2.062   7.348  0.2732 -0.4191  0.1302
  124OSM    H9S13203   4.821   2.011   7.320  1.7318  2.6920 -1.0738
  124OSM    H9T13204   4.652   1.980   7.345  0.4234 -0.6364  1.6698
  124OSM   C10S13205   4.730   2.134   7.482 -0.7955  0.2879  0.3180
  124OSM   H10S13206   4.644   2.202   7.498 -1.6493 -0.6976  0.0062
  124OSM   H10T13207   4.814   2.207   7.472  0.1054 -0.8723 -0.9895
  124OSM   C11S13208   4.748   2.041   7.600  0.3051  0.2749 -0.5063
  124OSM   H11S13209   4.848   1.997   7.576 -0.3852 -0.2865 -2.5718
  124OSM   H11T13210   4.678   1.955   7.606  0.4037  0.1724 -0.8045
  124OSM   C12S13211   4.737   2.111   7.741  0.4124  0.7167  0.1016
  124OSM   H12S13212   4.793   2.207   7.739  0.2975  0.8077  0.9217
  124OSM   H12T13213   4.788   2.046   7.814 -0.7008  1.4273  1.5656
  124OSM   C13S13214   4.591   2.119   7.780 -0.1164 -0.1222 -0.1296
  124OSM   H13S13215   4.558   2.017   7.810  0.7887 -0.3058  0.2546
  124OSM   H13T13216   4.530   2.150   7.692  2.2647  1.6068 -1.2540
  124OSM   C14S13217   4.557   2.222   7.888 -0.2586  0.5315 -0.9884
  124OSM   H14S13218   4.447   2.228   7.895 -0.5451 -3.0126 -0.5096
  124OSM   H14T13219   4.590   2.323   7.856  0.0929  1.1946  1.3052
  124OSM   C15S13220   4.621   2.189   8.026  0.3402  0.2037 -0.5575
  124OSM   H15S13221   4.729   2.166   8.017  0.1030 -1.1162 -0.2521
  124OSM   H15T13222   4.571   2.102   8.074  0.0811  0.9474  0.5804
  124OSM   C16S13223   4.609   2.308   8.129  0.6462  0.3356  0.2796
  124OSM   H16S13224   4.501   2.333   8.129  0.3711 -0.7430 -0.7225
  124OSM   H16T13225   4.653   2.400   8.084  0.8041  0.2745  0.3108
  124OSM   C17S13226   4.668   2.279   8.262 -0.6699  0.0317 -0.4191
  124OSM   H17S13227   4.779   2.271   8.253 -0.5457  1.6374 -0.6276
  124OSM   H17T13228   4.622   2.185   8.298 -2.6428  0.2828 -2.1391
  124OSM   C18S13229   4.651   2.389   8.371  0.5433 -0.1391 -0.1856
  124OSM   H18S13230   4.674   2.489   8.330 -2.8643  1.0506  0.4877
  124OSM   H18T13231   4.723   2.368   8.453  0.2084 -1.5966 -0.2305
  124OSM   H18U13232   4.545   2.389   8.404  0.1546 -2.2551 -1.2239
  124OSM    C1F13233   5.091   2.188   6.714  0.8711  0.7734  0.3223
  124OSM     OF13234   5.093   2.297   6.652  0.2432 -0.4540 -0.0111
  124OSM    C2F13235   5.187   2.156   6.823 -0.0600 -0.4118 -0.1681
  124OSM    H2F13236   5.274   2.106   6.777 -0.5598  0.2630 -1.9449
  124OSM    H2G13237   5.119   2.096   6.887 -1.2678 -0.1624 -1.1691
  124OSM    C3F13238   5.243   2.282   6.886  0.4484 -0.0022 -0.0935
  124OSM    H3F13239   5.279   2.357   6.812 -0.6051  1.8348  1.1754
  124OSM    H3G13240   5.324   2.257   6.958 -0.8074 -1.8723  0.7572
  124OSM    C4F13241   5.138   2.363   6.968 -0.2235  0.0386 -0.8358
  124OSM    H4F13242   5.056   2.390   6.899 -1.2959 -2.8388 -0.8064
  124OSM    H4G13243   5.189   2.453   7.009  0.3863 -0.2520 -0.9348
  124OSM    C5F13244   5.079   2.277   7.090  0.1514  0.0152  0.0257
  124OSM    H5F13245   5.057   2.171   7.064 -0.6231 -0.0578  0.9311
  124OSM    H5G13246   4.986   2.315   7.136  0.3841 -0.1088  0.6207
  124OSM    C6F13247   5.179   2.257   7.210 -0.3066  0.0694  0.0562
  124OSM    H6F13248   5.183   2.357   7.258 -2.5482  0.8289 -1.1749
  124OSM    H6G13249   5.275   2.212   7.176 -1.1557 -3.1889  1.5590
  124OSM    C7F13250   5.113   2.161   7.315 -0.1639  0.2770  0.0122
  124OSM    H7F13251   5.088   2.063   7.270  3.1970 -1.2653  1.1084
  124OSM    H7G13252   5.025   2.210   7.361 -0.2576 -0.5987  0.7868
  124OSM    C8F13253   5.202   2.127   7.444 -0.3188 -0.6659  0.0798
  124OSM    H8F13254   5.301   2.106   7.398 -1.7929 -0.7189 -3.3768
  124OSM    H8G13255   5.174   2.033   7.496  0.8239 -0.4839  1.0609
  124OSM    C9F13256   5.214   2.242   7.539 -0.2912 -0.0838  0.3534
  124OSM    H9F13257   5.246   2.338   7.495 -0.7492 -1.0112 -2.1791
  124OSM   C10F13258   5.177   2.233   7.670  0.4121  0.1439 -0.1213
  124OSM   H10F13259   5.176   2.317   7.742 -1.6780 -2.8260  3.7558
  124OSM   C11F13260   5.129   2.104   7.730  0.8632 -0.2574 -0.3880
  124OSM   H11F13261   5.200   2.019   7.723 -0.9065 -1.8931  0.8081
  124OSM   H11G13262   5.035   2.070   7.682  0.1361  3.0376 -1.5301
  124OSM   C12F13263   5.099   2.120   7.878 -0.7682  0.3691 -0.2301
  124OSM   H12F13264   5.023   2.048   7.915 -0.5362  0.3905  0.2953
  124OSM   H12G13265   5.056   2.222   7.893  1.7095  1.2837  1.3386
  124OSM   C13F13266   5.224   2.104   7.967  0.9832 -0.5073  0.7132
  124OSM   H13F13267   5.290   2.181   7.921 -0.7015  1.1222  0.9118
  124OSM   H13G13268   5.257   1.998   7.954  0.5264 -0.3277 -3.2607
  124OSM   C14F13269   5.213   2.150   8.108  0.6262  0.1680 -0.1368
  124OSM   H14F13270   5.171   2.252   8.114 -2.0737 -0.7970 -1.1861
  124OSM   H14G13271   5.317   2.150   8.147  1.8148  0.5877 -3.0453
  124OSM   C15F13272   5.122   2.062   8.201 -0.8315 -0.3142 -0.1742
  124OSM   H15F13273   5.182   1.971   8.226  0.0024  0.3299  0.2219
  124OSM   H15G13274   5.028   2.033   8.150 -0.3826  2.2626 -2.7080
  124OSM   C16F13275   5.098   2.136   8.332 -0.0590 -0.4240 -0.1451
  124OSM   H16F13276   5.023   2.217   8.324  1.8533  1.3265 -1.2783
  124OSM   H16G13277   5.195   2.173   8.369 -0.3717  2.8946 -2.2437
  124OSM   C17F13278   5.039   2.036   8.434 -0.7709  0.2840 -0.0550
  124OSM   H17F13279   5.092   1.939   8.427 -0.6187  0.3682 -0.0819
  124OSM   H17G13280   4.944   2.002   8.387 -0.5900 -0.4429  0.0891
  124OSM   C18F13281   5.043   2.075   8.579  0.1017 -0.6558  0.1431
  124OSM   H18F13282   4.953   2.136   8.604  0.9992 -0.0109  1.9253
  124OSM   H18G13283   5.141   2.121   8.601  0.8681 -0.8708 -2.5017
  124OSM   H18H13284   5.025   1.978   8.630 -2.2584 -0.9791 -1.1658
  125OSM      N13285   3.056   2.649   6.178  0.0006 -0.0356  0.0216
  125OSM    C1513286   2.984   2.782   6.179 -0.7362  0.6991  1.2939
  125OSM   H15A13287   3.035   2.847   6.248  0.3574 -0.6008  1.7633
  125OSM   H15B13288   2.885   2.757   6.214 -0.5704  0.7755  1.8289
  125OSM   H15C13289   2.993   2.834   6.085 -0.8984 -0.7898  0.4132
  125OSM    C1413290   3.019   2.567   6.297  0.4418 -0.2403  0.4264
  125OSM   H14A13291   2.914   2.544   6.291 -0.1430  2.4777 -1.2988
  125OSM   H14B13292   3.039   2.615   6.392 -0.3047  0.4705  0.2320
  125OSM   H14C13293   3.079   2.477   6.298 -0.9579 -1.2125 -0.1217
  125OSM    C1313294   3.029   2.573   6.054 -0.1948  0.2731  0.6576
  125OSM   H13A13295   2.925   2.553   6.038 -0.0414 -0.8921  1.0634
  125OSM   H13B13296   3.079   2.477   6.051 -0.9276 -0.0876 -0.3445
  125OSM   H13C13297   3.054   2.633   5.967 -1.0468  1.2803  1.0803
  125OSM    C1213298   3.208   2.674   6.185 -0.5057  0.3066 -0.1408
  125OSM   H12A13299   3.235   2.725   6.094 -1.7387  1.5766  0.1605
  125OSM   H12B13300   3.262   2.581   6.194  0.6069  1.0832  1.8635
  125OSM    C1113301   3.259   2.749   6.311  0.4299 -0.0193  0.2719
  125OSM   H11A13302   3.370   2.754   6.301  0.3362 -1.3097 -2.2715
  125OSM   H11B13303   3.233   2.694   6.404 -4.1602  0.4473 -0.5048
  125OSM      P13304   3.267   2.992   6.226  0.1162  0.5238  0.0998
  125OSM    O1313305   3.340   2.930   6.113 -0.2432 -0.0541 -0.5211
  125OSM    O1413306   3.157   3.080   6.189 -0.3960  0.1970 -0.5582
  125OSM    O1113307   3.361   3.066   6.329  0.1820 -0.1693 -0.1582
  125OSM    O1213308   3.206   2.884   6.322  0.5691  0.6230  0.1423
  125OSM    C1S13309   3.339   3.171   6.417  0.0253 -0.2021 -0.4975
  125OSM    H1S13310   3.263   3.241   6.375 -2.5408 -2.1329  0.7131
  125OSM    H1T13311   3.434   3.227   6.432 -0.1324 -0.1986  0.5492
  125OSM     NF13312   3.260   3.248   6.638  0.4431  0.0745 -0.4170
  125OSM    HNF13313   3.331   3.265   6.706  1.6380 -2.9043 -0.7784
  125OSM    C2S13314   3.292   3.127   6.559  0.7624 -0.6542  0.2945
  125OSM    H2S13315   3.203   3.062   6.547 -0.1210  0.1740  1.9826
  125OSM    C3S13316   3.395   3.031   6.629 -0.9438 -0.3551  0.0260
  125OSM    H3S13317   3.494   3.082   6.635 -0.6502 -0.8933 -0.1339
  125OSM     O313318   3.438   2.931   6.544 -0.3106 -0.0690  0.1246
  125OSM    HO313319   3.405   2.965   6.461 -0.6257  3.1922  1.4353
  125OSM    C4S13320   3.350   2.985   6.771  0.2603  0.0749  0.6442
  125OSM    H4S13321   3.339   3.062   6.849 -0.4682  1.9094 -1.1822
  125OSM    C5S13322   3.320   2.861   6.800 -0.4507 -0.2428 -0.4906
  125OSM    H5S13323   3.331   2.793   6.714  2.5572  0.9451 -1.1720
  125OSM    C6S13324   3.282   2.805   6.936  0.3596 -0.4301 -0.4374
  125OSM    H6S13325   3.349   2.719   6.953  2.0720  0.9918  0.3512
  125OSM    H6T13326   3.178   2.770   6.919 -0.4160  1.0068  0.9746
  125OSM    C7S13327   3.294   2.890   7.062  0.3194 -0.2448 -1.0045
  125OSM    H7S13328   3.221   2.973   7.051 -0.4734 -0.4088  2.2258
  125OSM    H7T13329   3.395   2.934   7.076 -0.1606  0.8542 -0.8472
  125OSM    C8S13330   3.260   2.819   7.194  0.3840  0.7185  0.1323
  125OSM    H8S13331   3.318   2.726   7.214 -2.9054 -0.8922  3.2700
  125OSM    H8T13332   3.160   2.772   7.186  1.3461 -1.5366  0.5021
  125OSM    C9S13333   3.259   2.917   7.314 -0.5029  0.0502 -0.3654
  125OSM    H9S13334   3.199   3.005   7.281 -0.0131  1.1469  1.5101
  125OSM    H9T13335   3.354   2.971   7.333 -0.5335  0.0694 -0.2662
  125OSM   C10S13336   3.197   2.845   7.436 -0.7493  0.5007  0.0786
  125OSM   H10S13337   3.258   2.757   7.464  0.4830  0.6922 -1.8022
  125OSM   H10T13338   3.094   2.820   7.403 -1.1574  1.2174  0.7731
  125OSM   C11S13339   3.187   2.945   7.555  0.7482 -0.0755  0.2797
  125OSM   H11S13340   3.122   3.029   7.524  0.6868 -0.4262 -0.5780
  125OSM   H11T13341   3.287   2.990   7.572  1.2477 -1.4103  1.0006
  125OSM   C12S13342   3.136   2.886   7.685  0.2289 -0.2118  0.2011
  125OSM   H12S13343   3.211   2.814   7.724 -0.2290 -0.6319  0.3204
  125OSM   H12T13344   3.040   2.842   7.651  1.0749 -0.3147 -2.3256
  125OSM   C13S13345   3.116   2.987   7.796  0.1526  0.0872  0.4837
  125OSM   H13S13346   3.047   3.065   7.756 -1.8117 -1.9025 -0.2307
  125OSM   H13T13347   3.211   3.040   7.820  0.3708  0.7404 -1.6282
  125OSM   C14S13348   3.036   2.940   7.922  0.4918 -0.0015  0.5125
  125OSM   H14S13349   3.015   2.833   7.901  1.7855 -0.2849  0.6145
  125OSM   H14T13350   2.936   2.989   7.922  0.2736 -0.3880 -1.3379
  125OSM   C15S13351   3.116   2.960   8.054  0.1141 -0.4907 -0.5191
  125OSM   H15S13352   3.169   3.058   8.066 -3.6424  1.4878  1.9450
  125OSM   H15T13353   3.199   2.887   8.039  0.2050 -0.0050 -2.6722
  125OSM   C16S13354   3.026   2.922   8.178 -0.1629 -0.9775  0.6417
  125OSM   H16S13355   2.931   2.978   8.172 -0.2617 -1.0733  1.2781
  125OSM   H16T13356   3.079   2.955   8.270  1.4467  1.0502 -0.9101
  125OSM   C17S13357   3.006   2.776   8.192  0.6659 -0.3979  0.5526
  125OSM   H17S13358   3.099   2.716   8.191  1.1685  0.2606  2.7623
  125OSM   H17T13359   2.958   2.736   8.100  0.3263  0.3576  0.3945
  125OSM   C18S13360   2.909   2.741   8.313 -0.5430  0.1792  0.6749
  125OSM   H18S13361   2.968   2.725   8.406 -0.5378  2.2062  1.0561
  125OSM   H18T13362   2.869   2.639   8.293 -0.5389 -0.1746  2.2989
  125OSM   H18U13363   2.829   2.814   8.337 -0.6172  0.5161 -0.5300
  125OSM    C1F13364   3.173   3.341   6.593  0.5658  0.3132 -0.0557
  125OSM     OF13365   3.084   3.315   6.514  0.1842  1.2178 -0.2239
  125OSM    C2F13366   3.174   3.472   6.667 -0.3164  0.4981 -0.0455
  125OSM    H2F13367   3.225   3.449   6.763 -2.9892  0.9837  1.5848
  125OSM    H2G13368   3.070   3.502   6.695 -0.0226 -1.0674  3.2807
  125OSM    C3F13369   3.262   3.583   6.613  0.3270 -0.2468 -0.3712
  125OSM    H3F13370   3.224   3.613   6.513  0.1955 -1.8714 -0.8403
  125OSM    H3G13371   3.367   3.550   6.604  0.3316 -0.4718  0.4604
  125OSM    C4F13372   3.273   3.712   6.706 -0.5995  0.1555  0.1560
  125OSM    H4F13373   3.334   3.790   6.654 -0.2350  0.5188  1.1025
  125OSM    H4G13374   3.335   3.694   6.797  0.0436  2.2053  0.1800
  125OSM    C5F13375   3.140   3.768   6.761  0.0253 -0.2560  0.2921
  125OSM    H5F13376   3.089   3.680   6.805 -0.4704 -0.1225 -0.0023
  125OSM    H5G13377   3.082   3.794   6.669  1.2707 -0.5683 -0.6079
  125OSM    C6F13378   3.150   3.895   6.851  0.3144 -0.2750 -0.2472
  125OSM    H6F13379   3.191   3.982   6.795  0.7797 -0.1083  0.3360
  125OSM    H6G13380   3.205   3.858   6.941  0.0045 -1.3652 -0.4923
  125OSM    C7F13381   3.015   3.943   6.899  0.0964  0.1613  0.4701
  125OSM    H7F13382   2.963   3.862   6.954  1.0848  0.6007  2.1478
  125OSM    H7G13383   2.952   3.968   6.812 -0.4544 -2.6130 -0.0089
  125OSM    C8F13384   3.027   4.064   6.987  0.6619 -1.1284 -0.6774
  125OSM    H8F13385   3.096   4.136   6.938 -0.6144  1.0488  0.5275
  125OSM    H8G13386   3.071   4.039   7.086 -0.3649 -2.1340 -0.4594
  125OSM    C9F13387   2.889   4.123   7.006  0.8015 -0.2998  0.0600
  125OSM    H9F13388   2.841   4.199   6.942 -0.3218  1.1778  2.5335
  125OSM   C10F13389   2.813   4.095   7.116 -0.5215  0.4293 -0.4478
  125OSM   H10F13390   2.714   4.143   7.121 -1.1445 -0.7206 -1.0772
  125OSM   C11F13391   2.837   3.999   7.233  1.1078 -0.2243  0.0593
  125OSM   H11F13392   2.947   3.993   7.250  1.5030 -2.9315 -2.4878
  125OSM   H11G13393   2.800   3.897   7.207  0.5915 -0.3205  1.1520
  125OSM   C12F13394   2.777   4.039   7.368 -0.1028  0.5770 -0.0895
  125OSM   H12F13395   2.667   4.050   7.377  0.0155  1.1241  0.8033
  125OSM   H12G13396   2.803   4.143   7.397 -1.7665  1.5111 -1.7609
  125OSM   C13F13397   2.818   3.935   7.477 -0.3400  0.3768 -0.3589
  125OSM   H13F13398   2.928   3.946   7.481 -0.2539 -0.5716  0.1903
  125OSM   H13G13399   2.797   3.828   7.455  0.7090 -0.0560  0.6376
  125OSM   C14F13400   2.788   3.970   7.626 -0.0082 -0.3041  0.5911
  125OSM   H14F13401   2.835   3.887   7.684  0.5127 -0.9001 -0.6529
  125OSM   H14G13402   2.679   3.969   7.646 -0.3691  0.4660 -1.1896
  125OSM   C15F13403   2.846   4.102   7.674 -0.9660  0.4670 -1.2535
  125OSM   H15F13404   2.797   4.190   7.629 -0.8738 -0.0336 -2.3448
  125OSM   H15G13405   2.952   4.113   7.642 -1.4310  1.4411 -2.5239
  125OSM   C16F13406   2.823   4.130   7.832 -0.1341 -0.1972  0.6005
  125OSM   H16F13407   2.874   4.052   7.893  0.5331 -0.6704 -0.5311
  125OSM   H16G13408   2.714   4.119   7.850 -0.0740 -1.3882  0.3568
  125OSM   C17F13409   2.875   4.263   7.882 -0.2872  0.5442  0.1861
  125OSM   H17F13410   2.854   4.343   7.808  0.2236 -0.7758 -1.4403
  125OSM   H17G13411   2.986   4.266   7.885 -0.0620 -3.2953  1.6971
  125OSM   C18F13412   2.819   4.313   8.019 -0.2534  0.2080 -0.4454
  125OSM   H18F13413   2.710   4.333   8.028 -0.1408  0.3072  0.8656
  125OSM   H18G13414   2.859   4.415   8.041 -0.6204  0.2431  0.0980
  125OSM   H18H13415   2.850   4.247   8.102  1.0232  0.2271 -0.8886
  126OSM      N13416   2.387   2.274   6.356  0.1552  0.3317 -0.4035
  126OSM    C1513417   2.510   2.302   6.435  0.1907  0.0475  0.4050
  126OSM   H15A13418   2.484   2.328   6.537  0.8981  1.8593  0.1511
  126OSM   H15B13419   2.571   2.382   6.397 -1.7849  0.7411 -1.4809
  126OSM   H15C13420   2.568   2.211   6.434  0.9364  0.4863 -2.4390
  126OSM    C1413421   2.446   2.228   6.222  0.8153  0.2138  0.2884
  126OSM   H14A13422   2.513   2.146   6.243  2.1651  1.6874  2.0386
  126OSM   H14B13423   2.520   2.300   6.189  1.9738  0.1908  2.6318
  126OSM   H14C13424   2.376   2.215   6.141  1.2547 -0.0526 -0.0531
  126OSM    C1313425   2.312   2.164   6.419 -0.3010  0.3780 -0.9295
  126OSM   H13A13426   2.385   2.093   6.455  0.0184  1.9646  1.8123
  126OSM   H13B13427   2.254   2.117   6.341 -0.1241  0.0346 -0.8564
  126OSM   H13C13428   2.250   2.201   6.499  2.9429 -1.5747  2.8321
  126OSM    C1213429   2.306   2.394   6.357 -0.2131  0.2893  0.1581
  126OSM   H12A13430   2.213   2.378   6.305  0.5197 -0.8418 -0.8444
  126OSM   H12B13431   2.351   2.470   6.295 -0.3959  0.7724  0.6008
  126OSM    C1113432   2.283   2.453   6.497 -0.2517 -0.4061  0.9019
  126OSM   H11A13433   2.376   2.499   6.537 -0.6236  1.3459 -0.1328
  126OSM   H11B13434   2.252   2.377   6.571 -4.7073 -1.6104 -1.8208
  126OSM      P13435   2.028   2.500   6.493 -0.1631 -0.1810 -0.4102
  126OSM    O1313436   1.940   2.619   6.504  0.2996  0.0117  0.2019
  126OSM    O1413437   1.983   2.406   6.389  0.0340  0.4515 -0.6979
  126OSM    O1113438   2.034   2.413   6.628  0.3494  0.2589 -0.0994
  126OSM    O1213439   2.179   2.548   6.481 -0.3830 -0.3329 -0.2593
  126OSM    C1S13440   2.089   2.473   6.749 -0.3058  0.6866 -0.1629
  126OSM    H1S13441   2.028   2.562   6.778 -0.8052  0.4069 -0.3327
  126OSM    H1T13442   2.194   2.503   6.731 -0.9788  1.5249 -3.1995
  126OSM     NF13443   2.132   2.422   6.984 -0.7009 -0.1842 -0.4394
  126OSM    HNF13444   2.223   2.391   7.010 -1.0991 -0.4391  0.7158
  126OSM    C2S13445   2.080   2.368   6.864 -0.2440 -0.4134  0.2234
  126OSM    H2S13446   1.974   2.350   6.889 -0.5657  2.3299  1.1968
  126OSM    C3S13447   2.153   2.241   6.832  0.7706 -0.2694 -0.3797
  126OSM    H3S13448   2.257   2.277   6.814  0.6640 -0.1588 -0.8054
  126OSM     O313449   2.126   2.174   6.705 -1.0567  0.2156  0.2982
  126OSM    HO313450   2.079   2.245   6.661 -0.9169  1.2221  1.7228
  126OSM    C4S13451   2.131   2.138   6.942  0.3739 -0.5604 -0.2810
  126OSM    H4S13452   2.211   2.150   7.017 -0.1558 -2.3093  0.6162
  126OSM    C5S13453   2.049   2.032   6.944  0.0713 -0.1860 -0.3070
  126OSM    H5S13454   1.996   2.023   6.848  0.6195  0.2481 -0.6546
  126OSM    C6S13455   2.035   1.930   7.054  0.4062 -0.1119 -0.3001
  126OSM    H6S13456   2.049   1.831   7.006 -0.9451 -0.6439  0.3459
  126OSM    H6T13457   1.930   1.936   7.090  0.1080  1.2295 -1.3176
  126OSM    C7S13458   2.133   1.929   7.169  0.1628 -0.5705  0.5480
  126OSM    H7S13459   2.131   2.032   7.210 -0.5087  0.6124 -2.1607
  126OSM    H7T13460   2.234   1.896   7.137 -0.1860 -1.2476  0.1165
  126OSM    C8S13461   2.083   1.832   7.277  0.0244  0.1472  0.9425
  126OSM    H8S13462   2.060   1.730   7.241 -1.1124  0.2907  1.2192
  126OSM    H8T13463   1.989   1.872   7.321  0.4827  0.1292  1.9777
  126OSM    C9S13464   2.183   1.823   7.396  0.4949 -0.8147 -0.0458
  126OSM    H9S13465   2.201   1.930   7.418 -0.5007 -0.2784 -1.6323
  126OSM    H9T13466   2.276   1.766   7.375 -0.5585 -1.9600 -1.8280
  126OSM   C10S13467   2.117   1.764   7.523  0.2801  0.4951  0.0774
  126OSM   H10S13468   2.081   1.660   7.507  0.9294  0.1376  0.8682
  126OSM   H10T13469   2.027   1.826   7.542  0.9222  1.0516  1.3572
  126OSM   C11S13470   2.202   1.764   7.649 -0.0399  0.7486  0.7314
  126OSM   H11S13471   2.256   1.861   7.648  0.7140  0.3531  1.6777
  126OSM   H11T13472   2.280   1.686   7.633  0.2141  1.0546  0.4573
  126OSM   C12S13473   2.116   1.743   7.780  0.0655  0.3743  0.8929
  126OSM   H12S13474   2.076   1.639   7.783 -1.4545  0.7465 -2.4149
  126OSM   H12T13475   2.039   1.823   7.784 -2.0343 -1.4026 -1.2899
  126OSM   C13S13476   2.213   1.747   7.903 -0.3696  0.0615 -0.5739
  126OSM   H13S13477   2.260   1.848   7.902  0.2414 -0.1102  2.1290
  126OSM   H13T13478   2.295   1.676   7.878 -2.1756 -2.6292  0.7055
  126OSM   C14S13479   2.154   1.725   8.043  0.1657  0.4367 -0.1873
  126OSM   H14S13480   2.091   1.634   8.048 -0.7497  1.0515 -0.2278
  126OSM   H14T13481   2.079   1.805   8.057 -0.0590  0.2787 -0.4898
  126OSM   C15S13482   2.244   1.711   8.164  0.0586  0.4362 -0.3062
  126OSM   H15S13483   2.322   1.790   8.160  1.0185 -0.5111 -0.6060
  126OSM   H15T13484   2.308   1.621   8.171  0.0029  0.3907 -0.3729
  126OSM   C16S13485   2.177   1.728   8.297 -0.8515 -0.0597  0.8903
  126OSM   H16S13486   2.118   1.822   8.292 -0.3181  0.3277  1.6055
  126OSM   H16T13487   2.251   1.734   8.380  0.3543  1.0682 -0.2257
  126OSM   C17S13488   2.092   1.607   8.335 -0.1726 -0.2331  0.3310
  126OSM   H17S13489   2.162   1.521   8.341 -0.4870 -0.4654  0.6866
  126OSM   H17T13490   2.027   1.583   8.247  0.0494 -0.6873  0.2835
  126OSM   C18S13491   2.016   1.618   8.463  0.1976  0.6327  0.0202
  126OSM   H18S13492   1.945   1.533   8.466  1.6154 -0.5817 -0.1518
  126OSM   H18T13493   1.961   1.715   8.461 -0.2597  0.3615 -0.8568
  126OSM   H18U13494   2.076   1.609   8.556 -1.6088 -3.1757  1.0222
  126OSM    C1F13495   2.065   2.509   7.059 -0.5237  1.1175 -0.9241
  126OSM     OF13496   1.958   2.553   7.019 -0.1652 -0.5250  0.7340
  126OSM    C2F13497   2.123   2.534   7.200 -0.4670  0.0256 -0.0885
  126OSM    H2F13498   2.218   2.590   7.188  0.0884 -1.0748 -1.1125
  126OSM    H2G13499   2.149   2.439   7.250  1.2376  0.8878  0.7342
  126OSM    C3F13500   2.029   2.611   7.302  0.4164  0.5719 -0.3442
  126OSM    H3F13501   1.930   2.563   7.294  0.2649  1.1490 -2.7507
  126OSM    H3G13502   2.008   2.713   7.263 -0.6167  0.4742 -0.0630
  126OSM    C4F13503   2.078   2.623   7.439 -0.3690  0.3018  0.1225
  126OSM    H4F13504   2.127   2.532   7.479  2.0361  0.7886 -1.5148
  126OSM    H4G13505   1.996   2.644   7.510  0.2480  2.6844  0.2269
  126OSM    C5F13506   2.164   2.752   7.467  0.0184  0.3243 -0.1749
  126OSM    H5F13507   2.119   2.837   7.410  0.5894  0.1125 -0.9572
  126OSM    H5G13508   2.265   2.733   7.424 -0.0218  0.5475 -0.3682
  126OSM    C6F13509   2.169   2.778   7.615  0.3261  0.3172 -0.1176
  126OSM    H6F13510   2.078   2.831   7.650  1.7551  1.3295  2.2892
  126OSM    H6G13511   2.253   2.847   7.640  1.3667 -0.9620 -0.0045
  126OSM    C7F13512   2.180   2.656   7.709  0.5896  0.5390 -0.4038
  126OSM    H7F13513   2.273   2.595   7.696  0.8635  0.5939  1.0818
  126OSM    H7G13514   2.094   2.590   7.687 -0.0257  0.1315  2.6501
  126OSM    C8F13515   2.164   2.693   7.862  0.1459 -0.1666  0.2026
  126OSM    H8F13516   2.159   2.595   7.915  0.9135  0.3385  1.2379
  126OSM    H8G13517   2.068   2.747   7.869  0.5613  0.8878 -1.6335
  126OSM    C9F13518   2.272   2.769   7.925 -0.2923  0.2413  0.6282
  126OSM    H9F13519   2.359   2.789   7.859  0.0543 -0.1794  0.9520
  126OSM   C10F13520   2.270   2.837   8.045 -0.3522 -0.3297 -0.3326
  126OSM   H10F13521   2.359   2.882   8.089 -0.3763 -0.1753 -0.4402
  126OSM   C11F13522   2.145   2.843   8.137 -0.4268 -0.1870  0.1343
  126OSM   H11F13523   2.056   2.805   8.083  0.8259 -3.2712  0.0340
  126OSM   H11G13524   2.128   2.944   8.180 -1.2692 -1.3030  2.5792
  126OSM   C12F13525   2.192   2.754   8.255  0.7156  0.2976 -0.8135
  126OSM   H12F13526   2.212   2.647   8.233  1.8489  0.1637  0.7245
  126OSM   H12G13527   2.098   2.741   8.313 -0.1586 -0.4517 -2.3299
  126OSM   C13F13528   2.297   2.820   8.347 -0.3962 -0.4552  0.2051
  126OSM   H13F13529   2.269   2.927   8.352  1.4086  0.0641 -0.1144
  126OSM   H13G13530   2.402   2.813   8.311 -0.0938  0.0068  0.9865
  126OSM   C14F13531   2.291   2.770   8.490  0.3895 -0.4620 -0.4459
  126OSM   H14F13532   2.187   2.747   8.524  0.6066 -2.5430 -1.0262
  126OSM   H14G13533   2.330   2.842   8.565  0.1835 -1.8498  1.0606
  126OSM   C15F13534   2.376   2.644   8.511 -0.1185 -0.2179  0.5576
  126OSM   H15F13535   2.470   2.650   8.453 -0.4198 -0.6636  0.0168
  126OSM   H15G13536   2.316   2.562   8.467 -2.5064  1.3733  0.6447
  126OSM   C16F13537   2.390   2.614   8.662 -0.3427 -0.1455  0.2865
  126OSM   H16F13538   2.295   2.605   8.718 -0.0981 -3.3875  0.3717
  126OSM   H16G13539   2.454   2.692   8.710 -2.3531  1.1303  1.0221
  126OSM   C17F13540   2.462   2.483   8.700  0.0853  0.2054 -0.1890
  126OSM   H17F13541   2.407   2.403   8.646 -1.4250  1.1085 -0.0648
  126OSM   H17G13542   2.447   2.469   8.809  0.5909  0.0065 -0.1443
  126OSM   C18F13543   2.611   2.488   8.670  0.1817  0.2840 -0.3374
  126OSM   H18F13544   2.660   2.401   8.719 -0.5340  0.6749  1.1413
  126OSM   H18G13545   2.665   2.573   8.718  0.8760 -1.5086  2.2744
  126OSM   H18H13546   2.627   2.478   8.561  0.3881  3.0820 -0.6346
  127OSM      N13547   3.115   0.887   6.174  0.0157 -0.3592  0.5737
  127OSM    C1513548   2.972   0.922   6.139  0.6899 -0.2194  0.3417
  127OSM   H15A13549   2.913   0.945   6.227  2.2283  1.3330  1.0199
  127OSM   H15B13550   2.920   0.839   6.094  0.9170  0.5238 -1.3817
  127OSM   H15C13551   2.972   1.014   6.083 -1.5702  0.1825  0.9021
  127OSM    C1413552   3.168   0.999   6.252  1.3064 -0.8674  0.7285
  127OSM   H14A13553   3.157   1.093   6.199 -1.6493 -1.3241  0.3423
  127OSM   H14B13554   3.273   0.993   6.278  0.5032 -1.1474  4.3478
  127OSM   H14C13555   3.107   1.013   6.340  0.5204  1.3048 -0.0827
  127OSM    C1313556   3.112   0.766   6.271  0.0917 -0.0481 -0.0179
  127OSM   H13A13557   3.207   0.730   6.308 -0.6180 -1.4717  0.5054
  127OSM   H13B13558   3.064   0.684   6.219 -1.0952 -0.2087  1.2792
  127OSM   H13C13559   3.044   0.792   6.351 -0.9798 -2.8856  0.1247
  127OSM    C1213560   3.197   0.852   6.051 -1.6030  0.4258 -0.5253
  127OSM   H12A13561   3.212   0.938   5.987 -0.3923  0.3988 -0.3020
  127OSM   H12B13562   3.136   0.784   5.993 -0.3608 -2.1543  1.0276
  127OSM    C1113563   3.348   0.803   6.058 -0.6252 -0.3630  0.4945
  127OSM   H11A13564   3.404   0.889   6.100 -0.3288  0.0181 -0.6383
  127OSM   H11B13565   3.391   0.779   5.958  1.1260 -3.4986  1.8337
  127OSM      P13566   3.330   0.533   6.079  0.3900  0.2995  0.1320
  127OSM    O1313567   3.188   0.524   6.049  0.2077 -0.6917  0.3957
  127OSM    O1413568   3.428   0.503   5.973  0.1896  0.0844  0.0644
  127OSM    O1113569   3.364   0.437   6.196  0.7504  0.4904 -0.7531
  127OSM    O1213570   3.360   0.681   6.130  0.7344 -0.2292 -0.3309
  127OSM    C1S13571   3.441   0.468   6.312 -0.3785  0.3922  0.7360
  127OSM    H1S13572   3.441   0.577   6.329  0.3768  0.2762  1.5744
  127OSM    H1T13573   3.542   0.427   6.287 -0.0595  1.0275  0.9677
  127OSM     NF13574   3.450   0.453   6.565 -0.2092  0.1212 -0.7115
  127OSM    HNF13575   3.509   0.389   6.613 -1.5973  0.3399  1.4436
  127OSM    C2S13576   3.384   0.400   6.446 -0.1498  0.6826  0.1203
  127OSM    H2S13577   3.276   0.424   6.445 -0.6087 -1.0551 -2.4964
  127OSM    C3S13578   3.403   0.253   6.434 -0.0109 -0.0161 -0.2626
  127OSM    H3S13579   3.512   0.234   6.446 -0.3402 -1.1672  1.2439
  127OSM     O313580   3.367   0.193   6.307 -0.1302  0.0138  0.0730
  127OSM    HO313581   3.356   0.269   6.250  2.8814  0.5190  0.0431
  127OSM    C4S13582   3.334   0.187   6.561 -0.7391  0.9109 -0.6497
  127OSM    H4S13583   3.392   0.191   6.654 -0.5173 -2.0908 -0.5637
  127OSM    C5S13584   3.219   0.117   6.557 -0.0210  0.7960 -0.1238
  127OSM    H5S13585   3.160   0.094   6.467  0.2129  0.9485 -0.3169
  127OSM    C6S13586   3.154   0.055   6.685  0.3139 -0.3943  0.1527
  127OSM    H6S13587   3.058   0.099   6.720  0.1454  0.8592 -1.7463
  127OSM    H6T13588   3.222   0.066   6.773  0.4098 -1.2322  0.1900
  127OSM    C7S13589   3.137  -0.098   6.684  0.3580  0.0007 -0.5553
  127OSM    H7S13590   3.229  -0.141   6.639  1.4593  1.5050  0.1988
  127OSM    H7T13591   3.063  -0.116   6.602 -0.7522  3.6130 -0.4975
  127OSM    C8S13592   3.095  -0.155   6.819  0.1906 -0.0394 -0.1718
  127OSM    H8S13593   3.073  -0.260   6.791 -1.9157  0.3553 -0.1497
  127OSM    H8T13594   3.000  -0.114   6.859  0.1972  0.1971 -0.3949
  127OSM    C9S13595   3.203  -0.154   6.923 -1.0276  0.3470  0.1520
  127OSM    H9S13596   3.204  -0.060   6.982 -1.2584 -1.0600  2.5288
  127OSM    H9T13597   3.306  -0.165   6.882 -1.0741 -0.5475  0.2575
  127OSM   C10S13598   3.210  -0.275   7.028 -0.6143 -0.3112  0.0301
  127OSM   H10S13599   3.312  -0.266   7.071 -0.5120  1.5288 -0.4912
  127OSM   H10T13600   3.214  -0.375   6.980  1.3463  0.5849 -1.8632
  127OSM   C11S13601   3.107  -0.252   7.136 -0.2423 -0.1080 -0.1919
  127OSM   H11S13602   3.007  -0.282   7.100  0.3457 -0.9865 -1.1634
  127OSM   H11T13603   3.109  -0.142   7.153  0.1472  0.0238 -1.0318
  127OSM   C12S13604   3.117  -0.326   7.268 -0.1762  0.1494 -0.2564
  127OSM   H12S13605   3.148  -0.433   7.256  1.9207  0.6633  0.1287
  127OSM   H12T13606   3.019  -0.307   7.316 -0.1736  1.9849 -0.8913
  127OSM   C13S13607   3.216  -0.249   7.359 -0.2128  0.2139  0.9989
  127OSM   H13S13608   3.179  -0.147   7.382  0.7663  0.4627  1.5228
  127OSM   H13T13609   3.315  -0.236   7.311 -0.6588  0.0031 -0.0145
  127OSM   C14S13610   3.236  -0.307   7.494 -0.4447 -0.1022 -0.4366
  127OSM   H14S13611   3.289  -0.404   7.497 -0.8749 -0.3306 -0.0276
  127OSM   H14T13612   3.136  -0.341   7.528 -0.1516  0.8429  1.5158
  127OSM   C15S13613   3.271  -0.198   7.596  0.5253 -0.0457 -0.5229
  127OSM   H15S13614   3.199  -0.115   7.582 -0.1018 -0.6243 -0.7562
  127OSM   H15T13615   3.370  -0.152   7.579  0.9675 -0.3420  1.0381
  127OSM   C16S13616   3.277  -0.243   7.741  0.2700 -0.6443  0.3109
  127OSM   H16S13617   3.300  -0.161   7.812 -0.6078 -0.7489  0.7239
  127OSM   H16T13618   3.360  -0.316   7.753 -1.3894 -2.5337  0.9075
  127OSM   C17S13619   3.157  -0.318   7.795 -0.9012  0.8347 -0.3230
  127OSM   H17S13620   3.124  -0.401   7.730  0.6759 -2.3321  2.6284
  127OSM   H17T13621   3.065  -0.256   7.793 -1.6434 -0.2247 -2.6298
  127OSM   C18S13622   3.181  -0.379   7.936  0.0181 -0.3013  0.1647
  127OSM   H18S13623   3.204  -0.310   8.021 -3.1536  0.1881  0.7361
  127OSM   H18T13624   3.267  -0.449   7.928  1.5084  1.1488  2.2423
  127OSM   H18U13625   3.092  -0.438   7.964  0.3747 -1.5188 -1.1721
  127OSM    C1F13626   3.441   0.581   6.600  1.0070 -0.5594 -0.6377
  127OSM     OF13627   3.370   0.665   6.540  0.3291  0.1452  0.1912
  127OSM    C2F13628   3.516   0.624   6.719 -0.5214  0.7818 -0.5640
  127OSM    H2F13629   3.569   0.720   6.702 -0.2617  0.4258 -1.9012
  127OSM    H2G13630   3.594   0.547   6.738 -1.2058  0.3462  0.5463
  127OSM    C3F13631   3.431   0.632   6.851  0.3640  0.0465 -0.5895
  127OSM    H3F13632   3.353   0.553   6.859  0.2490  0.2074 -0.0755
  127OSM    H3G13633   3.374   0.726   6.834 -3.3481 -1.5656  1.6725
  127OSM    C4F13634   3.537   0.642   6.976  0.0423  1.0117 -0.5398
  127OSM    H4F13635   3.610   0.721   6.950  0.5550  1.1844  1.2794
  127OSM    H4G13636   3.593   0.546   6.988  1.0683  1.6139 -0.3785
  127OSM    C5F13637   3.479   0.678   7.116  0.0171  0.2495  0.2391
  127OSM    H5F13638   3.394   0.609   7.137 -1.8969  2.0467 -1.2368
  127OSM    H5G13639   3.440   0.781   7.102 -1.8291 -0.2547  1.3499
  127OSM    C6F13640   3.585   0.669   7.231  0.0743 -0.8410  0.3390
  127OSM    H6F13641   3.535   0.716   7.318  2.3024 -0.0089  1.2485
  127OSM    H6G13642   3.678   0.727   7.212 -0.0541 -0.2396  1.4445
  127OSM    C7F13643   3.624   0.526   7.272  0.2151  0.2049  0.6866
  127OSM    H7F13644   3.672   0.483   7.182 -2.0332 -0.7156 -0.1375
  127OSM    H7G13645   3.532   0.466   7.287  0.9791 -1.4313 -0.8153
  127OSM    C8F13646   3.720   0.512   7.391 -0.0890 -0.7325  0.0764
  127OSM    H8F13647   3.818   0.550   7.358  0.4198 -2.9475 -1.1899
  127OSM    H8G13648   3.739   0.403   7.407 -1.3220 -1.2500 -1.6163
  127OSM    C9F13649   3.693   0.570   7.534  0.9463 -0.0664  0.0123
  127OSM    H9F13650   3.636   0.663   7.535 -1.2314 -1.3236 -0.2373
  127OSM   C10F13651   3.702   0.499   7.653  0.1691  0.1226 -0.1195
  127OSM   H10F13652   3.674   0.558   7.742  0.8769  1.0204 -0.4764
  127OSM   C11F13653   3.756   0.351   7.670  0.2111  0.1382  0.2404
  127OSM   H11F13654   3.836   0.328   7.597 -0.4931 -2.3520  0.1572
  127OSM   H11G13655   3.665   0.289   7.655 -0.8441  1.9204 -1.2002
  127OSM   C12F13656   3.805   0.328   7.814  0.0966  0.1128  0.1826
  127OSM   H12F13657   3.847   0.225   7.811 -0.0123  0.0830 -0.6269
  127OSM   H12G13658   3.714   0.336   7.877  0.9324  0.4157  1.3856
  127OSM   C13F13659   3.910   0.425   7.864  0.2073  0.0590  0.2160
  127OSM   H13F13660   3.956   0.474   7.775  0.3026 -0.1787  0.1346
  127OSM   H13G13661   3.990   0.369   7.917 -0.6816 -0.3407  1.1619
  127OSM   C14F13662   3.863   0.546   7.954  0.2241  0.4198 -0.5343
  127OSM   H14F13663   3.792   0.602   7.890 -0.6642 -1.1459 -0.9728
  127OSM   H14G13664   3.945   0.616   7.982  0.6959 -1.2749  2.9000
  127OSM   C15F13665   3.807   0.504   8.089  0.0859 -0.4575 -0.4338
  127OSM   H15F13666   3.887   0.458   8.151 -1.4980 -1.0826  1.2151
  127OSM   H15G13667   3.736   0.420   8.076 -0.2646 -0.6092  2.0700
  127OSM   C16F13668   3.759   0.622   8.165 -0.3214  0.7745 -0.0993
  127OSM   H16F13669   3.838   0.700   8.165  1.3205 -0.8207  0.7175
  127OSM   H16G13670   3.734   0.594   8.270 -1.9696  1.4508 -0.2704
  127OSM   C17F13671   3.628   0.681   8.105 -0.4676  0.1717  0.4402
  127OSM   H17F13672   3.642   0.728   8.005 -0.7321 -0.8651 -0.0970
  127OSM   H17G13673   3.611   0.768   8.171  0.2738 -1.1619  2.4686
  127OSM   C18F13674   3.499   0.590   8.094  0.1501  0.2338 -0.3940
  127OSM   H18F13675   3.525   0.486   8.064 -2.3939 -0.6864  0.3084
  127OSM   H18G13676   3.419   0.636   8.032  0.0259 -1.3784 -1.4963
  127OSM   H18H13677   3.468   0.580   8.200 -0.7706  0.2731 -0.6497
  128OSM      N13678   5.663   5.131   5.918 -0.6240 -0.0847  0.1666
  128OSM    C1513679   5.679   5.019   5.824 -0.2647  0.7581 -0.8273
  128OSM   H15A13680   5.597   4.948   5.830 -0.3225  0.9314  0.7819
  128OSM   H15B13681   5.769   4.960   5.835 -0.1098  1.0703 -0.4089
  128OSM   H15C13682   5.686   5.053   5.722 -0.6497  1.8025 -0.5157
  128OSM    C1413683   5.791   5.184   5.975  0.1069  0.4080 -0.2436
  128OSM   H14A13684   5.867   5.208   5.902  0.4638  1.7451  0.5263
  128OSM   H14B13685   5.830   5.113   6.046  2.6370  2.9090  1.0442
  128OSM   H14C13686   5.777   5.272   6.036  2.2277  0.0876  0.7997
  128OSM    C1313687   5.608   5.248   5.842  1.2484 -0.8057  0.4530
  128OSM   H13A13688   5.608   5.344   5.892  3.5082 -0.8608  0.6425
  128OSM   H13B13689   5.505   5.229   5.813  0.7591  1.4524  0.5595
  128OSM   H13C13690   5.666   5.257   5.752  0.8167 -3.0825 -0.1305
  128OSM    C1213691   5.564   5.094   6.023  0.4727 -0.1672 -0.7999
  128OSM   H12A13692   5.467   5.070   5.981 -0.4732 -1.6726  1.9473
  128OSM   H12B13693   5.546   5.185   6.079  1.1336 -0.6350  0.2098
  128OSM    C1113694   5.583   4.965   6.113  0.5581 -0.1535 -0.4713
  128OSM   H11A13695   5.520   4.984   6.203 -3.1050  1.1623 -3.0438
  128OSM   H11B13696   5.688   4.958   6.149 -0.3954  0.6306  2.8120
  128OSM      P13697   5.397   4.796   6.034  0.0140  0.2267 -0.1170
  128OSM    O1313698   5.339   4.898   5.937  0.4974  0.0568 -0.0917
  128OSM    O1413699   5.391   4.647   5.994 -0.2909 -0.4381  0.4426
  128OSM    O1113700   5.331   4.802   6.178 -0.2724  0.6432 -0.0022
  128OSM    O1213701   5.546   4.841   6.054 -0.3871 -0.0121 -0.5921
  128OSM    C1S13702   5.392   4.761   6.298  0.2272  0.1889 -0.4925
  128OSM    H1S13703   5.445   4.847   6.344  0.5750 -0.9508  1.3541
  128OSM    H1T13704   5.456   4.674   6.275 -1.0711 -0.2977 -2.5018
  128OSM     NF13705   5.369   4.652   6.523  0.0271 -0.5769  1.5780
  128OSM    HNF13706   5.374   4.554   6.540  2.0739 -0.6093  1.0336
  128OSM    C2S13707   5.294   4.712   6.411 -0.1784 -0.1227  0.5157
  128OSM    H2S13708   5.248   4.807   6.445  2.3593  1.0179  0.9818
  128OSM    C3S13709   5.181   4.627   6.353  0.4712  0.0653  0.4527
  128OSM    H3S13710   5.221   4.528   6.323  0.4527 -0.6013  2.5237
  128OSM     O313711   5.115   4.686   6.234 -0.6764  0.2263 -0.7793
  128OSM    HO313712   5.180   4.752   6.208 -0.4250  0.8653  1.3122
  128OSM    C4S13713   5.067   4.590   6.446 -0.0483 -0.4851 -0.5489
  128OSM    H4S13714   4.990   4.666   6.468  1.4802  0.8144  0.5138
  128OSM    C5S13715   5.045   4.466   6.489  0.2084 -0.2415  0.0524
  128OSM    H5S13716   5.108   4.383   6.455 -2.1814 -1.8503 -0.7380
  128OSM    C6S13717   4.933   4.437   6.585  0.6303  0.4756  0.2724
  128OSM    H6S13718   4.966   4.391   6.680  0.9559 -1.0940 -0.5695
  128OSM    H6T13719   4.867   4.354   6.551 -0.7985  0.7633  2.1585
  128OSM    C7S13720   4.844   4.558   6.626 -0.1576  0.5214  0.1924
  128OSM    H7S13721   4.783   4.584   6.537 -0.0057 -1.2303 -0.4719
  128OSM    H7T13722   4.897   4.648   6.664 -1.3568  1.0407  0.6667
  128OSM    C8S13723   4.747   4.525   6.744  0.2483 -0.0588 -0.3287
  128OSM    H8S13724   4.699   4.426   6.730 -1.6018  0.3385  2.3664
  128OSM    H8T13725   4.667   4.601   6.762  0.4378  0.4939 -1.6417
  128OSM    C9S13726   4.819   4.527   6.877 -0.0907 -0.1421 -1.0381
  128OSM    H9S13727   4.860   4.629   6.897  0.5619 -0.6744  0.5426
  128OSM    H9T13728   4.900   4.451   6.869 -0.8850 -1.0130 -0.8420
  128OSM   C10S13729   4.735   4.490   7.003 -0.1068 -0.3438  0.2377
  128OSM   H10S13730   4.704   4.383   6.997 -2.8444  0.2545  1.8322
  128OSM   H10T13731   4.637   4.542   6.993  0.4956  1.0427  1.3036
  128OSM   C11S13732   4.787   4.525   7.139 -0.0777 -0.3059  0.2784
  128OSM   H11S13733   4.779   4.636   7.142  0.0108 -0.2850 -0.1987
  128OSM   H11T13734   4.895   4.509   7.159 -0.2399 -2.0055 -0.0311
  128OSM   C12S13735   4.716   4.462   7.257 -0.1727  0.9307 -0.2413
  128OSM   H12S13736   4.718   4.352   7.242  1.0466  0.8595  0.3759
  128OSM   H12T13737   4.607   4.486   7.255 -0.6772 -1.2144 -1.5157
  128OSM   C13S13738   4.792   4.499   7.392  0.5497  0.1911  0.0535
  128OSM   H13S13739   4.796   4.610   7.387 -1.5395  0.5539  3.5996
  128OSM   H13T13740   4.887   4.443   7.380 -0.6932 -2.4200  1.4667
  128OSM   C14S13741   4.725   4.454   7.528  0.0675  0.6169  0.1272
  128OSM   H14S13742   4.728   4.344   7.543 -2.3449  0.4041 -0.6020
  128OSM   H14T13743   4.619   4.484   7.518 -0.1463 -0.3414 -0.5132
  128OSM   C15S13744   4.767   4.511   7.663 -0.6368 -0.4471 -0.1836
  128OSM   H15S13745   4.690   4.490   7.741 -0.4158  0.0727  0.1820
  128OSM   H15T13746   4.769   4.622   7.651  1.4073 -0.2331  1.4843
  128OSM   C16S13747   4.910   4.472   7.711 -0.2949 -0.0334 -0.6667
  128OSM   H16S13748   4.992   4.487   7.638  0.4363 -0.0299  0.1411
  128OSM   H16T13749   4.913   4.362   7.727  1.0448 -0.3599 -2.7870
  128OSM   C17S13750   4.958   4.545   7.843 -0.0554  0.6578 -0.0519
  128OSM   H17S13751   4.965   4.653   7.819  0.8688  0.2998 -1.5353
  128OSM   H17T13752   5.058   4.506   7.871 -0.8667 -0.6546  1.1574
  128OSM   C18S13753   4.867   4.515   7.958  0.2741 -0.5732 -0.2773
  128OSM   H18S13754   4.905   4.569   8.048 -1.7748 -1.4764  1.2103
  128OSM   H18T13755   4.884   4.409   7.987  2.8355  0.3956  2.3558
  128OSM   H18U13756   4.757   4.516   7.941  0.1131 -1.2950  0.6260
  128OSM    C1F13757   5.445   4.729   6.601  0.7300 -0.3476  0.0159
  128OSM     OF13758   5.443   4.853   6.586 -0.3042  0.3461  0.1188
  128OSM    C2F13759   5.535   4.661   6.698 -1.0104  0.3628  1.0086
  128OSM    H2F13760   5.573   4.567   6.653 -0.2040  0.4840  1.4263
  128OSM    H2G13761   5.482   4.630   6.791 -0.4303 -1.5891  0.7319
  128OSM    C3F13762   5.664   4.734   6.743  0.1785 -0.3253 -0.3516
  128OSM    H3F13763   5.641   4.833   6.787  3.0167  1.1034 -1.8511
  128OSM    H3G13764   5.725   4.750   6.652 -0.2610 -1.6691 -0.9051
  128OSM    C4F13765   5.729   4.652   6.857  0.2100  0.2952  0.7404
  128OSM    H4F13766   5.838   4.672   6.863  0.0897  0.7368  1.6101
  128OSM    H4G13767   5.723   4.546   6.825 -0.0091  0.9071 -1.3542
  128OSM    C5F13768   5.670   4.679   6.993  0.6159  0.6784 -0.9477
  128OSM    H5F13769   5.565   4.711   6.976  0.0308 -0.5422  0.1929
  128OSM    H5G13770   5.728   4.762   7.040 -0.3980  1.2051 -0.5762
  128OSM    C6F13771   5.666   4.559   7.095 -0.6389 -0.0104 -0.5574
  128OSM    H6F13772   5.771   4.526   7.113 -1.8102 -3.2230  1.2499
  128OSM    H6G13773   5.620   4.473   7.040 -0.2082 -0.5377 -0.1082
  128OSM    C7F13774   5.599   4.584   7.230 -0.2847 -0.2159 -0.0005
  128OSM    H7F13775   5.492   4.602   7.211 -0.1167 -0.5538 -1.3526
  128OSM    H7G13776   5.639   4.677   7.276 -2.5518  2.5564 -3.1840
  128OSM    C8F13777   5.600   4.461   7.331 -0.4734 -0.6635 -0.1837
  128OSM    H8F13778   5.540   4.381   7.283 -0.4646 -0.6394 -0.2346
  128OSM    H8G13779   5.535   4.498   7.414 -1.0361  0.4966 -1.1238
  128OSM    C9F13780   5.737   4.422   7.384 -0.9813  0.4038 -0.9303
  128OSM    H9F13781   5.773   4.336   7.326  1.2678  0.1635  0.7165
  128OSM   C10F13782   5.814   4.473   7.486  0.1716 -0.0626 -0.1535
  128OSM   H10F13783   5.916   4.434   7.498  0.2964  0.0300 -0.8606
  128OSM   C11F13784   5.769   4.587   7.574 -0.3481 -0.0527  1.2535
  128OSM   H11F13785   5.659   4.597   7.576 -0.2295  3.7263 -1.3657
  128OSM   H11G13786   5.819   4.676   7.530  2.2641 -2.4762 -1.1099
  128OSM   C12F13787   5.833   4.564   7.714 -0.0462  0.4556 -0.3670
  128OSM   H12F13788   5.813   4.654   7.778  1.2424  0.8283 -0.4646
  128OSM   H12G13789   5.942   4.546   7.704  0.4288  0.5626  3.1113
  128OSM   C13F13790   5.770   4.446   7.784 -0.9010  0.0940 -0.3058
  128OSM   H13F13791   5.790   4.353   7.725 -1.6963 -0.0332 -0.3809
  128OSM   H13G13792   5.662   4.471   7.789 -0.5369  1.6458  0.5267
  128OSM   C14F13793   5.816   4.425   7.924 -0.2332 -0.2394  0.4696
  128OSM   H14F13794   5.816   4.520   7.982 -1.5904 -0.3536  0.6769
  128OSM   H14G13795   5.926   4.407   7.929  0.0081  0.5621 -1.1586
  128OSM   C15F13796   5.748   4.317   8.008  0.4871 -0.0661  0.0731
  128OSM   H15F13797   5.755   4.219   7.956  2.2290 -0.7317  1.4278
  128OSM   H15G13798   5.641   4.340   8.023 -0.1678 -1.4734 -1.9839
  128OSM   C16F13799   5.807   4.276   8.139 -0.2048  0.1882  0.2624
  128OSM   H16F13800   5.896   4.212   8.124  0.6347  1.3873 -0.0460
  128OSM   H16G13801   5.731   4.213   8.190 -2.5775  0.6963 -2.3809
  128OSM   C17F13802   5.842   4.398   8.228 -0.9708  0.1046  0.3598
  128OSM   H17F13803   5.929   4.452   8.185 -0.8548 -0.0317  0.4244
  128OSM   H17G13804   5.883   4.364   8.325 -0.4262 -0.8117 -0.1720
  128OSM   C18F13805   5.723   4.482   8.260  0.0373  1.0129  0.0467
  128OSM   H18F13806   5.751   4.573   8.318 -2.1143  1.9555 -0.3170
  128OSM   H18G13807   5.651   4.424   8.322  1.8044 -0.2507  1.0292
  128OSM   H18H13808   5.676   4.509   8.163 -0.4796  0.8435  0.2486
  129OSM      N13809   2.275   0.816   6.108 -0.9045 -0.0795  0.0897
  129OSM    C1513810   2.371   0.916   6.052  0.1060  0.1657 -0.0329
  129OSM   H15A13811   2.408   0.974   6.136  1.4423 -2.5564  1.4060
  129OSM   H15B13812   2.323   0.965   5.969  2.1209  0.5282 -1.0571
  129OSM   H15C13813   2.460   0.866   6.014  1.1315  1.6864  0.2797
  129OSM    C1413814   2.148   0.876   6.141  0.3424 -0.2667  0.3160
  129OSM   H14A13815   2.106   0.812   6.218 -0.4296  0.4568  0.5151
  129OSM   H14B13816   2.080   0.884   6.058  0.5656 -0.6738  0.0922
  129OSM   H14C13817   2.144   0.971   6.193 -1.5982  0.2155 -0.6215
  129OSM    C1313818   2.243   0.725   5.991 -0.0454 -0.1494  0.1292
  129OSM   H13A13819   2.172   0.648   6.017 -1.4279  0.7767 -0.7234
  129OSM   H13B13820   2.338   0.686   5.958  0.1836  0.3727  0.1570
  129OSM   H13C13821   2.185   0.778   5.916  1.2425  2.1518  0.6753
  129OSM    C1213822   2.334   0.737   6.223  0.4545 -0.4029 -0.1143
  129OSM   H12A13823   2.418   0.674   6.197 -0.7889 -2.0451 -0.2883
  129OSM   H12B13824   2.265   0.658   6.248  0.7566 -1.1629 -1.5912
  129OSM    C1113825   2.388   0.820   6.353  0.0186 -0.0687 -0.0060
  129OSM   H11A13826   2.434   0.745   6.422 -0.1763  0.8116  1.1094
  129OSM   H11B13827   2.303   0.874   6.400 -0.1731  0.6453 -1.1374
  129OSM      P13828   2.635   0.885   6.291  0.4583  0.2744  0.1683
  129OSM    O1313829   2.637   0.760   6.221  0.1813  0.0259  0.3239
  129OSM    O1413830   2.695   1.005   6.227  0.2658 -0.5526 -0.5766
  129OSM    O1113831   2.693   0.869   6.433 -0.1558 -0.6872  0.5932
  129OSM    O1213832   2.486   0.922   6.329 -0.0791 -0.0730 -0.0361
  129OSM    C1S13833   2.695   0.990   6.517  0.2918  0.6451  0.3248
  129OSM    H1S13834   2.595   1.025   6.550 -0.8925 -2.3060  0.0953
  129OSM    H1T13835   2.757   1.069   6.469 -1.1276  1.2218 -0.6356
  129OSM     NF13836   2.770   1.063   6.743  0.3691 -0.4324  0.1180
  129OSM    HNF13837   2.858   1.105   6.762 -0.3786  1.1741  0.1817
  129OSM    C2S13838   2.771   0.956   6.645 -0.7339  0.6319 -0.6120
  129OSM    H2S13839   2.712   0.880   6.701 -4.4373  2.6717 -1.4357
  129OSM    C3S13840   2.918   0.902   6.611 -0.2679  0.2528 -0.5869
  129OSM    H3S13841   2.981   0.984   6.570  0.2284 -0.5609 -1.5071
  129OSM     O313842   2.931   0.804   6.505  0.4453 -0.1963 -0.0531
  129OSM    HO313843   2.837   0.797   6.487  0.5439 -0.2664 -0.5463
  129OSM    C4S13844   2.970   0.843   6.737  0.0112 -0.6066 -0.1985
  129OSM    H4S13845   2.934   0.740   6.751 -1.2821 -0.4475 -1.9611
  129OSM    C5S13846   3.049   0.896   6.827 -0.1215 -0.2111  0.1551
  129OSM    H5S13847   3.085   0.998   6.810  0.0766 -0.4227 -0.7719
  129OSM    C6S13848   3.088   0.831   6.952 -0.1537 -0.4291  0.0854
  129OSM    H6S13849   3.195   0.799   6.956 -0.0254  0.1201  2.3774
  129OSM    H6T13850   3.036   0.734   6.969 -1.5953  0.4262  0.7044
  129OSM    C7S13851   3.068   0.907   7.080  0.4439  0.0884  0.0463
  129OSM    H7S13852   2.960   0.921   7.100  1.0360  3.6296  1.5214
  129OSM    H7T13853   3.116   1.006   7.064 -0.3484  0.9020  2.3913
  129OSM    C8S13854   3.124   0.850   7.214  0.3998 -0.4785 -1.0502
  129OSM    H8S13855   3.234   0.864   7.204  0.2083  1.0271 -1.2426
  129OSM    H8T13856   3.103   0.742   7.203 -2.1961 -0.0987 -0.4401
  129OSM    C9S13857   3.059   0.913   7.341 -0.2035  0.6567  0.5442
  129OSM    H9S13858   3.108   0.867   7.430  1.0804 -0.2199 -0.5622
  129OSM    H9T13859   2.949   0.901   7.350  0.0625 -1.6345  1.6538
  129OSM   C10S13860   3.076   1.071   7.353  0.1427 -0.2004 -0.1947
  129OSM   H10S13861   3.019   1.119   7.271  1.0657  0.3429 -0.5233
  129OSM   H10T13862   3.181   1.102   7.335  0.0475  0.2158 -0.0525
  129OSM   C11S13863   3.011   1.121   7.480 -0.2519  0.5131 -0.0443
  129OSM   H11S13864   3.076   1.098   7.567  1.9973 -2.5586 -2.3081
  129OSM   H11T13865   2.924   1.054   7.496  0.8327 -1.1928 -0.9613
  129OSM   C12S13866   2.978   1.273   7.504  0.5954  0.8224  0.2503
  129OSM   H12S13867   2.946   1.330   7.415 -1.3880  2.4593  1.9121
  129OSM   H12T13868   3.060   1.330   7.553  1.4650  1.5301 -1.9228
  129OSM   C13S13869   2.852   1.282   7.598 -0.0902  0.5290  0.2549
  129OSM   H13S13870   2.872   1.234   7.697 -0.7769 -3.7141 -1.4657
  129OSM   H13T13871   2.763   1.227   7.563  0.2479 -0.6213  1.1106
  129OSM   C14S13872   2.815   1.426   7.629  0.8164 -0.1384 -0.2483
  129OSM   H14S13873   2.906   1.486   7.651  0.6182  0.3084 -0.6292
  129OSM   H14T13874   2.753   1.421   7.721  2.1402 -0.5663  0.6515
  129OSM   C15S13875   2.739   1.503   7.513  0.1395  0.4198  0.1445
  129OSM   H15S13876   2.794   1.490   7.418  1.1745 -0.3627  0.8314
  129OSM   H15T13877   2.745   1.608   7.548  1.4320  0.0489  1.1400
  129OSM   C16S13878   2.590   1.474   7.496  0.0967 -0.7954  0.7882
  129OSM   H16S13879   2.547   1.458   7.597  0.6252 -0.7809  1.0167
  129OSM   H16T13880   2.568   1.392   7.424 -0.7127 -0.6865  0.9040
  129OSM   C17S13881   2.510   1.600   7.442 -0.5208  0.4603 -0.0866
  129OSM   H17S13882   2.492   1.672   7.525  1.1198  2.8589 -1.6857
  129OSM   H17T13883   2.410   1.563   7.411 -1.2321  1.0420  1.4100
  129OSM   C18S13884   2.580   1.672   7.327  0.3352 -0.0828 -0.3622
  129OSM   H18S13885   2.670   1.725   7.365  0.7316 -0.9468 -0.0534
  129OSM   H18T13886   2.507   1.742   7.283 -0.8575 -0.6233  0.6976
  129OSM   H18U13887   2.603   1.601   7.244 -0.3069  1.0231 -1.5187
  129OSM    C1F13888   2.666   1.110   6.816 -0.1548 -0.4124  0.4286
  129OSM     OF13889   2.556   1.054   6.807 -0.4927 -0.0185  0.0910
  129OSM    C2F13890   2.691   1.224   6.906  0.8768 -0.1261 -0.1692
  129OSM    H2F13891   2.646   1.322   6.883  0.7868  0.4057  2.0441
  129OSM    H2G13892   2.797   1.256   6.915  1.1995 -0.9189 -1.0084
  129OSM    C3F13893   2.636   1.187   7.055  0.6764  0.3566 -0.0069
  129OSM    H3F13894   2.539   1.135   7.041  1.6823 -1.1039 -1.9605
  129OSM    H3G13895   2.623   1.287   7.102  1.8632  1.0635 -1.1246
  129OSM    C4F13896   2.728   1.101   7.142 -0.0412  0.7738 -0.8414
  129OSM    H4F13897   2.827   1.148   7.158  0.3861 -0.4129  0.1229
  129OSM    H4G13898   2.756   1.002   7.099 -0.5913  0.1731  0.1389
  129OSM    C5F13899   2.679   1.079   7.290 -0.4260 -0.0425  0.0171
  129OSM    H5F13900   2.702   1.174   7.342  2.1107 -0.3388 -0.4608
  129OSM    H5G13901   2.746   0.997   7.321 -0.9755 -0.3033  0.5433
  129OSM    C6F13902   2.534   1.036   7.307 -0.3942  0.4129 -0.3340
  129OSM    H6F13903   2.529   0.925   7.314 -0.8442  0.4145 -0.5689
  129OSM    H6G13904   2.469   1.077   7.226 -0.3075  1.1654 -0.0281
  129OSM    C7F13905   2.465   1.068   7.436  0.5418 -0.5764  0.0994
  129OSM    H7F13906   2.369   1.013   7.446  1.0974 -1.2674  2.2127
  129OSM    H7G13907   2.444   1.176   7.441  0.0324 -0.4261 -3.3084
  129OSM    C8F13908   2.549   1.015   7.554 -0.0806 -0.8417 -1.1339
  129OSM    H8F13909   2.649   1.061   7.560 -0.8525  0.8174 -0.5421
  129OSM    H8G13910   2.560   0.905   7.541  0.6461 -0.7276 -1.5062
  129OSM    C9F13911   2.481   1.039   7.690  0.5940  0.2917 -0.0731
  129OSM    H9F13912   2.379   1.080   7.694  0.3451 -0.3895  1.2502
  129OSM   C10F13913   2.541   1.001   7.807 -1.0159 -0.4287  0.2325
  129OSM   H10F13914   2.488   1.015   7.902  0.2931 -0.1430  0.9514
  129OSM   C11F13915   2.680   0.939   7.819 -0.2608  0.7529 -0.1944
  129OSM   H11F13916   2.753   1.010   7.865 -0.1985  1.4229 -1.2933
  129OSM   H11G13917   2.731   0.912   7.724  0.4876  1.9166 -0.1416
  129OSM   C12F13918   2.675   0.801   7.894 -0.1013 -0.1796 -0.5084
  129OSM   H12F13919   2.669   0.820   8.003 -0.1061  0.5753 -0.6352
  129OSM   H12G13920   2.774   0.752   7.875 -0.6523 -1.2342 -0.7495
  129OSM   C13F13921   2.559   0.708   7.856 -0.3336 -0.5740 -0.1702
  129OSM   H13F13922   2.534   0.711   7.748  0.7622 -1.9713 -0.4884
  129OSM   H13G13923   2.465   0.744   7.904  0.4033  0.1713  0.7612
  129OSM   C14F13924   2.579   0.565   7.894  0.5753  0.6683 -0.3345
  129OSM   H14F13925   2.632   0.566   7.992  0.9998  2.0784 -0.5529
  129OSM   H14G13926   2.662   0.534   7.827  1.0291  1.4079 -0.1306
  129OSM   C15F13927   2.447   0.492   7.903 -0.3360 -0.4462  0.5597
  129OSM   H15F13928   2.400   0.480   7.803  0.4595 -3.3757  0.4293
  129OSM   H15G13929   2.373   0.549   7.963  0.1811 -0.4783  1.2358
  129OSM   C16F13930   2.463   0.347   7.965 -0.1587 -0.0596 -0.0537
  129OSM   H16F13931   2.529   0.285   7.901  0.1139  0.9488 -0.7811
  129OSM   H16G13932   2.364   0.300   7.953  0.2079 -0.2260 -3.2494
  129OSM   C17F13933   2.499   0.360   8.115  0.0253 -0.7895 -0.3287
  129OSM   H17F13934   2.434   0.436   8.163 -1.5246 -1.7554 -0.8305
  129OSM   H17G13935   2.603   0.399   8.115 -0.0349 -0.6081  0.4501
  129OSM   C18F13936   2.481   0.238   8.207 -0.2314 -0.3183  0.0112
  129OSM   H18F13937   2.531   0.262   8.304 -1.6433  1.6220  0.3225
  129OSM   H18G13938   2.520   0.146   8.159 -0.8848  0.5851 -2.3713
  129OSM   H18H13939   2.376   0.212   8.230 -0.7801  0.5236 -1.4509
  130OSM      N13940   5.192   2.882   5.918  0.0394 -0.1009  0.2205
  130OSM    C1513941   5.338   2.876   5.912 -0.5539 -0.2342 -0.4107
  130OSM   H15A13942   5.378   2.899   5.814  1.4002 -0.2056  0.3403
  130OSM   H15B13943   5.367   2.775   5.935  0.4381 -0.1818 -1.3430
  130OSM   H15C13944   5.389   2.951   5.972  0.6602  1.5757 -3.4517
  130OSM    C1413945   5.158   3.014   5.857  0.1086 -0.1373  0.0390
  130OSM   H14A13946   5.054   3.034   5.874 -0.2015 -2.3145  1.0571
  130OSM   H14B13947   5.182   3.008   5.752  1.6585 -1.2664  0.4198
  130OSM   H14C13948   5.212   3.096   5.901  0.0324 -0.8896  1.5929
  130OSM    C1313949   5.126   2.769   5.843  0.1604 -0.1516  0.0419
  130OSM   H13A13950   5.141   2.786   5.738  1.5969 -1.8751 -0.0816
  130OSM   H13B13951   5.019   2.769   5.863  0.1475  0.4363 -0.0113
  130OSM   H13C13952   5.160   2.671   5.874  0.1014 -0.8419 -1.9931
  130OSM    C1213953   5.139   2.880   6.058  0.2151  0.7936 -0.2774
  130OSM   H12A13954   5.150   2.778   6.092 -1.5692  0.1370 -1.5246
  130OSM   H12B13955   5.035   2.907   6.044  0.3272  0.9825 -0.7611
  130OSM    C1113956   5.207   2.971   6.161  0.5922  0.3815 -0.1133
  130OSM   H11A13957   5.316   2.957   6.150  0.4032  0.3434 -2.2491
  130OSM   H11B13958   5.177   2.936   6.262 -1.7962  2.9946  0.2275
  130OSM      P13959   5.051   3.168   6.221  0.3536 -0.2793 -0.0953
  130OSM    O1313960   5.030   3.302   6.165  0.4526  0.5842  1.0132
  130OSM    O1413961   4.933   3.073   6.222 -0.2924 -0.2582  0.0426
  130OSM    O1113962   5.110   3.178   6.371 -0.2530 -0.1527  0.0383
  130OSM    O1213963   5.169   3.112   6.144  0.6731  0.6896 -0.1301
  130OSM    C1S13964   5.170   3.307   6.396 -0.1803  0.6014  0.0143
  130OSM    H1S13965   5.098   3.385   6.428  1.0407  1.0340  1.8661
  130OSM    H1T13966   5.237   3.337   6.313  0.1859  0.2542  0.1786
  130OSM     NF13967   5.290   3.435   6.569  0.0205  0.4321  0.0493
  130OSM    HNF13968   5.366   3.482   6.525 -0.2080  0.1541 -0.6654
  130OSM    C2S13969   5.270   3.298   6.517  0.0283 -0.3050 -0.2210
  130OSM    H2S13970   5.229   3.230   6.595 -2.3534  2.1633  0.8216
  130OSM    C3S13971   5.402   3.235   6.474 -0.1174 -0.5633  0.8007
  130OSM    H3S13972   5.447   3.309   6.406  1.7964  0.6537  3.2272
  130OSM     O313973   5.392   3.113   6.391  0.3467  0.1340 -0.0893
  130OSM    HO313974   5.298   3.106   6.374 -0.3511  1.8657  2.5194
  130OSM    C4S13975   5.502   3.230   6.589 -0.1507 -0.3288 -0.2074
  130OSM    H4S13976   5.568   3.317   6.590  0.0906 -0.3942  3.1573
  130OSM    C5S13977   5.522   3.135   6.682  0.4651 -0.5061  0.5902
  130OSM    H5S13978   5.450   3.052   6.692 -1.8779  1.1035 -1.5275
  130OSM    C6S13979   5.626   3.151   6.791  0.3064 -0.4332 -0.3450
  130OSM    H6S13980   5.670   3.252   6.783  2.3103 -1.3632 -1.7632
  130OSM    H6T13981   5.711   3.081   6.774 -0.0073 -0.3542 -2.5236
  130OSM    C7S13982   5.563   3.130   6.939 -0.0731 -0.4251 -0.1437
  130OSM    H7S13983   5.522   3.028   6.929  1.5518 -1.0099 -1.3852
  130OSM    H7T13984   5.481   3.205   6.949  1.2321  1.5458 -2.6947
  130OSM    C8S13985   5.659   3.144   7.052 -0.3926  0.1143  0.0864
  130OSM    H8S13986   5.714   3.239   7.039 -0.4019  0.1806  0.5258
  130OSM    H8T13987   5.730   3.058   7.048 -0.2285  0.1937  1.1060
  130OSM    C9S13988   5.584   3.150   7.189 -0.3738 -0.3737  1.2321
  130OSM    H9S13989   5.520   3.059   7.193 -1.7811  0.5511  0.2819
  130OSM    H9T13990   5.517   3.238   7.187 -1.6211 -1.1409 -3.4169
  130OSM   C10S13991   5.685   3.132   7.306 -0.4017  0.2497  0.0299
  130OSM   H10S13992   5.684   3.237   7.340 -0.5333  0.5394 -0.8524
  130OSM   H10T13993   5.789   3.127   7.269 -0.0803  0.0182  0.9353
  130OSM   C11S13994   5.647   3.037   7.416 -0.2493  0.6207 -0.3756
  130OSM   H11S13995   5.609   2.943   7.371 -0.5638  1.0276 -0.9692
  130OSM   H11T13996   5.554   3.076   7.463 -1.3843 -2.6571  0.3656
  130OSM   C12S13997   5.764   3.024   7.510  0.5408  0.3809 -0.2565
  130OSM   H12S13998   5.791   3.120   7.559 -0.6380 -0.5531  2.4256
  130OSM   H12T13999   5.848   2.972   7.459  1.7654 -1.9292  3.6443
  130OSM   C13S14000   5.738   2.934   7.632  0.2320 -0.0941  0.3463
  130OSM   H13S14001   5.831   2.903   7.684 -0.4719  2.4959  3.4107
  130OSM   H13T14002   5.707   2.837   7.586  2.7774 -1.0198  0.4358
  130OSM   C14S14003   5.628   2.980   7.720  0.1963  0.1666 -0.3841
  130OSM   H14S14004   5.528   2.958   7.677 -0.5080 -1.3682  1.8389
  130OSM   H14T14005   5.641   3.090   7.724  1.9232  0.4983 -6.2623
  130OSM   C15S14006   5.631   2.913   7.861  0.2119  0.2840 -0.8317
  130OSM   H15S14007   5.735   2.913   7.900  0.1354 -0.4741 -0.6138
  130OSM   H15T14008   5.602   2.806   7.854  0.4231  0.2880 -2.0992
  130OSM   C16S14009   5.524   2.976   7.961 -0.0297  0.1828 -0.7524
  130OSM   H16S14010   5.424   2.940   7.928 -0.2492 -1.0029  1.0394
  130OSM   H16T14011   5.536   3.086   7.955 -4.4506  0.9570  0.8955
  130OSM   C17S14012   5.539   2.939   8.112  0.0915  0.3940 -0.0292
  130OSM   H17S14013   5.481   2.998   8.186 -0.3953 -0.5270  0.3529
  130OSM   H17T14014   5.646   2.959   8.135  1.2225 -2.3652 -2.2183
  130OSM   C18S14015   5.515   2.795   8.143 -0.6705 -0.0666  0.1653
  130OSM   H18S14016   5.430   2.754   8.084 -0.1529  0.4125 -0.9427
  130OSM   H18T14017   5.496   2.779   8.252  0.2883  0.3505  0.4040
  130OSM   H18U14018   5.601   2.728   8.125 -0.7278 -0.3162  0.8003
  130OSM    C1F14019   5.207   3.492   6.652 -0.4823 -0.2611 -0.4377
  130OSM     OF14020   5.104   3.432   6.686  0.6119  0.1949  0.0595
  130OSM    C2F14021   5.256   3.618   6.717  0.6517  0.1934 -0.2964
  130OSM    H2F14022   5.232   3.694   6.639 -3.2738 -0.0066  0.4924
  130OSM    H2G14023   5.365   3.615   6.739  0.1606 -1.3143  2.3369
  130OSM    C3F14024   5.186   3.661   6.849 -0.6769  0.4319  0.6583
  130OSM    H3F14025   5.172   3.568   6.908  0.2304 -0.7520 -0.9042
  130OSM    H3G14026   5.089   3.712   6.834 -1.1468 -0.0028  2.0285
  130OSM    C4F14027   5.293   3.749   6.925 -0.3852 -0.1877  0.2504
  130OSM    H4F14028   5.356   3.800   6.849  0.5134  0.1709  1.2124
  130OSM    H4G14029   5.348   3.668   6.977  0.3717 -0.7582 -1.3531
  130OSM    C5F14030   5.229   3.837   7.033  0.0033 -0.3876  0.2481
  130OSM    H5F14031   5.127   3.803   7.062  0.0264  1.2805  2.5345
  130OSM    H5G14032   5.208   3.938   6.993 -0.0995 -1.0482 -1.4725
  130OSM    C6F14033   5.306   3.839   7.161 -0.0631 -0.9410 -0.6072
  130OSM    H6F14034   5.292   3.939   7.209 -0.6039 -0.9830 -0.6673
  130OSM    H6G14035   5.415   3.827   7.146 -0.1700 -1.6358 -0.8790
  130OSM    C7F14036   5.285   3.726   7.257  0.5040  0.1424 -0.2690
  130OSM    H7F14037   5.357   3.702   7.338 -0.9376 -0.7039  0.8226
  130OSM    H7G14038   5.284   3.637   7.191  1.2430  2.3981 -3.5762
  130OSM    C8F14039   5.146   3.734   7.333  0.5919 -0.8726  0.5781
  130OSM    H8F14040   5.137   3.639   7.389 -0.5644  0.3195  2.5493
  130OSM    H8G14041   5.063   3.744   7.259  1.1590  0.7766  0.1292
  130OSM    C9F14042   5.143   3.841   7.441 -0.9322 -0.2626  0.8895
  130OSM    H9F14043   5.094   3.929   7.396 -0.3376 -1.2285 -1.8501
  130OSM   C10F14044   5.179   3.827   7.572 -0.4639  0.3750 -0.4298
  130OSM   H10F14045   5.166   3.910   7.643 -0.3032  3.1297 -3.4228
  130OSM   C11F14046   5.225   3.696   7.635  0.2598 -0.1202  0.4833
  130OSM   H11F14047   5.289   3.641   7.562 -0.5157 -0.0848 -0.2394
  130OSM   H11G14048   5.139   3.631   7.662 -0.2442  1.2768  2.4606
  130OSM   C12F14049   5.323   3.692   7.757  0.3264  0.1844  0.2675
  130OSM   H12F14050   5.415   3.749   7.730 -0.4981  1.5792  0.3238
  130OSM   H12G14051   5.354   3.590   7.789  1.5427  0.5596  0.3431
  130OSM   C13F14052   5.269   3.745   7.891  0.5755  0.3791 -0.3374
  130OSM   H13F14053   5.212   3.839   7.874  1.5678  1.0580 -0.0097
  130OSM   H13G14054   5.351   3.766   7.963  1.5451  0.4313 -1.4197
  130OSM   C14F14055   5.164   3.650   7.945 -0.7160  0.0990 -0.3678
  130OSM   H14F14056   5.164   3.554   7.889 -2.4636 -0.4537  0.5003
  130OSM   H14G14057   5.070   3.708   7.939 -0.8525 -0.0129  0.4736
  130OSM   C15F14058   5.169   3.622   8.102 -0.4567  0.5169 -0.5669
  130OSM   H15F14059   5.080   3.565   8.136  1.5420 -2.5040  0.0416
  130OSM   H15G14060   5.183   3.716   8.160 -0.7828  0.3985 -0.2896
  130OSM   C16F14061   5.287   3.518   8.132  0.2094 -0.7509  0.2666
  130OSM   H16F14062   5.381   3.551   8.082 -1.7088  1.2257 -2.3200
  130OSM   H16G14063   5.256   3.416   8.103 -1.5810 -0.6042  1.5155
  130OSM   C17F14064   5.314   3.485   8.279 -0.1151 -0.2773 -0.2387
  130OSM   H17F14065   5.380   3.569   8.310  0.7593 -0.8037 -0.6356
  130OSM   H17G14066   5.378   3.394   8.282 -0.7476 -0.6975  2.4133
  130OSM   C18F14067   5.190   3.473   8.364  0.0109 -0.5382  0.5517
  130OSM   H18F14068   5.129   3.566   8.355 -1.0259 -1.3272 -0.9831
  130OSM   H18G14069   5.219   3.449   8.468  1.0672 -2.4393 -0.1483
  130OSM   H18H14070   5.127   3.396   8.313  2.1428 -1.0057 -1.5818
  131OSM      N14071   4.162   6.128   5.727  0.3910  0.5637 -0.2096
  131OSM    C1514072   4.294   6.181   5.754  0.3660 -0.7632 -0.1104
  131OSM   H15A14073   4.291   6.263   5.823  3.4856 -0.8185  0.2526
  131OSM   H15B14074   4.340   6.223   5.665  0.9209 -0.2184  0.4299
  131OSM   H15C14075   4.364   6.102   5.779 -0.8223 -2.0597 -0.7214
  131OSM    C1414076   4.082   6.239   5.656 -0.0528  0.4651 -0.6474
  131OSM   H14A14077   3.982   6.199   5.643  1.1296 -3.2346  0.4900
  131OSM   H14B14078   4.126   6.258   5.559 -0.4409  1.0007 -0.7246
  131OSM   H14C14079   4.076   6.327   5.719  1.3237 -0.9138  1.5301
  131OSM    C1314080   4.176   6.016   5.630  0.0478 -0.3868 -0.1592
  131OSM   H13A14081   4.205   5.926   5.682 -2.8388 -2.9310 -2.5581
  131OSM   H13B14082   4.251   6.025   5.552  0.4972 -2.3176 -0.0076
  131OSM   H13C14083   4.081   5.996   5.583  0.2939 -0.0018 -0.8415
  131OSM    C1214084   4.092   6.085   5.858 -0.0301 -0.1033  0.5760
  131OSM   H12A14085   4.153   6.004   5.895  0.4845 -0.9202 -1.8816
  131OSM   H12B14086   3.994   6.058   5.822  0.7014  0.3907 -1.9569
  131OSM    C1114087   4.081   6.196   5.979 -0.5782  0.3627  0.0768
  131OSM   H11A14088   4.181   6.235   6.004 -0.8825  1.4841 -0.4048
  131OSM   H11B14089   4.033   6.157   6.072  0.1555 -0.0509  0.2874
  131OSM      P14090   3.861   6.333   5.940  0.2496 -0.1889 -0.2261
  131OSM    O1314091   3.827   6.449   5.856 -0.1999  0.9922 -0.2182
  131OSM    O1414092   3.805   6.201   5.897  0.2277  0.6382 -0.0274
  131OSM    O1114093   3.830   6.361   6.092 -0.0364 -0.5142 -0.3208
  131OSM    O1214094   4.014   6.314   5.929  0.2785 -0.2671 -0.4925
  131OSM    C1S14095   3.919   6.432   6.181 -0.4195  0.1387  0.1406
  131OSM    H1S14096   4.016   6.377   6.186  0.5324  1.7674  0.4304
  131OSM    H1T14097   3.875   6.430   6.283  1.5768 -1.5732  1.0513
  131OSM     NF14098   4.062   6.633   6.241  0.1797 -0.3260  0.3026
  131OSM    HNF14099   4.035   6.719   6.282 -0.4636 -0.6133  0.4849
  131OSM    C2S14100   3.958   6.575   6.148  0.4290 -0.3042  0.3751
  131OSM    H2S14101   3.998   6.573   6.044  1.2458 -0.7418  0.6851
  131OSM    C3S14102   3.824   6.659   6.136  0.4149 -0.5989  0.5651
  131OSM    H3S14103   3.750   6.596   6.082  2.6705 -0.8716 -2.4681
  131OSM     O314104   3.830   6.787   6.066 -0.0787 -0.1464  0.9547
  131OSM    HO314105   3.925   6.792   6.053 -0.1445 -0.6417  0.2387
  131OSM    C4S14106   3.775   6.687   6.278  0.3527 -0.4906  1.0687
  131OSM    H4S14107   3.845   6.734   6.348  1.5796  0.6654 -0.8393
  131OSM    C5S14108   3.646   6.673   6.316 -0.3594  0.6597  1.1253
  131OSM    H5S14109   3.582   6.628   6.238  0.9159  0.0013  0.4268
  131OSM    C6S14110   3.586   6.697   6.456  0.0546  0.1657  0.0233
  131OSM    H6S14111   3.478   6.723   6.452 -0.1653 -0.6750  0.3570
  131OSM    H6T14112   3.628   6.792   6.496 -0.0983  0.9253 -1.5377
  131OSM    C7S14113   3.617   6.578   6.546 -0.1224 -0.6795  0.3651
  131OSM    H7S14114   3.727   6.563   6.538  0.0559  0.9528 -0.9054
  131OSM    H7T14115   3.568   6.488   6.504  0.5549  0.1246 -2.3237
  131OSM    C8S14116   3.573   6.597   6.688 -0.4341  0.6288 -0.1164
  131OSM    H8S14117   3.469   6.637   6.687 -1.3408 -1.5610 -1.3710
  131OSM    H8T14118   3.648   6.671   6.725 -1.3628  2.0929 -1.0600
  131OSM    C9S14119   3.574   6.461   6.764 -0.4283 -0.3822  0.3839
  131OSM    H9S14120   3.670   6.414   6.736 -0.9214  0.1297 -2.5499
  131OSM    H9T14121   3.486   6.400   6.732 -1.4765 -0.2485  2.7978
  131OSM   C10S14122   3.580   6.476   6.915 -0.1185  0.7931  0.4679
  131OSM   H10S14123   3.499   6.535   6.961 -1.2398 -0.3984  0.0709
  131OSM   H10T14124   3.668   6.536   6.949  0.0141  1.0911 -0.3864
  131OSM   C11S14125   3.604   6.343   6.991  0.7118 -0.1975  1.1492
  131OSM   H11S14126   3.675   6.283   6.930  3.2307  2.1846  1.5375
  131OSM   H11T14127   3.505   6.293   6.996 -0.0903  1.4007  1.8857
  131OSM   C12S14128   3.653   6.350   7.132 -0.2329 -0.5799  0.0777
  131OSM   H12S14129   3.747   6.408   7.135  0.9597 -2.4429  0.5811
  131OSM   H12T14130   3.685   6.247   7.159  3.0863  0.3778  0.1714
  131OSM   C13S14131   3.558   6.402   7.230  0.1451  0.4999 -0.0566
  131OSM   H13S14132   3.463   6.354   7.197  0.1463  1.9371 -2.4115
  131OSM   H13T14133   3.526   6.504   7.199 -1.4619 -0.1375 -0.6344
  131OSM   C14S14134   3.591   6.378   7.376  0.5861  0.4028 -0.6127
  131OSM   H14S14135   3.521   6.429   7.446 -0.9070  0.2657 -1.9660
  131OSM   H14T14136   3.691   6.427   7.378  0.4545  0.6555  0.3250
  131OSM   C15S14137   3.600   6.232   7.418 -0.3939 -0.9712 -0.1896
  131OSM   H15S14138   3.691   6.191   7.368  0.8670  0.4498  0.8380
  131OSM   H15T14139   3.509   6.177   7.386 -1.6194  0.8899 -0.0220
  131OSM   C16S14140   3.636   6.203   7.564  0.2210  0.7767 -0.0279
  131OSM   H16S14141   3.726   6.258   7.598  0.3625  0.1059  0.7122
  131OSM   H16T14142   3.654   6.094   7.573  1.3311  0.6904 -2.5126
  131OSM   C17S14143   3.522   6.247   7.659  0.4017 -0.6856  0.2465
  131OSM   H17S14144   3.431   6.218   7.603  1.2344  1.1606 -2.2738
  131OSM   H17T14145   3.512   6.357   7.665 -1.4279 -0.8989  3.0101
  131OSM   C18S14146   3.536   6.201   7.806  0.6862 -0.2212  0.1166
  131OSM   H18S14147   3.517   6.092   7.807 -2.7181  0.2590 -1.2734
  131OSM   H18T14148   3.461   6.250   7.872  1.2491  0.3130  0.3777
  131OSM   H18U14149   3.639   6.214   7.847  1.5707  0.6192 -2.1713
  131OSM    C1F14150   4.177   6.568   6.272 -0.0139  0.7115 -0.4674
  131OSM     OF14151   4.214   6.478   6.198  0.4335  0.2662 -0.1095
  131OSM    C2F14152   4.251   6.618   6.399 -0.2569  0.5061  0.9096
  131OSM    H2F14153   4.190   6.703   6.437 -2.0060 -0.8260  1.2180
  131OSM    H2G14154   4.352   6.655   6.371  0.0636 -0.6840  0.4505
  131OSM    C3F14155   4.255   6.507   6.503 -0.0782  0.7474 -0.0458
  131OSM    H3F14156   4.309   6.535   6.596 -0.1243 -0.9099  0.5144
  131OSM    H3G14157   4.321   6.428   6.461 -1.3028 -0.6659  0.5550
  131OSM    C4F14158   4.120   6.447   6.552 -0.2871 -0.6474  0.5600
  131OSM    H4F14159   4.143   6.373   6.631  0.4480  0.0818  1.0414
  131OSM    H4G14160   4.065   6.423   6.459 -0.8899  2.7749 -0.1077
  131OSM    C5F14161   4.022   6.548   6.612  0.2040 -0.2753 -0.5454
  131OSM    H5F14162   3.927   6.495   6.636  1.0358 -0.5073  2.5926
  131OSM    H5G14163   3.990   6.622   6.535  0.3980 -0.7246 -1.0622
  131OSM    C6F14164   4.072   6.623   6.737 -0.3220  0.4787 -0.2188
  131OSM    H6F14165   4.087   6.725   6.695 -2.7646  0.0714 -2.3623
  131OSM    H6G14166   4.167   6.576   6.770 -1.1571 -0.0073  1.5970
  131OSM    C7F14167   3.964   6.608   6.842 -0.0578 -0.1531 -0.5725
  131OSM    H7F14168   3.972   6.500   6.868 -2.4320 -0.0016  1.1261
  131OSM    H7G14169   3.858   6.620   6.808  0.0073  1.8332 -0.1472
  131OSM    C8F14170   3.986   6.695   6.965 -0.1467  0.0908 -0.4831
  131OSM    H8F14171   3.985   6.804   6.942 -3.4908 -0.0031 -1.2983
  131OSM    H8G14172   4.087   6.666   7.000 -0.6769 -0.7340  0.3895
  131OSM    C9F14173   3.898   6.676   7.094  0.7939  0.1137 -0.0082
  131OSM    H9F14174   3.796   6.718   7.081 -0.2866 -2.0252  1.1587
  131OSM   C10F14175   3.929   6.623   7.208 -0.2213 -0.1745  0.0125
  131OSM   H10F14176   3.848   6.612   7.282  0.1207  0.1343  0.4365
  131OSM   C11F14177   4.069   6.567   7.244  0.1335  0.6581  0.9300
  131OSM   H11F14178   4.140   6.530   7.167 -0.8839 -0.7506  0.6275
  131OSM   H11G14179   4.049   6.481   7.310 -0.9727  1.0946  1.1819
  131OSM   C12F14180   4.150   6.676   7.318 -0.1994  0.5686 -0.0935
  131OSM   H12F14181   4.081   6.698   7.402 -1.7061 -0.5032 -1.0027
  131OSM   H12G14182   4.166   6.770   7.261  1.5582  0.1158 -0.3955
  131OSM   C13F14183   4.281   6.621   7.376 -0.7284  0.1680  0.3036
  131OSM   H13F14184   4.337   6.715   7.396  0.0642 -0.0552 -0.7871
  131OSM   H13G14185   4.344   6.563   7.306  0.9650  0.2532  1.6652
  131OSM   C14F14186   4.260   6.541   7.509 -0.5875  0.1573 -0.3396
  131OSM   H14F14187   4.154   6.520   7.536 -0.7823  1.4689 -0.0166
  131OSM   H14G14188   4.297   6.601   7.595 -1.7415  0.8747 -0.3191
  131OSM   C15F14189   4.345   6.414   7.513 -0.1174 -0.4567 -0.4089
  131OSM   H15F14190   4.451   6.444   7.500  0.4098 -0.5568  2.9439
  131OSM   H15G14191   4.314   6.351   7.427  0.7236 -2.1095  0.4533
  131OSM   C16F14192   4.332   6.335   7.641  0.4796  0.0403  0.6303
  131OSM   H16F14193   4.358   6.229   7.621 -2.8440 -0.7922  0.0702
  131OSM   H16G14194   4.228   6.329   7.677  0.1655 -1.9681 -0.4452
  131OSM   C17F14195   4.418   6.390   7.757 -0.2560 -0.4559  0.2335
  131OSM   H17F14196   4.371   6.341   7.845 -2.2305 -0.2169 -0.6252
  131OSM   H17G14197   4.400   6.498   7.774  0.4057 -0.5140  1.4205
  131OSM   C18F14198   4.576   6.366   7.747  0.1141 -0.2467 -0.5504
  131OSM   H18F14199   4.606   6.340   7.850 -2.2742 -2.4784 -0.3200
  131OSM   H18G14200   4.622   6.460   7.709  0.7744  0.9970  2.9920
  131OSM   H18H14201   4.602   6.280   7.681  0.0471 -1.5148  1.0262
  132OSM      N14202   5.627   1.047   6.260 -0.4231 -0.0298  0.1050
  132OSM    C1514203   5.712   1.144   6.191  0.8190 -0.3578 -0.2278
  132OSM   H15A14204   5.813   1.113   6.170  0.4924 -1.6303 -0.0419
  132OSM   H15B14205   5.725   1.232   6.251 -0.3764  0.7361 -1.5073
  132OSM   H15C14206   5.662   1.178   6.102  1.2414 -1.7812 -1.0418
  132OSM    C1414207   5.624   0.930   6.165  1.1496  0.0463 -0.0461
  132OSM   H14A14208   5.557   0.855   6.203  1.2422  0.4470  0.9421
  132OSM   H14B14209   5.723   0.889   6.148  0.8651 -0.4358 -0.5534
  132OSM   H14C14210   5.576   0.962   6.074 -0.1157 -0.5087  0.4024
  132OSM    C1314211   5.684   1.008   6.389 -0.1524  0.2699 -0.1331
  132OSM   H13A14212   5.788   0.983   6.380 -0.7060 -1.7873 -1.5845
  132OSM   H13B14213   5.643   0.912   6.417  2.1254 -1.7825 -3.1212
  132OSM   H13C14214   5.680   1.093   6.456 -0.1814 -0.6278  1.0430
  132OSM    C1214215   5.482   1.098   6.289 -0.1430 -0.5373 -0.3481
  132OSM   H12A14216   5.445   1.035   6.368 -0.3710 -2.2316 -1.7455
  132OSM   H12B14217   5.415   1.080   6.207  0.2089  0.3157 -0.8371
  132OSM    C1114218   5.466   1.235   6.353 -0.3199 -0.5039 -0.6774
  132OSM   H11A14219   5.366   1.245   6.401  1.1267  2.3701  2.1308
  132OSM   H11B14220   5.480   1.301   6.264 -0.7946  0.0867 -0.3212
  132OSM      P14221   5.647   1.388   6.475  0.2771 -0.0644 -0.2806
  132OSM    O1314222   5.790   1.350   6.494 -0.4160  0.0402  0.0218
  132OSM    O1414223   5.608   1.486   6.372 -0.2700  0.3077 -0.1408
  132OSM    O1114224   5.588   1.437   6.620  1.0289 -1.0505  0.0246
  132OSM    O1214225   5.566   1.252   6.454  0.4578  0.2343  0.6565
  132OSM    C1S14226   5.565   1.335   6.711  0.5467  0.1749  0.3666
  132OSM    H1S14227   5.636   1.251   6.702  0.7367  0.1424  1.8637
  132OSM    H1T14228   5.468   1.284   6.691  2.1917 -3.1126  0.1362
  132OSM     NF14229   5.517   1.281   6.950  0.6178 -0.3525 -0.7615
  132OSM    HNF14230   5.428   1.293   6.993  0.7333  0.3580 -0.7099
  132OSM    C2S14231   5.560   1.385   6.858  0.6733  0.0135  0.3762
  132OSM    H2S14232   5.663   1.414   6.890  0.5826  1.4686 -0.5452
  132OSM    C3S14233   5.466   1.520   6.860  0.4418  0.0863  0.3753
  132OSM    H3S14234   5.362   1.491   6.835  0.8329 -0.6291 -0.4964
  132OSM     O314235   5.506   1.624   6.769  0.2017  0.2626 -0.4146
  132OSM    HO314236   5.541   1.571   6.698 -0.9128 -0.7325 -0.2474
  132OSM    C4S14237   5.457   1.569   6.998 -0.1264  0.7311  0.3863
  132OSM    H4S14238   5.365   1.532   7.047  0.0003 -1.3436 -0.8170
  132OSM    C5S14239   5.541   1.641   7.071 -0.2464  0.1720  0.4627
  132OSM    H5S14240   5.640   1.670   7.033  0.3138  0.8945  2.3453
  132OSM    C6S14241   5.529   1.670   7.215 -0.0798 -0.5486 -0.4620
  132OSM    H6S14242   5.454   1.751   7.228  0.2593  0.1738 -2.6265
  132OSM    H6T14243   5.625   1.716   7.246 -0.0739 -1.9948  1.8680
  132OSM    C7S14244   5.496   1.550   7.304 -0.2360 -0.8524 -0.0492
  132OSM    H7S14245   5.561   1.464   7.277  2.0037 -0.9358  4.7101
  132OSM    H7T14246   5.392   1.515   7.291 -0.9197  1.5884 -2.2769
  132OSM    C8S14247   5.514   1.570   7.452 -0.2424 -0.4466 -0.4749
  132OSM    H8S14248   5.440   1.649   7.476  2.2289  1.6944  0.6047
  132OSM    H8T14249   5.619   1.602   7.470 -0.0580 -1.5515  0.6301
  132OSM    C9S14250   5.491   1.448   7.545  0.1791  0.1164 -0.1181
  132OSM    H9S14251   5.585   1.388   7.542 -1.5212 -2.7508 -0.2018
  132OSM    H9T14252   5.410   1.379   7.512  0.7830 -1.1232  0.8969
  132OSM   C10S14253   5.457   1.496   7.688 -0.3029 -0.2316 -0.3175
  132OSM   H10S14254   5.353   1.527   7.713 -0.3518 -1.9863  1.9967
  132OSM   H10T14255   5.518   1.584   7.718 -2.6516  1.7801 -1.1734
  132OSM   C11S14256   5.496   1.393   7.798  0.4092 -0.2633  0.0472
  132OSM   H11S14257   5.605   1.371   7.791 -0.2158 -4.1058  0.5419
  132OSM   H11T14258   5.444   1.296   7.785  1.0600 -0.8445  1.4965
  132OSM   C12S14259   5.465   1.439   7.950 -0.4566  0.5230  0.1300
  132OSM   H12S14260   5.530   1.526   7.973  0.9932 -0.1810 -1.1265
  132OSM   H12T14261   5.512   1.350   7.996 -3.3481 -2.4257 -2.1319
  132OSM   C13S14262   5.318   1.456   7.988  0.0075  0.5031  0.5692
  132OSM   H13S14263   5.251   1.388   7.932  2.1206 -1.5559  0.3625
  132OSM   H13T14264   5.289   1.560   7.961 -1.1020 -0.1142 -0.7229
  132OSM   C14S14265   5.289   1.431   8.135  0.5703 -1.0506  0.4930
  132OSM   H14S14266   5.302   1.324   8.163 -0.9458 -1.2090  0.6471
  132OSM   H14T14267   5.180   1.450   8.143  0.4390 -0.7886 -1.4724
  132OSM   C15S14268   5.381   1.507   8.225 -0.6425  0.2783  0.0613
  132OSM   H15S14269   5.354   1.614   8.217  0.4017  0.5248 -0.2701
  132OSM   H15T14270   5.490   1.493   8.207 -0.4496  0.7065  0.8767
  132OSM   C16S14271   5.341   1.485   8.374  0.4810 -0.9691 -1.5831
  132OSM   H16S14272   5.234   1.454   8.379 -1.3860  4.5042 -1.2652
  132OSM   H16T14273   5.354   1.581   8.427 -0.5666 -0.3667 -2.3677
  132OSM   C17S14274   5.420   1.367   8.448  0.4363  0.5824  0.3192
  132OSM   H17S14275   5.521   1.394   8.485  0.6509 -0.9295  0.8775
  132OSM   H17T14276   5.435   1.287   8.372  1.3842  2.0856 -1.1754
  132OSM   C18S14277   5.352   1.300   8.559 -0.0953  0.6516  0.3655
  132OSM   H18S14278   5.401   1.203   8.581 -1.0119 -0.0864 -0.6837
  132OSM   H18T14279   5.248   1.283   8.522 -0.3835  1.6692  0.6736
  132OSM   H18U14280   5.353   1.359   8.653  2.0628 -1.4540  1.7907
  132OSM    C1F14281   5.590   1.158   6.969  0.5288  0.1933 -0.3853
  132OSM     OF14282   5.689   1.134   6.901  0.6727 -0.5512  0.2141
  132OSM    C2F14283   5.532   1.054   7.062 -0.3915 -0.3296 -0.0727
  132OSM    H2F14284   5.563   0.948   7.049 -1.4413 -1.0406  2.5396
  132OSM    H2G14285   5.422   1.048   7.049 -0.5083 -0.6976  0.9729
  132OSM    C3F14286   5.559   1.087   7.207  1.0047  0.0445  0.4183
  132OSM    H3F14287   5.540   1.005   7.280 -0.0533 -0.3108 -0.2260
  132OSM    H3G14288   5.504   1.175   7.245  0.1107 -0.6972  0.8889
  132OSM    C4F14289   5.700   1.140   7.225 -0.0566  0.1862  0.6785
  132OSM    H4F14290   5.734   1.217   7.153  0.7179  1.0684  1.9564
  132OSM    H4G14291   5.761   1.052   7.195  1.7793  1.5898  0.0847
  132OSM    C5F14292   5.738   1.200   7.362 -0.0536 -0.4444 -0.5107
  132OSM    H5F14293   5.670   1.281   7.395 -0.9817 -1.0826 -0.8212
  132OSM    H5G14294   5.839   1.245   7.359 -0.2062  0.5245  3.1815
  132OSM    C6F14295   5.744   1.100   7.477  0.2074 -0.3932 -0.6804
  132OSM    H6F14296   5.806   1.013   7.446  2.1671  0.4512  0.6631
  132OSM    H6G14297   5.642   1.057   7.486  0.4161 -1.0910 -1.5488
  132OSM    C7F14298   5.795   1.149   7.614 -0.2600 -0.3826  1.1292
  132OSM    H7F14299   5.741   1.238   7.653  2.8469  1.4370  1.5453
  132OSM    H7G14300   5.896   1.181   7.583 -1.3180  0.2500 -2.0263
  132OSM    C8F14301   5.797   1.047   7.723  0.5218  0.4878 -0.0791
  132OSM    H8F14302   5.890   1.076   7.777  0.5158  2.5197 -1.0789
  132OSM    H8G14303   5.806   0.943   7.683  2.0518  0.5042  0.1447
  132OSM    C9F14304   5.674   1.060   7.817 -0.4971  0.4705  0.3770
  132OSM    H9F14305   5.643   1.163   7.843  0.7561  0.2513  3.0378
  132OSM   C10F14306   5.597   0.961   7.861  0.0335 -0.0851 -0.0610
  132OSM   H10F14307   5.516   0.992   7.930  0.7139  2.1793 -0.2309
  132OSM   C11F14308   5.611   0.818   7.842  0.0183  0.1189 -0.2790
  132OSM   H11F14309   5.582   0.763   7.935 -2.0350  0.4646 -0.6726
  132OSM   H11G14310   5.714   0.787   7.814 -0.6786 -1.3681 -1.3452
  132OSM   C12F14311   5.534   0.756   7.727  0.4345  0.4435  0.1324
  132OSM   H12F14312   5.586   0.663   7.697 -0.2123 -0.0701  0.5671
  132OSM   H12G14313   5.537   0.827   7.641 -1.7115 -1.2763 -1.4967
  132OSM   C13F14314   5.388   0.707   7.759  0.3856 -0.3493  0.6031
  132OSM   H13F14315   5.310   0.782   7.785  0.2470 -0.9672  2.0784
  132OSM   H13G14316   5.412   0.654   7.854 -0.6600 -0.1687  0.9847
  132OSM   C14F14317   5.335   0.614   7.639  0.3506 -0.9575  0.0952
  132OSM   H14F14318   5.257   0.557   7.694 -1.7342  2.1986  0.6545
  132OSM   H14G14319   5.423   0.552   7.614 -0.8377 -2.9826  0.7054
  132OSM   C15F14320   5.285   0.692   7.520 -0.1829  0.2481  0.0654
  132OSM   H15F14321   5.365   0.760   7.485  0.5327  0.2907  1.7155
  132OSM   H15G14322   5.200   0.760   7.544 -1.3305 -0.0028 -2.9073
  132OSM   C16F14323   5.238   0.607   7.402 -0.5968  0.0450 -0.4651
  132OSM   H16F14324   5.171   0.526   7.437  0.8803 -2.2773 -2.6723
  132OSM   H16G14325   5.315   0.537   7.362  0.5053  1.3128 -0.6114
  132OSM   C17F14326   5.182   0.698   7.290  0.4663  0.3512  0.0650
  132OSM   H17F14327   5.106   0.771   7.325  0.6278  0.3254  0.4713
  132OSM   H17G14328   5.129   0.644   7.209 -0.0105  1.1392 -0.1580
  132OSM   C18F14329   5.300   0.771   7.218  0.0410  1.2483 -0.7841
  132OSM   H18F14330   5.343   0.846   7.287 -1.8265  3.2872 -1.7111
  132OSM   H18G14331   5.277   0.820   7.121  0.0792  1.1467 -0.8451
  132OSM   H18H14332   5.369   0.691   7.182 -0.6832 -0.3630  1.1883
  133OSM      N14333   6.073   2.268   6.238 -0.3248 -0.3973  0.1292
  133OSM    C1514334   6.138   2.146   6.182 -0.9566 -0.7753  0.4137
  133OSM   H15A14335   6.112   2.141   6.077 -1.7442 -0.7980  0.6047
  133OSM   H15B14336   6.099   2.056   6.227 -0.6611 -0.5884  1.0537
  133OSM   H15C14337   6.242   2.135   6.209 -1.1249  0.4334  1.6649
  133OSM    C1414338   6.103   2.268   6.390  0.0247  0.2703 -0.2652
  133OSM   H14A14339   6.070   2.177   6.438  1.3940  0.5043  1.2100
  133OSM   H14B14340   6.048   2.349   6.436 -3.9787 -1.9357 -0.6633
  133OSM   H14C14341   6.210   2.261   6.404  0.1793  0.0541 -1.4823
  133OSM    C1314342   6.132   2.390   6.183  0.3819 -0.6009 -0.7602
  133OSM   H13A14343   6.101   2.484   6.226 -0.3182 -1.4121  0.5562
  133OSM   H13B14344   6.121   2.391   6.076  1.7606 -0.7711 -0.9289
  133OSM   H13C14345   6.239   2.374   6.187  0.2776 -1.2483 -0.4055
  133OSM    C1214346   5.921   2.267   6.210  0.2059 -0.1919 -0.0510
  133OSM   H12A14347   5.912   2.260   6.102  2.8676 -1.3704 -0.2722
  133OSM   H12B14348   5.895   2.365   6.246  2.9838  0.4676  0.3447
  133OSM    C1114349   5.835   2.158   6.280 -0.3774  0.2905 -0.2835
  133OSM   H11A14350   5.728   2.188   6.286 -1.8995 -4.5962  1.0682
  133OSM   H11B14351   5.876   2.135   6.381 -0.1826 -1.1465 -0.6757
  133OSM      P14352   5.728   1.941   6.180 -0.1827 -0.2296  0.0449
  133OSM    O1314353   5.631   2.016   6.097 -0.5023 -0.6337 -0.2596
  133OSM    O1414354   5.772   1.816   6.118  0.0374  0.3697  0.3583
  133OSM    O1114355   5.649   1.910   6.312 -0.6906  0.4441  0.0224
  133OSM    O1214356   5.854   2.037   6.217  0.6934  0.0855 -0.5557
  133OSM    C1S14357   5.671   1.809   6.408 -0.3021  0.3022  0.6333
  133OSM    H1S14358   5.753   1.738   6.384 -0.3428  1.0068 -1.8721
  133OSM    H1T14359   5.584   1.740   6.406  2.1569 -3.1091 -1.9356
  133OSM     NF14360   5.754   1.774   6.636  0.1293 -0.2487  0.0372
  133OSM    HNF14361   5.698   1.774   6.719 -0.2442 -1.2720 -0.1925
  133OSM    C2S14362   5.723   1.875   6.537 -0.5310  0.2628 -0.5229
  133OSM    H2S14363   5.824   1.920   6.522 -0.3133 -0.5090 -1.4490
  133OSM    C3S14364   5.628   1.986   6.592  0.8456  0.1041 -0.0016
  133OSM    H3S14365   5.531   1.933   6.601  1.7096 -1.7714 -1.0956
  133OSM     O314366   5.604   2.099   6.506  0.1108  0.2834 -0.4128
  133OSM    HO314367   5.641   2.067   6.423 -2.0018 -2.4513 -0.4661
  133OSM    C4S14368   5.675   2.039   6.727 -0.1912 -0.8350  0.3622
  133OSM    H4S14369   5.784   2.057   6.731  0.0076 -1.1023 -2.2414
  133OSM    C5S14370   5.591   2.079   6.822 -0.4672  0.7946 -0.1040
  133OSM    H5S14371   5.483   2.079   6.799 -0.0086  1.0847 -2.4975
  133OSM    C6S14372   5.638   2.143   6.953 -0.3875  0.0835  0.8799
  133OSM    H6S14373   5.589   2.239   6.977 -0.3781  0.8857 -2.0019
  133OSM    H6T14374   5.748   2.156   6.958 -0.7140  3.0075  2.1625
  133OSM    C7S14375   5.619   2.051   7.073  0.2188  0.2473 -0.0185
  133OSM    H7S14376   5.700   1.975   7.071  2.4952  2.5079  1.6727
  133OSM    H7T14377   5.517   2.009   7.056  1.2852 -0.8873 -5.8017
  133OSM    C8S14378   5.656   2.126   7.202 -0.2920 -0.1072  0.4535
  133OSM    H8S14379   5.601   2.222   7.209  0.9706  0.7011 -0.4636
  133OSM    H8T14380   5.764   2.144   7.188 -0.0648 -0.4018  1.7001
  133OSM    C9S14381   5.629   2.037   7.324  0.4761  0.1453  0.2204
  133OSM    H9S14382   5.691   1.946   7.313 -0.2205 -0.2773 -0.3143
  133OSM    H9T14383   5.523   2.004   7.315 -0.9822  3.8672  1.7456
  133OSM   C10S14384   5.641   2.096   7.465 -0.7429  0.2383 -0.5852
  133OSM   H10S14385   5.592   2.196   7.467 -0.6376  0.3035  1.6387
  133OSM   H10T14386   5.749   2.111   7.489 -0.6440 -2.2790  0.9240
  133OSM   C11S14387   5.581   1.999   7.577  0.5492 -0.2531  0.3312
  133OSM   H11S14388   5.640   1.904   7.583 -0.0776 -0.6833 -0.2549
  133OSM   H11T14389   5.478   1.972   7.545  0.7480 -3.4550  1.9708
  133OSM   C12S14390   5.568   2.077   7.709  0.2934 -0.3649  0.4332
  133OSM   H12S14391   5.497   2.160   7.684 -0.1162 -0.7595  0.2777
  133OSM   H12T14392   5.667   2.125   7.724  0.8326 -1.0702 -0.7423
  133OSM   C13S14393   5.524   2.001   7.838  0.0804  0.3662 -0.3075
  133OSM   H13S14394   5.425   1.956   7.818 -0.8497  1.5743  1.3382
  133OSM   H13T14395   5.516   2.086   7.909 -0.7350  2.3106 -2.5947
  133OSM   C14S14396   5.621   1.887   7.882  0.1331 -0.3095 -0.1155
  133OSM   H14S14397   5.724   1.922   7.903 -0.1160  0.6759 -0.4983
  133OSM   H14T14398   5.619   1.810   7.802 -2.1381  0.2625 -0.6748
  133OSM   C15S14399   5.555   1.826   8.014 -0.0493 -0.8653 -1.1044
  133OSM   H15S14400   5.622   1.749   8.059  1.7305  1.2470  0.0105
  133OSM   H15T14401   5.457   1.777   7.994 -0.9931  1.1982 -1.8167
  133OSM   C16S14402   5.537   1.924   8.130 -0.2003 -0.5982 -0.2818
  133OSM   H16S14403   5.468   2.007   8.104 -1.9734 -2.2248 -0.9446
  133OSM   H16T14404   5.637   1.973   8.131  0.0085 -0.9074 -1.9353
  133OSM   C17S14405   5.512   1.863   8.269 -0.4531  0.4230 -0.1783
  133OSM   H17S14406   5.577   1.775   8.285 -0.2673  0.5214 -0.3906
  133OSM   H17T14407   5.408   1.824   8.259 -0.4458  0.8231 -2.4944
  133OSM   C18S14408   5.531   1.958   8.379 -0.1555 -0.6054 -0.4379
  133OSM   H18S14409   5.471   2.049   8.358  0.5016 -0.1658 -0.4474
  133OSM   H18T14410   5.637   1.993   8.381 -0.1802 -0.5387  0.5641
  133OSM   H18U14411   5.510   1.920   8.481  1.2523 -0.7598 -0.1820
  133OSM    C1F14412   5.852   1.683   6.632  0.2883 -0.3462 -1.1108
  133OSM     OF14413   5.925   1.678   6.535 -0.0238  0.1797  0.5116
  133OSM    C2F14414   5.870   1.590   6.751 -0.6157 -1.2682  0.0658
  133OSM    H2F14415   5.963   1.530   6.739 -0.3307 -0.9217  0.5159
  133OSM    H2G14416   5.774   1.534   6.758 -2.4215  1.0988 -3.2166
  133OSM    C3F14417   5.883   1.681   6.872  0.3750 -0.0730  0.8339
  133OSM    H3F14418   5.787   1.732   6.893  0.1647  0.3701 -1.0480
  133OSM    H3G14419   5.963   1.758   6.861 -0.7948  1.0401 -0.1400
  133OSM    C4F14420   5.909   1.593   7.000  0.2341 -0.2477 -0.1262
  133OSM    H4F14421   5.997   1.531   6.974 -1.2174 -1.5962 -2.1825
  133OSM    H4G14422   5.829   1.517   7.013  0.6237 -0.4806  0.9972
  133OSM    C5F14423   5.929   1.678   7.122 -0.7453 -0.0019 -0.1401
  133OSM    H5F14424   5.859   1.763   7.111  0.1276  0.6677 -0.6138
  133OSM    H5G14425   6.036   1.707   7.118 -0.2508 -1.7562 -1.1567
  133OSM    C6F14426   5.920   1.599   7.257 -0.1406 -0.1111  0.1987
  133OSM    H6F14427   5.997   1.519   7.265 -0.2612 -0.2593 -0.0849
  133OSM    H6G14428   5.816   1.560   7.266 -0.5349  1.0581  0.9070
  133OSM    C7F14429   5.932   1.700   7.372 -0.6119 -0.1369  0.2583
  133OSM    H7F14430   5.862   1.785   7.357 -0.0486 -0.0146 -2.0278
  133OSM    H7G14431   6.036   1.739   7.373 -0.3484 -0.8272  0.8715
  133OSM    C8F14432   5.930   1.627   7.510  0.0143  0.1947  0.1211
  133OSM    H8F14433   6.032   1.585   7.527  0.0991  0.7935  1.2635
  133OSM    H8G14434   5.869   1.535   7.512  1.7741 -1.0288 -0.1234
  133OSM    C9F14435   5.913   1.723   7.628  0.3174  0.6327 -0.1286
  133OSM    H9F14436   5.939   1.829   7.617  1.8207  0.1536 -1.5778
  133OSM   C10F14437   5.877   1.685   7.752  0.1454 -0.0886 -0.0723
  133OSM   H10F14438   5.864   1.762   7.829  0.7621 -0.5460  0.5000
  133OSM   C11F14439   5.832   1.545   7.797  0.0072  0.7600  0.0379
  133OSM   H11F14440   5.834   1.471   7.714 -1.2119 -0.5996  1.1540
  133OSM   H11G14441   5.727   1.541   7.833 -0.1114 -3.2107 -0.2415
  133OSM   C12F14442   5.935   1.501   7.901 -0.5011  0.5619 -0.2085
  133OSM   H12F14443   5.943   1.579   7.979  2.0953 -0.5410  0.7465
  133OSM   H12G14444   6.034   1.474   7.856 -1.4188 -3.2762 -0.2321
  133OSM   C13F14445   5.896   1.369   7.955  0.1027  0.0708 -0.2505
  133OSM   H13F14446   5.885   1.300   7.869 -2.0049  1.2754 -1.0235
  133OSM   H13G14447   5.800   1.376   8.010  1.1084  2.9531  1.4161
  133OSM   C14F14448   5.998   1.309   8.048  0.2623 -1.1170 -0.7876
  133OSM   H14F14449   6.033   1.388   8.117 -1.1188  1.2668 -2.6625
  133OSM   H14G14450   6.090   1.289   7.990  1.0828 -0.0267  0.0887
  133OSM   C15F14451   5.944   1.179   8.108  0.1573  0.5530  0.3637
  133OSM   H15F14452   6.027   1.114   8.142  0.6754  0.7919 -0.4117
  133OSM   H15G14453   5.890   1.122   8.030  3.7687  0.1264 -2.0671
  133OSM   C16F14454   5.873   1.218   8.237  0.3984  0.1687 -0.3538
  133OSM   H16F14455   5.828   1.319   8.251 -0.7203 -0.6781  2.9352
  133OSM   H16G14456   5.944   1.207   8.322  0.2125 -0.3775 -0.2666
  133OSM   C17F14457   5.751   1.130   8.273  0.2698 -0.7017  0.2276
  133OSM   H17F14458   5.728   1.139   8.381  0.4726  0.5708  0.1853
  133OSM   H17G14459   5.788   1.027   8.255  1.2507  0.0006 -2.2271
  133OSM   C18F14460   5.624   1.159   8.193  0.0708 -0.2208 -0.4478
  133OSM   H18F14461   5.659   1.156   8.088 -1.8093 -2.0815 -1.0859
  133OSM   H18G14462   5.582   1.258   8.220  1.5971  0.8089 -1.6603
  133OSM   H18H14463   5.562   1.070   8.213 -1.4264  0.9141  0.1120
  134OSM      N14464   5.741   4.530   6.082  0.2212  0.1456 -0.3704
  134OSM    C1514465   5.849   4.431   6.090  0.3836  0.0343 -0.7591
  134OSM   H15A14466   5.886   4.395   5.995  3.8675  1.7454 -0.2261
  134OSM   H15B14467   5.819   4.345   6.149  2.1382 -0.8229 -1.0600
  134OSM   H15C14468   5.934   4.469   6.144  1.4917 -2.9393 -0.2287
  134OSM    C1414469   5.769   4.629   5.973 -0.1818 -0.2004  0.0209
  134OSM   H14A14470   5.864   4.677   5.989  1.1748 -2.6231 -0.2243
  134OSM   H14B14471   5.688   4.695   5.944  0.6600  1.2256  0.8419
  134OSM   H14C14472   5.781   4.581   5.877 -2.0422  1.9970 -1.4261
  134OSM    C1314473   5.611   4.454   6.059  0.3585  0.0043 -0.4570
  134OSM   H13A14474   5.529   4.516   6.026  1.3945  0.8515 -1.5530
  134OSM   H13B14475   5.575   4.412   6.151 -0.7084  0.9680 -0.4182
  134OSM   H13C14476   5.625   4.374   5.988 -2.3189 -0.9000 -0.0889
  134OSM    C1214477   5.730   4.606   6.214  0.5181 -0.0537  0.1094
  134OSM   H12A14478   5.648   4.676   6.200  1.5146  0.7705 -1.9771
  134OSM   H12B14479   5.818   4.659   6.247  0.0209  0.4469  0.6548
  134OSM    C1114480   5.681   4.525   6.337 -0.4130  0.8758 -0.5043
  134OSM   H11A14481   5.580   4.481   6.327 -0.9640  1.8880  0.3274
  134OSM   H11B14482   5.680   4.592   6.426  2.7354  0.4715 -0.0529
  134OSM      P14483   5.733   4.299   6.441  0.4445 -0.0184  0.6944
  134OSM    O1314484   5.648   4.329   6.559 -0.2427  0.3073 -0.0246
  134OSM    O1414485   5.682   4.207   6.338  0.3346 -0.8030 -0.4521
  134OSM    O1114486   5.873   4.250   6.491  0.3989 -0.3315 -0.5368
  134OSM    O1214487   5.781   4.429   6.369  0.3036  0.7071  0.6199
  134OSM    C1S14488   5.944   4.303   6.601 -0.9397 -0.5510  0.0786
  134OSM    H1S14489   5.880   4.375   6.658  1.1549 -0.2367  2.1643
  134OSM    H1T14490   6.029   4.366   6.569 -0.9067 -0.1732  0.8630
  134OSM     NF14491   6.073   4.263   6.798 -0.0276 -0.4422 -1.4083
  134OSM    HNF14492   6.166   4.230   6.785  0.1459  0.0854 -1.5241
  134OSM    C2S14493   5.990   4.196   6.699 -0.1555  0.9416  0.5344
  134OSM    H2S14494   5.901   4.150   6.747  1.1212 -1.8824  0.3830
  134OSM    C3S14495   6.063   4.079   6.632 -0.8613 -0.2777 -0.0999
  134OSM    H3S14496   6.160   4.114   6.589 -0.7219  0.1060  0.5092
  134OSM     O314497   5.994   4.011   6.524  0.3040  0.3545 -0.1192
  134OSM    HO314498   5.927   4.070   6.491 -1.3266 -1.7877 -0.9030
  134OSM    C4S14499   6.084   3.974   6.724 -1.1959  0.9785 -0.8838
  134OSM    H4S14500   6.004   3.902   6.746 -0.3478  0.0626 -0.7075
  134OSM    C5S14501   6.200   3.941   6.775 -0.4287  0.2063 -0.9643
  134OSM    H5S14502   6.289   4.002   6.754 -1.3048  2.0013  0.2696
  134OSM    C6S14503   6.220   3.820   6.867  0.1799 -0.4937 -0.3003
  134OSM    H6S14504   6.291   3.739   6.842  1.2612 -0.9073  3.5323
  134OSM    H6T14505   6.121   3.770   6.881 -0.6387  0.7513 -1.3633
  134OSM    C7S14506   6.266   3.864   7.010  0.2306 -0.9367 -0.4283
  134OSM    H7S14507   6.201   3.950   7.037 -1.3841 -2.7573  1.9633
  134OSM    H7T14508   6.372   3.895   7.010  0.0245 -0.1930 -1.2930
  134OSM    C8S14509   6.252   3.756   7.119  0.1418  0.1890 -0.1403
  134OSM    H8S14510   6.293   3.658   7.085  1.5915  0.5786  0.4511
  134OSM    H8T14511   6.144   3.737   7.139 -0.3507  1.7144 -1.1920
  134OSM    C9S14512   6.321   3.797   7.250 -0.2332  0.2395 -0.3685
  134OSM    H9S14513   6.270   3.893   7.274 -2.7554 -0.7937 -1.2539
  134OSM    H9T14514   6.431   3.807   7.238 -0.4389  0.3727 -2.5716
  134OSM   C10S14515   6.302   3.692   7.363  0.1659 -0.5506  0.3946
  134OSM   H10S14516   6.353   3.597   7.335  1.7107  0.6281 -0.9936
  134OSM   H10T14517   6.196   3.661   7.372 -1.0032  1.7562 -3.0839
  134OSM   C11S14518   6.350   3.740   7.506 -0.3780  0.2959  0.2426
  134OSM   H11S14519   6.307   3.837   7.539 -1.7510  0.0917 -0.8609
  134OSM   H11T14520   6.460   3.747   7.497 -0.4197 -1.0862 -2.3378
  134OSM   C12S14521   6.303   3.640   7.612 -0.1153 -0.0892  0.6637
  134OSM   H12S14522   6.334   3.537   7.584 -0.0451  0.3425 -0.9787
  134OSM   H12T14523   6.192   3.652   7.620 -0.1044  2.7834 -1.8461
  134OSM   C13S14524   6.372   3.669   7.744 -1.1441 -0.1792  0.0729
  134OSM   H13S14525   6.340   3.772   7.769 -1.3444 -0.4115  0.7906
  134OSM   H13T14526   6.480   3.672   7.719 -1.2722  0.1211 -0.4772
  134OSM   C14S14527   6.337   3.572   7.849 -0.0889 -0.0489  0.2112
  134OSM   H14S14528   6.375   3.476   7.809 -1.3988  0.0759 -1.4706
  134OSM   H14T14529   6.230   3.552   7.869  0.0928 -2.0480 -0.5677
  134OSM   C15S14530   6.402   3.602   7.983 -0.7102  0.4767 -0.7393
  134OSM   H15S14531   6.360   3.686   8.043 -1.3371 -0.3960  0.0811
  134OSM   H15T14532   6.505   3.625   7.948  0.2414 -3.0293 -0.5551
  134OSM   C16S14533   6.405   3.472   8.070 -0.4298  0.1331 -0.1714
  134OSM   H16S14534   6.427   3.389   8.000 -0.1746  1.5375 -1.8291
  134OSM   H16T14535   6.305   3.449   8.114 -0.1642  1.1440  1.0018
  134OSM   C17S14536   6.529   3.481   8.168 -0.2775  0.5285  0.0941
  134OSM   H17S14537   6.520   3.570   8.235 -0.7104  1.2068 -0.8423
  134OSM   H17T14538   6.615   3.518   8.110  1.0547  1.7318  2.6589
  134OSM   C18S14539   6.552   3.362   8.251  0.7133 -0.3580  0.0753
  134OSM   H18S14540   6.575   3.271   8.192 -0.9243  0.0328 -1.2590
  134OSM   H18T14541   6.462   3.365   8.317  1.3785  2.1123  0.9838
  134OSM   H18U14542   6.636   3.370   8.323  3.9526 -3.2737 -2.9966
  134OSM    C1F14543   6.038   4.358   6.886 -0.6052  0.0350 -0.5790
  134OSM     OF14544   5.926   4.404   6.888  0.2276 -0.2493 -0.1724
  134OSM    C2F14545   6.148   4.416   6.968 -0.4064 -0.1658 -0.0787
  134OSM    H2F14546   6.195   4.497   6.908 -0.2121  1.3243  1.9638
  134OSM    H2G14547   6.221   4.335   6.987 -0.4428  0.1191  1.3502
  134OSM    C3F14548   6.093   4.474   7.102 -0.0226  0.4223  0.5116
  134OSM    H3F14549   6.014   4.402   7.130 -2.0716  1.6462 -1.7847
  134OSM    H3G14550   6.029   4.562   7.082  0.7834  1.2484  1.4243
  134OSM    C4F14551   6.193   4.492   7.214  0.7961 -0.5025 -0.8920
  134OSM    H4F14552   6.241   4.591   7.203 -0.2126 -0.0403 -1.2594
  134OSM    H4G14553   6.275   4.417   7.213  1.3234 -0.0366  1.4896
  134OSM    C5F14554   6.120   4.491   7.353 -0.0770 -0.1505 -0.0015
  134OSM    H5F14555   6.051   4.404   7.355 -1.8016  1.1635 -0.4051
  134OSM    H5G14556   6.068   4.589   7.354 -0.6284 -0.3995 -1.8312
  134OSM    C6F14557   6.217   4.496   7.472 -0.0053  0.0633  0.2215
  134OSM    H6F14558   6.282   4.407   7.483  0.0351  0.0787  0.1090
  134OSM    H6G14559   6.149   4.493   7.560 -1.3173  2.0694 -0.6265
  134OSM    C7F14560   6.296   4.626   7.479  0.7445 -0.2281  0.2353
  134OSM    H7F14561   6.235   4.706   7.433 -1.0320  0.5168  3.5559
  134OSM    H7G14562   6.387   4.612   7.417 -0.4929 -0.2839 -1.6424
  134OSM    C8F14563   6.321   4.664   7.631  0.7493 -0.6109  0.1303
  134OSM    H8F14564   6.225   4.682   7.684 -0.0668 -2.9099 -0.4673
  134OSM    H8G14565   6.378   4.759   7.635  0.1997 -0.2826  0.3774
  134OSM    C9F14566   6.395   4.555   7.697 -0.1562  0.4415  0.1182
  134OSM    H9F14567   6.479   4.513   7.641 -1.8017  0.1653 -2.2688
  134OSM   C10F14568   6.350   4.484   7.800 -0.4634  0.2719  0.0498
  134OSM   H10F14569   6.413   4.399   7.829 -1.0271 -0.2727 -0.2853
  134OSM   C11F14570   6.211   4.494   7.868 -0.4801 -0.1226 -0.1013
  134OSM   H11F14571   6.153   4.400   7.853 -1.2870  0.4678 -0.8416
  134OSM   H11G14572   6.143   4.566   7.817  0.5807  2.0435  1.4021
  134OSM   C12F14573   6.219   4.528   8.019  0.4272 -0.1423 -0.0907
  134OSM   H12F14574   6.310   4.484   8.064  0.4075  0.4211  0.5102
  134OSM   H12G14575   6.124   4.506   8.072 -1.6580  3.6543 -1.7867
  134OSM   C13F14576   6.230   4.679   8.056 -0.2452  0.3372 -0.4923
  134OSM   H13F14577   6.139   4.731   8.019 -0.3183 -0.7817 -1.9678
  134OSM   H13G14578   6.313   4.724   7.997  0.4939  0.1450  0.3747
  134OSM   C14F14579   6.261   4.731   8.199  0.1169 -0.3304  0.5784
  134OSM   H14F14580   6.273   4.842   8.191 -2.4784 -0.1117 -1.4863
  134OSM   H14G14581   6.353   4.692   8.248  0.1777  0.2461  0.9368
  134OSM   C15F14582   6.151   4.701   8.299 -0.4723 -1.0043  0.3022
  134OSM   H15F14583   6.139   4.591   8.306 -0.4807 -1.2061 -2.1538
  134OSM   H15G14584   6.059   4.747   8.258  0.5843  0.9365 -0.0095
  134OSM   C16F14585   6.188   4.748   8.444 -0.1946 -0.4204  0.2474
  134OSM   H16F14586   6.114   4.713   8.518  0.8388  0.7025  1.8761
  134OSM   H16G14587   6.179   4.858   8.456  2.6964 -0.0633 -0.1527
  134OSM   C17F14588   6.326   4.696   8.496  0.2395 -0.4092  0.3879
  134OSM   H17F14589   6.353   4.611   8.430 -1.2399  0.1779 -1.0549
  134OSM   H17G14590   6.303   4.666   8.600  0.0036  1.1205  0.7942
  134OSM   C18F14591   6.433   4.804   8.503 -0.7794  0.3684 -0.6743
  134OSM   H18F14592   6.533   4.765   8.532 -0.7344  1.9281  1.5246
  134OSM   H18G14593   6.405   4.879   8.580 -1.3748 -1.1122  0.5940
  134OSM   H18H14594   6.440   4.846   8.400 -0.7938  0.3261 -0.6929
  135OSM      N14595   5.176   3.670   6.043 -0.1036 -0.1284  0.1582
  135OSM    C1514596   5.161   3.580   6.159  0.1908 -0.2546 -0.3181
  135OSM   H15A14597   5.088   3.620   6.228  2.1678  1.3610  0.9812
  135OSM   H15B14598   5.251   3.584   6.219 -0.1249  3.0378  0.1611
  135OSM   H15C14599   5.123   3.480   6.145 -0.7355 -0.1457  1.1814
  135OSM    C1414600   5.287   3.615   5.967 -0.1249  0.3733 -0.4185
  135OSM   H14A14601   5.384   3.620   6.014 -0.6130  1.7409  0.4842
  135OSM   H14B14602   5.301   3.672   5.876  1.2819  0.0471 -0.4312
  135OSM   H14C14603   5.274   3.511   5.938 -1.4269  0.1055  1.0453
  135OSM    C1314604   5.058   3.661   5.947 -0.1135  0.0332  0.4765
  135OSM   H13A14605   4.971   3.691   6.003 -2.3772 -0.6181 -2.4240
  135OSM   H13B14606   5.053   3.566   5.897 -1.4566  1.3822 -2.1997
  135OSM   H13C14607   5.068   3.735   5.868 -2.4238  0.4439  0.5098
  135OSM    C1214608   5.195   3.810   6.091 -0.0804  0.5471 -0.3683
  135OSM   H12A14609   5.116   3.830   6.162 -0.1911 -0.5455 -0.1737
  135OSM   H12B14610   5.179   3.872   6.004  0.3865  0.4701 -0.5093
  135OSM    C1114611   5.322   3.845   6.166 -0.2420  0.7197 -0.1830
  135OSM   H11A14612   5.304   3.949   6.201 -1.7639 -0.2542  2.2059
  135OSM   H11B14613   5.399   3.837   6.086  0.6084 -1.8232  0.7930
  135OSM      P14614   5.484   3.673   6.305  0.1514  0.1935 -0.2854
  135OSM    O1314615   5.457   3.587   6.423  0.3871 -0.2876  0.1493
  135OSM    O1414616   5.523   3.610   6.175  1.2410  0.4404 -0.2582
  135OSM    O1114617   5.595   3.786   6.347 -0.5224  0.2626 -0.0717
  135OSM    O1214618   5.356   3.760   6.283 -0.4668  0.1819  0.6566
  135OSM    C1S14619   5.571   3.892   6.445  0.3126 -0.2340 -0.3629
  135OSM    H1S14620   5.484   3.956   6.417  1.5962  1.4762 -0.5967
  135OSM    H1T14621   5.664   3.952   6.442 -0.4961  1.0798 -0.0984
  135OSM     NF14622   5.527   3.956   6.677  0.0128 -0.1244 -0.1012
  135OSM    HNF14623   5.601   3.985   6.737  1.0330 -0.5444 -1.0985
  135OSM    C2S14624   5.563   3.846   6.592  0.3599 -0.6047  0.0200
  135OSM    H2S14625   5.477   3.776   6.588  0.4831 -0.7067 -1.0800
  135OSM    C3S14626   5.697   3.771   6.636  0.4481 -0.1620 -0.2860
  135OSM    H3S14627   5.779   3.842   6.660 -0.1737 -0.3853  3.0335
  135OSM     O314628   5.747   3.678   6.542 -0.2842 -0.2184  0.2435
  135OSM    HO314629   5.686   3.673   6.469  1.1483 -0.2951 -1.0033
  135OSM    C4S14630   5.675   3.708   6.768 -1.1339 -0.0132 -0.1658
  135OSM    H4S14631   5.717   3.768   6.850 -1.6526  1.1499 -0.7240
  135OSM    C5S14632   5.632   3.582   6.795 -0.6183  0.6928  0.7752
  135OSM    H5S14633   5.631   3.510   6.713 -3.2569  1.2741  0.1989
  135OSM    C6S14634   5.618   3.523   6.933 -0.9328  0.4492  0.2364
  135OSM    H6S14635   5.677   3.430   6.944  0.4750  1.2409 -0.3857
  135OSM    H6T14636   5.513   3.490   6.944 -0.5295 -0.4739  1.4891
  135OSM    C7S14637   5.641   3.615   7.060  0.3885  0.0611  0.1816
  135OSM    H7S14638   5.579   3.706   7.056  0.7109  0.2625 -0.2828
  135OSM    H7T14639   5.749   3.641   7.072  0.2403  0.1467  1.4580
  135OSM    C8S14640   5.608   3.527   7.179  0.5138 -0.3797 -0.3177
  135OSM    H8S14641   5.674   3.438   7.175 -1.2202 -1.7673  0.4411
  135OSM    H8T14642   5.500   3.501   7.167 -0.8537  3.1839  2.4705
  135OSM    C9S14643   5.628   3.595   7.312  0.1112 -0.5094 -0.1045
  135OSM    H9S14644   5.581   3.695   7.308  1.7728  0.3215  0.2526
  135OSM    H9T14645   5.737   3.613   7.324  0.2449 -0.4863 -1.2434
  135OSM   C10S14646   5.574   3.518   7.437 -0.3459 -0.1587  0.4153
  135OSM   H10S14647   5.625   3.419   7.432  1.5526  0.8223 -0.5287
  135OSM   H10T14648   5.464   3.504   7.436 -0.3734 -0.5207  3.0066
  135OSM   C11S14649   5.628   3.579   7.567 -0.5812 -0.1128 -0.0404
  135OSM   H11S14650   5.593   3.684   7.567  1.0031  0.4681 -1.4847
  135OSM   H11T14651   5.737   3.597   7.558 -0.4191 -0.8394  0.4451
  135OSM   C12S14652   5.606   3.502   7.695 -0.0017 -0.0544  0.3223
  135OSM   H12S14653   5.656   3.403   7.685  1.4458  0.5535  1.3558
  135OSM   H12T14654   5.498   3.478   7.708 -0.1598  1.0418  1.2207
  135OSM   C13S14655   5.660   3.571   7.823  0.1818 -0.6530  0.4854
  135OSM   H13S14656   5.607   3.663   7.855 -0.3905 -0.8169  0.0350
  135OSM   H13T14657   5.768   3.592   7.810  0.0740 -0.1347  0.4180
  135OSM   C14S14658   5.658   3.470   7.938 -0.0467  0.2353 -0.7692
  135OSM   H14S14659   5.695   3.371   7.903  0.3693 -0.2986  1.0690
  135OSM   H14T14660   5.557   3.456   7.981  0.7483  0.5367  1.3194
  135OSM   C15S14661   5.740   3.522   8.058 -0.5107  0.4005  0.6477
  135OSM   H15S14662   5.716   3.628   8.082  0.7051  0.7424  0.4020
  135OSM   H15T14663   5.842   3.516   8.016 -1.4654 -1.3556 -1.6526
  135OSM   C16S14664   5.747   3.418   8.176  0.4691 -0.9349 -0.2025
  135OSM   H16S14665   5.786   3.319   8.144  2.3478 -1.2297  2.6349
  135OSM   H16T14666   5.643   3.407   8.214  0.3005  0.8464 -0.0627
  135OSM   C17S14667   5.837   3.476   8.292  0.1627 -0.1873 -0.5629
  135OSM   H17S14668   5.820   3.432   8.393 -1.8528  1.3124 -0.1901
  135OSM   H17T14669   5.811   3.584   8.300  0.7885 -0.1139  1.1158
  135OSM   C18S14670   5.987   3.470   8.254 -0.6927  0.0445  0.3714
  135OSM   H18S14671   6.028   3.367   8.239 -0.2836  0.1440  0.8007
  135OSM   H18T14672   6.046   3.522   8.331 -0.5780  0.3710  0.0628
  135OSM   H18U14673   6.008   3.507   8.152 -0.5144 -0.6650  0.1456
  135OSM    C1F14674   5.406   4.024   6.677  0.3271  0.5041  0.0115
  135OSM     OF14675   5.316   3.997   6.596  0.5742  0.2284  0.2828
  135OSM    C2F14676   5.396   4.125   6.782  0.6497 -0.1661  0.1066
  135OSM    H2F14677   5.456   4.217   6.767  0.5017 -0.4039 -2.4227
  135OSM    H2G14678   5.438   4.082   6.876  1.6234  1.0262  0.2388
  135OSM    C3F14679   5.251   4.166   6.806  0.2678  0.5713 -0.5659
  135OSM    H3F14680   5.200   4.074   6.842  0.7982  0.8771  1.0397
  135OSM    H3G14681   5.200   4.197   6.712 -2.1910 -0.4502  0.3361
  135OSM    C4F14682   5.242   4.281   6.908  0.8020  0.0733 -0.3498
  135OSM    H4F14683   5.138   4.321   6.903  0.6538 -0.4155 -1.4995
  135OSM    H4G14684   5.316   4.357   6.876  1.1430  0.5895  1.5442
  135OSM    C5F14685   5.273   4.248   7.056  0.4673  0.1690  0.1430
  135OSM    H5F14686   5.370   4.194   7.058  0.9009  0.7918 -1.9295
  135OSM    H5G14687   5.201   4.170   7.090 -0.5568  0.9510 -0.1788
  135OSM    C6F14688   5.269   4.365   7.143 -0.7780 -0.3634 -0.0865
  135OSM    H6F14689   5.213   4.443   7.086  0.5094 -1.4213 -3.0045
  135OSM    H6G14690   5.366   4.417   7.161 -0.3404 -1.3901  0.5831
  135OSM    C7F14691   5.202   4.342   7.276 -0.2578 -0.5532  0.4416
  135OSM    H7F14692   5.103   4.300   7.249  0.0736 -0.4134 -1.0612
  135OSM    H7G14693   5.181   4.439   7.326  1.4597  0.1532 -0.1347
  135OSM    C8F14694   5.272   4.257   7.383 -0.6441 -0.3010 -0.5226
  135OSM    H8F14695   5.371   4.301   7.409 -0.6686 -0.3846 -0.2825
  135OSM    H8G14696   5.300   4.152   7.356  0.4882 -0.1758  0.0735
  135OSM    C9F14697   5.175   4.252   7.503 -0.0879 -0.6528 -0.3810
  135OSM    H9F14698   5.074   4.218   7.476  0.6925 -3.4359 -0.0353
  135OSM   C10F14699   5.205   4.284   7.634 -0.0220  0.2756  0.2867
  135OSM   H10F14700   5.125   4.294   7.709  2.2551 -2.7780  3.4176
  135OSM   C11F14701   5.346   4.317   7.688  0.5308  0.4783  0.4925
  135OSM   H11F14702   5.345   4.399   7.762  0.7836  0.1522  0.8584
  135OSM   H11G14703   5.410   4.333   7.599  2.6505  1.8025  2.1651
  135OSM   C12F14704   5.403   4.193   7.758  0.5137 -0.2008  0.3473
  135OSM   H12F14705   5.501   4.223   7.801  0.1184  0.2074  0.9841
  135OSM   H12G14706   5.403   4.100   7.699 -0.8489  0.0302 -0.0389
  135OSM   C13F14707   5.325   4.178   7.895 -0.2644  0.0116  0.7956
  135OSM   H13F14708   5.227   4.142   7.859 -0.5263  1.3184  0.1368
  135OSM   H13G14709   5.309   4.277   7.943 -1.0791 -0.8698  2.4171
  135OSM   C14F14710   5.402   4.078   7.983 -0.3503  0.3226  0.2081
  135OSM   H14F14711   5.506   4.113   7.994 -0.3090 -0.4946  3.2972
  135OSM   H14G14712   5.412   3.981   7.930 -3.9198  0.8465 -1.7538
  135OSM   C15F14713   5.331   4.048   8.114  0.2408 -0.2931 -0.1005
  135OSM   H15F14714   5.235   3.997   8.089  0.2793  0.3525 -1.7423
  135OSM   H15G14715   5.315   4.144   8.168 -1.6833 -0.7148  0.1419
  135OSM   C16F14716   5.428   3.957   8.200  0.5390 -0.0007 -0.4031
  135OSM   H16F14717   5.517   4.003   8.246  1.4225  0.1343 -2.1583
  135OSM   H16G14718   5.458   3.875   8.131 -0.5881  0.1555 -1.1172
  135OSM   C17F14719   5.361   3.881   8.313  0.0631 -0.0520  0.5479
  135OSM   H17F14720   5.421   3.793   8.343 -0.8549 -1.7073 -2.1046
  135OSM   H17G14721   5.265   3.836   8.280  1.2930 -2.5155  0.0786
  135OSM   C18F14722   5.348   3.977   8.426 -0.8186 -0.2701 -0.1701
  135OSM   H18F14723   5.308   3.934   8.521 -2.2378 -0.7032 -0.9353
  135OSM   H18G14724   5.292   4.065   8.388 -1.4822 -1.5897 -2.3797
  135OSM   H18H14725   5.450   4.013   8.451 -0.4789  0.0786 -1.9573
  136OSM      N14726   4.274   3.562   5.950  0.0972  0.1690 -0.3927
  136OSM    C1514727   4.216   3.700   5.940  0.0448  0.5192  0.2100
  136OSM   H15A14728   4.278   3.771   5.994  0.3409 -0.0752  0.6597
  136OSM   H15B14729   4.126   3.711   5.999 -2.1221  0.6817 -2.9192
  136OSM   H15C14730   4.214   3.740   5.840  0.9295  1.2285  0.4643
  136OSM    C1414731   4.208   3.457   5.863 -0.1110  0.5170 -0.7493
  136OSM   H14A14732   4.188   3.491   5.763 -1.2574 -0.5181 -0.8811
  136OSM   H14B14733   4.116   3.417   5.901 -0.8826  0.4935 -2.5662
  136OSM   H14C14734   4.273   3.371   5.858 -0.4065 -0.0082  2.3172
  136OSM    C1314735   4.413   3.564   5.898  0.3100  0.5011 -0.0926
  136OSM   H13A14736   4.449   3.463   5.890 -2.5594 -0.5841 -0.4010
  136OSM   H13B14737   4.482   3.617   5.962 -0.9438 -0.2303  1.9295
  136OSM   H13C14738   4.411   3.602   5.796  1.6052 -1.2032 -0.7926
  136OSM    C1214739   4.281   3.517   6.092 -0.2534  0.3830  0.3533
  136OSM   H12A14740   4.350   3.434   6.100  1.8057  1.7332 -2.0465
  136OSM   H12B14741   4.183   3.488   6.126 -0.1717  1.3166  1.4664
  136OSM    C1114742   4.347   3.630   6.187 -0.4536 -0.4947 -0.2661
  136OSM   H11A14743   4.356   3.589   6.290 -1.5661  3.2395  1.5108
  136OSM   H11B14744   4.267   3.705   6.202  1.4897  1.4194  1.0959
  136OSM      P14745   4.497   3.839   6.132  0.3435 -0.2223 -0.1600
  136OSM    O1314746   4.628   3.857   6.065 -0.3241 -0.1328  0.6228
  136OSM    O1414747   4.383   3.906   6.075 -0.6764 -0.2158 -0.0806
  136OSM    O1114748   4.500   3.883   6.284  0.2709  0.0284  0.0809
  136OSM    O1214749   4.471   3.684   6.141  0.7035  0.3502  0.2175
  136OSM    C1S14750   4.604   3.841   6.374  0.2751 -0.0679 -0.0069
  136OSM    H1S14751   4.699   3.886   6.339  0.4240 -0.0736  0.3887
  136OSM    H1T14752   4.611   3.730   6.374 -1.9526 -0.3033  2.8360
  136OSM     NF14753   4.666   3.839   6.611 -0.4758 -0.7511 -0.0919
  136OSM    HNF14754   4.667   3.752   6.660 -2.1038 -0.2846  0.8576
  136OSM    C2S14755   4.565   3.874   6.521 -0.3362  0.4836 -0.1369
  136OSM    H2S14756   4.543   3.983   6.522  1.1691  0.8177  1.5637
  136OSM    C3S14757   4.434   3.799   6.556 -0.0953  0.6844  0.6622
  136OSM    H3S14758   4.460   3.692   6.572 -1.3582 -0.0308 -1.6292
  136OSM     O314759   4.324   3.803   6.462 -0.1116  0.2942 -0.0924
  136OSM    HO314760   4.373   3.805   6.380  1.8729 -1.8680  0.8880
  136OSM    C4S14761   4.403   3.853   6.691  0.3388 -0.2024  1.1417
  136OSM    H4S14762   4.444   3.791   6.772 -3.3101 -2.0333  1.8234
  136OSM    C5S14763   4.341   3.966   6.735  0.1798 -0.5707 -0.2950
  136OSM    H5S14764   4.292   4.030   6.660 -1.0058 -0.2001  0.7487
  136OSM    C6S14765   4.325   4.002   6.876  0.3510  0.2390 -0.5595
  136OSM    H6S14766   4.237   3.942   6.908 -0.5070  0.9616 -1.5127
  136OSM    H6T14767   4.295   4.109   6.876 -1.3036 -0.1934 -0.4759
  136OSM    C7S14768   4.440   3.984   6.976  0.2586 -0.0882  0.4172
  136OSM    H7S14769   4.516   4.060   6.948  0.2176  0.1841  1.0398
  136OSM    H7T14770   4.486   3.885   6.959  0.9883  0.7299 -3.4503
  136OSM    C8S14771   4.389   3.999   7.120 -0.5318 -0.7435 -0.0535
  136OSM    H8S14772   4.450   3.947   7.198 -3.5839  0.5168  3.4329
  136OSM    H8T14773   4.286   3.960   7.122 -0.4790 -0.9494 -0.9162
  136OSM    C9S14774   4.382   4.143   7.167  0.1607  0.3125 -0.7225
  136OSM    H9S14775   4.321   4.201   7.095  1.7965  1.5126 -1.1884
  136OSM    H9T14776   4.481   4.193   7.168  0.1129  0.3991  0.1232
  136OSM   C10S14777   4.317   4.132   7.303  0.2572 -0.5335  0.2139
  136OSM   H10S14778   4.392   4.085   7.370 -0.7046  0.5114  2.1184
  136OSM   H10T14779   4.223   4.073   7.308 -0.0713 -0.1710 -1.2840
  136OSM   C11S14780   4.284   4.270   7.358 -0.5575 -0.3484 -0.9421
  136OSM   H11S14781   4.194   4.313   7.309 -1.3124 -2.5711 -1.6201
  136OSM   H11T14782   4.372   4.328   7.323 -0.3245 -1.8471 -3.0327
  136OSM   C12S14783   4.251   4.282   7.507 -0.4760  0.0472  0.1931
  136OSM   H12S14784   4.174   4.204   7.527  0.9934 -1.4534  0.2700
  136OSM   H12T14785   4.207   4.383   7.522  1.0016  0.8435 -0.6240
  136OSM   C13S14786   4.369   4.250   7.601  0.0608  0.2727 -0.4529
  136OSM   H13S14787   4.461   4.299   7.563  2.1892 -2.6784  0.5474
  136OSM   H13T14788   4.383   4.140   7.599 -2.4874 -0.1083 -2.2830
  136OSM   C14S14789   4.349   4.294   7.742  0.5033 -0.1470  0.5454
  136OSM   H14S14790   4.252   4.250   7.773  0.5831 -0.5982  0.1747
  136OSM   H14T14791   4.356   4.405   7.743 -0.3251 -0.0847  0.2434
  136OSM   C15S14792   4.451   4.230   7.838 -0.3405  0.7006  0.3602
  136OSM   H15S14793   4.541   4.235   7.775 -2.2415  1.5121 -2.4939
  136OSM   H15T14794   4.431   4.121   7.848  0.3274  0.4681 -0.7548
  136OSM   C16S14795   4.447   4.297   7.981 -0.6704  0.2363  0.0195
  136OSM   H16S14796   4.526   4.234   8.026  0.4297 -0.9714 -3.2899
  136OSM   H16T14797   4.359   4.266   8.042 -0.4533  0.1280  0.2803
  136OSM   C17S14798   4.516   4.436   7.992  1.1854  0.2847  0.2948
  136OSM   H17S14799   4.586   4.447   7.908  0.5655  1.0294 -0.1361
  136OSM   H17T14800   4.571   4.442   8.088  1.6389 -1.0533  0.1433
  136OSM   C18S14801   4.401   4.540   7.996  0.5129 -0.5755 -0.2750
  136OSM   H18S14802   4.318   4.513   8.064 -0.1896  0.3807 -0.7344
  136OSM   H18T14803   4.366   4.571   7.895 -0.7951 -1.0852  0.0042
  136OSM   H18U14804   4.440   4.639   8.027 -1.3700  0.1601 -0.1599
  136OSM    C1F14805   4.769   3.925   6.621 -0.1463 -0.7480 -0.4931
  136OSM     OF14806   4.756   4.042   6.575  0.3106  0.4546 -0.3935
  136OSM    C2F14807   4.891   3.873   6.695 -0.2856  0.5222  1.0831
  136OSM    H2F14808   4.981   3.872   6.630 -0.7675 -0.8058  0.4080
  136OSM    H2G14809   4.875   3.767   6.724  2.1266 -0.6160 -1.3033
  136OSM    C3F14810   4.935   3.960   6.816  0.1715  0.3205 -0.7516
  136OSM    H3F14811   4.964   4.062   6.783 -1.1154  0.7410 -0.6767
  136OSM    H3G14812   5.018   3.896   6.852 -0.7613 -0.4484  0.1096
  136OSM    C4F14813   4.835   3.966   6.934 -0.0529 -0.1533  0.1956
  136OSM    H4F14814   4.810   3.869   6.981  1.5934  0.5818  2.7893
  136OSM    H4G14815   4.743   4.012   6.892  0.9379  3.2021  1.3960
  136OSM    C5F14816   4.878   4.067   7.051 -0.6867 -0.7302  0.3671
  136OSM    H5F14817   4.861   4.165   7.001  1.5356 -1.0629 -1.1561
  136OSM    H5G14818   4.988   4.060   7.061 -0.3432  1.3671 -1.3987
  136OSM    C6F14819   4.794   4.041   7.172  0.7573 -0.3635  0.5791
  136OSM    H6F14820   4.781   3.932   7.189  1.4021 -0.5454 -0.0347
  136OSM    H6G14821   4.692   4.082   7.153  2.1427  2.9302 -0.5197
  136OSM    C7F14822   4.866   4.104   7.292 -0.0375 -0.8507  0.8938
  136OSM    H7F14823   4.868   4.214   7.276  0.5700 -0.7281  1.7465
  136OSM    H7G14824   4.970   4.065   7.287 -0.8562 -3.0790 -0.4741
  136OSM    C8F14825   4.805   4.087   7.433 -0.0905 -0.1796  0.1048
  136OSM    H8F14826   4.700   4.121   7.428  0.1422  0.4432 -0.7750
  136OSM    H8G14827   4.850   4.157   7.506  0.2145 -0.8367  0.5610
  136OSM    C9F14828   4.823   3.949   7.495 -0.6217  0.2581  0.2307
  136OSM    H9F14829   4.845   3.864   7.428  0.2990 -0.4262  1.3509
  136OSM   C10F14830   4.805   3.916   7.629 -1.2043 -0.3885  0.1268
  136OSM   H10F14831   4.810   3.810   7.658  1.0188  0.4834  3.4984
  136OSM   C11F14832   4.780   4.022   7.738  0.0094  0.2739  0.3654
  136OSM   H11F14833   4.730   3.974   7.825 -0.3245 -1.5125 -0.7547
  136OSM   H11G14834   4.722   4.109   7.702 -0.6126 -0.2440  0.1034
  136OSM   C12F14835   4.913   4.054   7.804  0.6150  0.1872  0.4796
  136OSM   H12F14836   4.986   4.089   7.728 -0.5780  0.4123 -0.5988
  136OSM   H12G14837   4.959   3.958   7.837 -0.1119 -0.0427  0.8369
  136OSM   C13F14838   4.909   4.146   7.925 -0.2494  0.8162 -0.0016
  136OSM   H13F14839   4.849   4.231   7.885 -0.9247 -0.7273 -2.5139
  136OSM   H13G14840   5.012   4.183   7.941 -0.3294  0.5786  1.1315
  136OSM   C14F14841   4.857   4.086   8.056  0.3696  0.7681  0.7536
  136OSM   H14F14842   4.929   4.015   8.103 -0.8931 -0.2610  1.1949
  136OSM   H14G14843   4.776   4.018   8.023  2.6916 -1.7869 -0.0514
  136OSM   C15F14844   4.798   4.191   8.157 -0.4914 -0.3276 -0.3752
  136OSM   H15F14845   4.739   4.263   8.097  0.2577  0.5104 -0.1268
  136OSM   H15G14846   4.891   4.249   8.175 -0.4261 -0.3135 -0.7518
  136OSM   C16F14847   4.722   4.147   8.283 -1.2186  0.2224  0.5644
  136OSM   H16F14848   4.648   4.070   8.254 -0.4177 -0.2010 -0.4133
  136OSM   H16G14849   4.668   4.238   8.317  1.7479  2.8272 -1.0982
  136OSM   C17F14850   4.809   4.105   8.400 -0.2273 -0.0818 -0.1083
  136OSM   H17F14851   4.876   4.188   8.430 -1.6685  0.6813  1.1361
  136OSM   H17G14852   4.862   4.013   8.367 -0.5561 -0.2210 -0.2496
  136OSM   C18F14853   4.722   4.068   8.523  0.6357  0.2668  0.3685
  136OSM   H18F14854   4.771   4.008   8.603  0.0211 -0.2575  0.3523
  136OSM   H18G14855   4.635   4.008   8.490  0.2168  0.4312  1.1439
  136OSM   H18H14856   4.688   4.164   8.568  0.0570 -0.2539  1.0668
  137OSM      N14857   0.396   3.163   6.407 -0.0254 -0.1538  1.1654
  137OSM    C1514858   0.297   3.229   6.500 -0.2337 -0.2609 -0.5297
  137OSM   H15A14859   0.266   3.326   6.463  0.0018 -0.0069 -0.0665
  137OSM   H15B14860   0.336   3.250   6.599 -0.1992  2.4809 -1.0227
  137OSM   H15C14861   0.210   3.166   6.510 -0.9669  0.7325 -0.4757
  137OSM    C1414862   0.508   3.259   6.367 -0.8884 -0.2443  0.6531
  137OSM   H14A14863   0.538   3.322   6.450 -1.9092 -1.3688  1.9212
  137OSM   H14B14864   0.481   3.312   6.277  3.2024  0.2331 -0.4971
  137OSM   H14C14865   0.592   3.201   6.333  1.4286  4.0323 -1.6763
  137OSM    C1314866   0.454   3.043   6.473  0.2264 -0.6363  0.3687
  137OSM   H13A14867   0.382   2.964   6.487 -2.2522  1.4759  0.2007
  137OSM   H13B14868   0.508   3.063   6.565  0.6712  0.0935 -0.0425
  137OSM   H13C14869   0.529   3.002   6.407  0.6432 -2.3770  1.8260
  137OSM    C1214870   0.321   3.121   6.279 -0.6500 -0.6272 -0.2540
  137OSM   H12A14871   0.387   3.053   6.227 -1.2035 -0.9708 -0.5062
  137OSM   H12B14872   0.295   3.209   6.222 -2.7690 -1.1989 -0.2419
  137OSM    C1114873   0.186   3.047   6.294  0.2528  0.2058 -0.2781
  137OSM   H11A14874   0.169   3.006   6.192  3.7788 -2.0303 -0.1549
  137OSM   H11B14875   0.105   3.113   6.332 -0.2639 -1.2039  1.1828
  137OSM      P14876   0.093   2.838   6.422 -0.3127 -0.3528  0.3836
  137OSM    O1314877  -0.041   2.887   6.379  0.3101  0.1326 -0.1755
  137OSM    O1414878   0.134   2.700   6.380  0.2185  0.2263  0.2540
  137OSM    O1114879   0.093   2.844   6.577 -0.6433 -0.0811  0.0150
  137OSM    O1214880   0.203   2.942   6.386  0.2293  0.3746  0.0531
  137OSM    C1S14881   0.211   2.886   6.653  0.0667 -0.7320  0.6338
  137OSM    H1S14882   0.230   2.991   6.621 -3.6882 -0.1009  0.0028
  137OSM    H1T14883   0.298   2.822   6.629  1.3485  2.1296 -3.2930
  137OSM     NF14884   0.289   2.957   6.868 -0.2256 -0.2186  0.1008
  137OSM    HNF14885   0.349   2.906   6.929 -0.6743  0.5087  1.1728
  137OSM    C2S14886   0.179   2.891   6.799 -0.4765 -0.7819 -0.1108
  137OSM    H2S14887   0.100   2.967   6.819  0.0721 -0.1749 -0.2088
  137OSM    C3S14888   0.142   2.753   6.846  0.0427 -0.0294  0.4289
  137OSM    H3S14889   0.234   2.696   6.824  0.3123  1.2664 -2.1837
  137OSM     O314890   0.027   2.698   6.781  0.0851 -0.2612  0.4063
  137OSM    HO314891   0.026   2.745   6.697  0.4466 -0.8015  0.0895
  137OSM    C4S14892   0.121   2.762   6.998  0.7874  0.0073 -0.3692
  137OSM    H4S14893   0.203   2.721   7.059  2.0805  0.4812 -1.7007
  137OSM    C5S14894   0.005   2.794   7.061 -0.1150 -0.6402 -0.0803
  137OSM    H5S14895  -0.081   2.824   6.998 -0.7370 -2.5998 -0.2125
  137OSM    C6S14896  -0.004   2.804   7.207 -0.3991  0.2167  0.3799
  137OSM    H6S14897  -0.081   2.731   7.240 -0.0568 -0.0976  0.4869
  137OSM    H6T14898  -0.039   2.906   7.234 -0.3527  0.1682  0.6247
  137OSM    C7S14899   0.130   2.793   7.278 -0.7085  0.2939 -0.6817
  137OSM    H7S14900   0.206   2.870   7.251  1.4414 -1.3253  0.3935
  137OSM    H7T14901   0.176   2.693   7.257  2.6459  1.3933  0.6928
  137OSM    C8S14902   0.126   2.809   7.429  0.4159 -0.5359  0.1015
  137OSM    H8S14903   0.079   2.906   7.459  0.9947  0.1779 -1.2314
  137OSM    H8T14904   0.226   2.819   7.477 -1.4244  4.5602  3.8281
  137OSM    C9S14905   0.038   2.703   7.494  0.2137 -0.3961  0.0756
  137OSM    H9S14906   0.056   2.604   7.447  0.1208 -0.1893 -0.4014
  137OSM    H9T14907  -0.067   2.726   7.467  0.1107  0.4153  1.1032
  137OSM   C10S14908   0.052   2.707   7.647  0.8106  0.5664 -1.0462
  137OSM   H10S14909  -0.028   2.643   7.690  0.9247  0.2708 -1.2654
  137OSM   H10T14910   0.019   2.811   7.669 -1.9331 -0.3611 -0.3300
  137OSM   C11S14911   0.180   2.662   7.706 -0.2700  0.0963 -0.0687
  137OSM   H11S14912   0.270   2.697   7.651 -0.4638 -2.3296 -2.1173
  137OSM   H11T14913   0.181   2.552   7.689  0.5299  0.1581 -0.4690
  137OSM   C12S14914   0.194   2.688   7.854 -0.5617 -0.0603  0.0732
  137OSM   H12S14915   0.094   2.718   7.891 -0.5688  0.2301 -0.1809
  137OSM   H12T14916   0.258   2.771   7.889 -1.8774  0.0876  2.2694
  137OSM   C13S14917   0.237   2.568   7.929 -0.1281 -0.1003 -0.2066
  137OSM   H13S14918   0.339   2.536   7.901  0.4139 -0.2561  1.8156
  137OSM   H13T14919   0.176   2.478   7.908 -0.0315 -1.1474  3.3937
  137OSM   C14S14920   0.252   2.584   8.084 -0.4439  0.6968 -0.0092
  137OSM   H14S14921   0.181   2.665   8.110 -0.7491  0.3384  0.2978
  137OSM   H14T14922   0.351   2.632   8.097 -1.4407  2.6463  0.6474
  137OSM   C15S14923   0.235   2.455   8.164  0.0952  0.0583  0.3075
  137OSM   H15S14924   0.314   2.382   8.136  2.1729  1.1786  2.8324
  137OSM   H15T14925   0.138   2.405   8.145  0.2793 -0.3731  0.4899
  137OSM   C16S14926   0.255   2.485   8.307  0.0665 -0.5977  0.6880
  137OSM   H16S14927   0.189   2.567   8.343  1.4596  0.7036  0.4067
  137OSM   H16T14928   0.360   2.518   8.323  0.7390 -1.8245 -0.9286
  137OSM   C17S14929   0.231   2.364   8.403 -0.3477  0.1818 -0.4097
  137OSM   H17S14930   0.301   2.286   8.367 -0.8418 -0.3478 -0.2369
  137OSM   H17T14931   0.127   2.327   8.386 -0.1180 -1.1629  0.9307
  137OSM   C18S14932   0.263   2.383   8.554  0.8215 -0.3370 -0.1353
  137OSM   H18S14933   0.373   2.375   8.568  0.8234  1.0141  0.8239
  137OSM   H18T14934   0.206   2.318   8.624  1.4673  1.8420  2.5854
  137OSM   H18U14935   0.231   2.486   8.582  1.1863 -0.6287  1.4327
  137OSM    C1F14936   0.316   3.084   6.847 -0.4388 -0.2464 -0.1582
  137OSM     OF14937   0.235   3.154   6.787 -0.3652  0.2916 -0.1973
  137OSM    C2F14938   0.450   3.132   6.884 -0.1470  0.2780  0.7590
  137OSM    H2F14939   0.510   3.162   6.795 -0.1226  0.5125  0.8539
  137OSM    H2G14940   0.494   3.048   6.943 -0.1902  1.5108  2.6115
  137OSM    C3F14941   0.434   3.254   6.970  0.1156  0.4118 -0.1161
  137OSM    H3F14942   0.376   3.336   6.923  0.9257  2.5079  2.3009
  137OSM    H3G14943   0.536   3.295   6.977  0.6428 -0.8342 -0.1691
  137OSM    C4F14944   0.372   3.250   7.110 -0.0841  0.2745  0.9349
  137OSM    H4F14945   0.266   3.217   7.104 -0.1913  0.8360 -0.7786
  137OSM    H4G14946   0.381   3.354   7.146  1.3894  0.3100  0.5401
  137OSM    C5F14947   0.444   3.152   7.204 -0.2557 -0.1175 -0.4453
  137OSM    H5F14948   0.440   3.054   7.152  0.9037  0.4069 -1.5715
  137OSM    H5G14949   0.387   3.139   7.299 -0.1716 -2.6863 -0.6591
  137OSM    C6F14950   0.594   3.180   7.237 -0.1815  0.5444 -0.3035
  137OSM    H6F14951   0.612   3.284   7.271  0.4201 -0.0858  1.4092
  137OSM    H6G14952   0.635   3.162   7.135 -0.7032 -0.1963 -0.3871
  137OSM    C7F14953   0.660   3.076   7.334  0.0809 -0.5640  0.4515
  137OSM    H7F14954   0.767   3.105   7.340 -0.3288  0.7796  1.8767
  137OSM    H7G14955   0.659   2.970   7.301  0.2586 -0.1248 -1.0040
  137OSM    C8F14956   0.615   3.083   7.481 -0.3500 -0.5274 -0.8336
  137OSM    H8F14957   0.585   3.190   7.485  1.2153 -0.0719 -0.7609
  137OSM    H8G14958   0.701   3.083   7.552 -1.7563 -1.6700  0.9792
  137OSM    C9F14959   0.501   2.990   7.527 -1.0017  0.0762 -0.0546
  137OSM    H9F14960   0.416   2.972   7.459  0.4629 -1.1985 -1.6435
  137OSM   C10F14961   0.496   2.929   7.646 -0.5427 -0.3639 -0.5052
  137OSM   H10F14962   0.420   2.853   7.666 -0.8429 -0.1291 -0.7539
  137OSM   C11F14963   0.604   2.940   7.758 -0.3352 -0.0259 -0.1872
  137OSM   H11F14964   0.617   3.049   7.778  1.1056 -0.1315 -0.4205
  137OSM   H11G14965   0.695   2.897   7.712  0.1838  1.7711 -0.9319
  137OSM   C12F14966   0.579   2.859   7.887  1.1108  0.4590 -0.5822
  137OSM   H12F14967   0.584   2.751   7.861 -2.9102  0.4955 -2.2122
  137OSM   H12G14968   0.477   2.877   7.926  0.8989 -2.5142  0.4821
  137OSM   C13F14969   0.680   2.889   7.992  0.0696 -0.2991  0.2519
  137OSM   H13F14970   0.723   2.991   7.976 -1.2669  0.4099  0.9951
  137OSM   H13G14971   0.766   2.818   7.992  2.2763  2.0984  3.2770
  137OSM   C14F14972   0.624   2.891   8.132 -0.0486  0.4411 -0.2115
  137OSM   H14F14973   0.551   2.808   8.143  0.9436 -0.1706  2.8239
  137OSM   H14G14974   0.575   2.990   8.146  1.5456  1.3603 -0.8652
  137OSM   C15F14975   0.730   2.865   8.246  0.1085 -0.0306 -0.3060
  137OSM   H15F14976   0.806   2.946   8.249  0.0161  0.0266  1.5768
  137OSM   H15G14977   0.777   2.765   8.239 -0.1075 -0.2938  1.3921
  137OSM   C16F14978   0.663   2.890   8.388  0.2359 -0.3309  0.1905
  137OSM   H16F14979   0.637   2.997   8.402  1.5932 -0.1357  1.4724
  137OSM   H16G14980   0.741   2.873   8.465 -1.8681  0.5910  2.6553
  137OSM   C17F14981   0.537   2.796   8.415  0.4735 -0.3211  0.1051
  137OSM   H17F14982   0.569   2.690   8.401  2.2879  0.2772 -0.6432
  137OSM   H17G14983   0.463   2.803   8.333  1.7513 -0.0685 -1.0519
  137OSM   C18F14984   0.473   2.815   8.551 -0.3727 -0.2455  0.3999
  137OSM   H18F14985   0.392   2.891   8.547 -0.5228 -0.4415 -0.5107
  137OSM   H18G14986   0.555   2.851   8.617  2.2154  1.0561 -3.2127
  137OSM   H18H14987   0.432   2.723   8.598 -4.1821  0.9438 -0.2578
  138OSM      N14988   2.114   4.205   6.112  0.1538 -0.7701 -0.1453
  138OSM    C1514989   2.188   4.088   6.063 -0.1366 -0.4936 -0.4310
  138OSM   H15A14990   2.154   4.001   6.116 -1.0657 -0.2281 -0.5797
  138OSM   H15B14991   2.295   4.098   6.074 -0.1848 -0.7005  0.2229
  138OSM   H15C14992   2.177   4.076   5.956 -2.5516 -0.4295 -0.2445
  138OSM    C1414993   1.968   4.180   6.105 -0.1253 -0.3790 -0.3949
  138OSM   H14A14994   1.936   4.145   6.008 -1.0689  0.9852 -0.5953
  138OSM   H14B14995   1.904   4.262   6.134 -0.9027 -1.2292  0.3658
  138OSM   H14C14996   1.944   4.097   6.170  2.5615 -1.2369 -0.3662
  138OSM    C1314997   2.147   4.220   6.254  0.4763 -0.1354  0.2520
  138OSM   H13A14998   2.250   4.243   6.276  1.2105 -1.5034 -1.5780
  138OSM   H13B14999   2.113   4.135   6.311  1.1155 -0.9320 -0.5137
  138OSM   H13C15000   2.089   4.308   6.280 -1.8582 -2.2179  2.6888
  138OSM    C1215001   2.163   4.329   6.040  0.4971  0.3570 -0.9100
  138OSM   H12A15002   2.162   4.296   5.937 -2.7826  0.7389 -1.0992
  138OSM   H12B15003   2.266   4.346   6.071  0.2311  1.5406 -0.6339
  138OSM    C1115004   2.090   4.464   6.067 -0.0565  0.1203  0.3317
  138OSM   H11A15005   2.146   4.541   6.008  2.1135 -0.1465  1.9171
  138OSM   H11B15006   2.102   4.495   6.173 -1.1973  0.7289  0.2942
  138OSM      P15007   1.868   4.578   6.016 -0.0674  0.0335 -0.1266
  138OSM    O1315008   1.922   4.662   5.908 -0.3748  0.0965  0.0179
  138OSM    O1415009   1.727   4.549   6.006 -0.0693  0.4974  0.0782
  138OSM    O1115010   1.897   4.636   6.165  0.4870  0.0721  0.3000
  138OSM    O1215011   1.955   4.449   6.017 -0.3940 -0.2065 -0.4060
  138OSM    C1S15012   1.850   4.547   6.273 -0.8109 -0.0552  0.4351
  138OSM    H1S15013   1.923   4.464   6.286  0.9238  1.4183  0.4431
  138OSM    H1T15014   1.750   4.504   6.254 -2.4368  2.4911  2.5687
  138OSM     NF15015   1.819   4.557   6.531 -0.2685 -0.1888 -0.2799
  138OSM    HNF15016   1.724   4.554   6.560  0.2911  1.3681  2.0652
  138OSM    C2S15017   1.838   4.635   6.398 -0.2966  0.1402  0.2702
  138OSM    H2S15018   1.932   4.694   6.410  0.1818 -0.2689 -1.2289
  138OSM    C3S15019   1.723   4.738   6.385  0.1174 -0.5547  0.0417
  138OSM    H3S15020   1.628   4.685   6.361 -0.4813  0.9620 -1.0991
  138OSM     O315021   1.736   4.826   6.271  0.6525  0.7964  0.1978
  138OSM    HO315022   1.817   4.799   6.227  0.1840  0.4072 -0.4326
  138OSM    C4S15023   1.718   4.818   6.513  0.3350 -0.0016  0.7571
  138OSM    H4S15024   1.635   4.801   6.583 -1.8986 -0.7392 -1.8787
  138OSM    C5S15025   1.801   4.922   6.530  0.1374  0.0617  0.2326
  138OSM    H5S15026   1.878   4.945   6.455 -1.1931  0.3548 -1.0914
  138OSM    C6S15027   1.789   5.009   6.651  0.4900 -0.8458 -0.8879
  138OSM    H6S15028   1.721   5.090   6.619  0.7411 -0.8875 -1.5425
  138OSM    H6T15029   1.878   5.073   6.671 -1.1774  0.7122  2.2503
  138OSM    C7S15030   1.732   4.967   6.790 -0.5738 -0.1095 -0.5674
  138OSM    H7S15031   1.757   4.860   6.805 -0.6712  0.1003  1.3185
  138OSM    H7T15032   1.622   4.974   6.784 -0.5406  0.3007 -0.6985
  138OSM    C8S15033   1.790   5.057   6.899 -0.1590  0.7015 -0.1257
  138OSM    H8S15034   1.734   5.153   6.902  0.2546  1.0328 -2.1476
  138OSM    H8T15035   1.900   5.067   6.898 -0.0461 -0.1754  0.7747
  138OSM    C9S15036   1.752   4.993   7.036 -0.1096 -0.0205  0.2402
  138OSM    H9S15037   1.787   4.888   7.042  1.2620  0.4375  0.6797
  138OSM    H9T15038   1.641   4.992   7.040 -0.2280 -0.4425 -1.9032
  138OSM   C10S15039   1.812   5.075   7.151 -0.3545  0.7887  0.0867
  138OSM   H10S15040   1.811   5.185   7.135  2.0532  0.8542 -0.0562
  138OSM   H10T15041   1.917   5.039   7.159 -0.8839 -0.9362 -0.1587
  138OSM   C11S15042   1.742   5.047   7.284 -1.0792  0.5152 -0.3194
  138OSM   H11S15043   1.731   4.937   7.297  0.8369  0.2872 -0.3114
  138OSM   H11T15044   1.637   5.083   7.287 -0.8299  1.2194  1.5233
  138OSM   C12S15045   1.814   5.095   7.405 -1.2973 -0.2531  0.0702
  138OSM   H12S15046   1.810   5.206   7.412  1.4991 -0.1609  3.9279
  138OSM   H12T15047   1.922   5.082   7.380 -0.1949 -0.5070  4.1186
  138OSM   C13S15048   1.776   5.018   7.526 -0.3365 -0.1043  0.0929
  138OSM   H13S15049   1.815   4.914   7.521 -0.3346 -0.0594 -1.2547
  138OSM   H13T15050   1.665   5.012   7.522 -0.4702 -1.2736  3.1284
  138OSM   C14S15051   1.817   5.094   7.660 -0.2848  0.2392  0.0939
  138OSM   H14S15052   1.779   5.198   7.650  2.0767  1.0790 -0.8513
  138OSM   H14T15053   1.927   5.087   7.667 -0.3710 -3.3567 -0.2845
  138OSM   C15S15054   1.752   5.029   7.783 -0.0397 -0.1478 -0.5442
  138OSM   H15S15055   1.768   4.920   7.792  0.5809  0.0528  1.1714
  138OSM   H15T15056   1.642   5.048   7.792  0.1034  1.0309 -1.1020
  138OSM   C16S15057   1.818   5.093   7.910 -0.1051  0.2479  0.3443
  138OSM   H16S15058   1.788   5.200   7.908 -0.0341  0.2852  1.0365
  138OSM   H16T15059   1.927   5.094   7.889 -0.0100  0.5930  0.8373
  138OSM   C17S15060   1.764   5.028   8.036 -0.1187 -0.0471  0.2043
  138OSM   H17S15061   1.761   4.918   8.022  1.7152  0.1235 -2.1592
  138OSM   H17T15062   1.657   5.057   8.047 -0.3090 -1.3366  2.3417
  138OSM   C18S15063   1.837   5.047   8.167 -0.3393  0.5746 -0.3526
  138OSM   H18S15064   1.945   5.025   8.156 -0.0866  0.9043  1.2295
  138OSM   H18T15065   1.793   4.969   8.232  0.4386  1.3033  1.0850
  138OSM   H18U15066   1.811   5.149   8.203 -0.8618  0.1636  0.4456
  138OSM    C1F15067   1.908   4.469   6.591  0.1803 -0.5415  0.3200
  138OSM     OF15068   2.010   4.440   6.538 -0.1003 -0.2184  0.4866
  138OSM    C2F15069   1.871   4.413   6.725  0.2122  0.3716  0.3351
  138OSM    H2F15070   1.788   4.341   6.714  0.6262 -0.1529  0.6039
  138OSM    H2G15071   1.831   4.503   6.778  1.4301  2.8510 -2.6430
  138OSM    C3F15072   1.978   4.344   6.805 -0.3426 -0.2770 -0.0687
  138OSM    H3F15073   2.050   4.425   6.833  1.7048 -1.4832 -1.5291
  138OSM    H3G15074   2.042   4.280   6.740  0.4478  0.5561 -0.1459
  138OSM    C4F15075   1.928   4.278   6.931  0.3000  0.2973 -0.6087
  138OSM    H4F15076   2.008   4.237   6.996  0.0565  0.8137  0.0330
  138OSM    H4G15077   1.866   4.193   6.896  0.3053 -0.8000  1.8525
  138OSM    C5F15078   1.865   4.374   7.035  0.6172  0.4931 -0.4474
  138OSM    H5F15079   1.770   4.411   6.991  0.5726  0.8720 -0.0339
  138OSM    H5G15080   1.927   4.466   7.045  1.2613  0.0457 -0.2426
  138OSM    C6F15081   1.847   4.312   7.178  0.2374  0.1621 -0.1744
  138OSM    H6F15082   1.948   4.277   7.210 -0.6458 -2.6208 -0.2052
  138OSM    H6G15083   1.777   4.227   7.167 -1.0235  1.0520  0.6876
  138OSM    C7F15084   1.791   4.421   7.277 -0.5600  0.3408 -0.2072
  138OSM    H7F15085   1.767   4.367   7.372  1.1447 -2.6617 -1.3385
  138OSM    H7G15086   1.690   4.454   7.244 -0.4239 -0.3130 -1.3100
  138OSM    C8F15087   1.891   4.536   7.300 -0.1876 -0.2659 -0.0606
  138OSM    H8F15088   1.911   4.586   7.203  0.4413 -0.7913 -0.2095
  138OSM    H8G15089   1.980   4.486   7.344  0.4217 -1.2972 -2.3027
  138OSM    C9F15090   1.845   4.635   7.401 -0.5107 -0.1644 -0.8110
  138OSM    H9F15091   1.824   4.736   7.362 -1.0906  0.7269  1.6456
  138OSM   C10F15092   1.825   4.625   7.536  0.0335 -0.0237  1.0364
  138OSM   H10F15093   1.779   4.716   7.578  0.8255  1.9321 -1.9470
  138OSM   C11F15094   1.852   4.502   7.617 -0.4679  0.3161  0.2316
  138OSM   H11F15095   1.913   4.428   7.561  0.1985 -0.7500  2.2841
  138OSM   H11G15096   1.761   4.448   7.649 -0.0654  0.3410  1.4758
  138OSM   C12F15097   1.929   4.532   7.748 -0.0090 -0.3572 -0.2425
  138OSM   H12F15098   2.024   4.586   7.730 -0.2375  0.0710 -0.1681
  138OSM   H12G15099   1.970   4.437   7.788 -0.0374 -0.1553  0.2666
  138OSM   C13F15100   1.850   4.619   7.853 -1.0345  0.5468 -0.0216
  138OSM   H13F15101   1.751   4.576   7.878 -0.0794 -0.3571  2.6159
  138OSM   H13G15102   1.842   4.722   7.812  4.0306  1.3945  0.3864
  138OSM   C14F15103   1.911   4.614   7.989 -0.5430 -0.0875 -0.2312
  138OSM   H14F15104   1.911   4.715   8.035 -0.5535  0.1770 -0.7900
  138OSM   H14G15105   2.019   4.588   7.988 -0.1624  1.1085  2.2739
  138OSM   C15F15106   1.844   4.531   8.099 -0.1121  0.2131 -0.0214
  138OSM   H15F15107   1.748   4.581   8.123  0.1293  0.8560 -0.3941
  138OSM   H15G15108   1.896   4.546   8.197  0.5032  0.8955 -0.4479
  138OSM   C16F15109   1.830   4.377   8.072 -0.0139  0.0172 -0.7302
  138OSM   H16F15110   1.933   4.336   8.061  0.0677 -0.2196  0.7465
  138OSM   H16G15111   1.786   4.374   7.970  0.2270  0.8282 -0.8616
  138OSM   C17F15112   1.767   4.306   8.197  0.2840  0.7621  0.2133
  138OSM   H17F15113   1.670   4.354   8.222 -0.4235 -1.4668  2.1625
  138OSM   H17G15114   1.837   4.323   8.281  0.5549 -1.4158  0.4957
  138OSM   C18F15115   1.745   4.153   8.174  0.2876  0.2199  0.4455
  138OSM   H18F15116   1.842   4.100   8.164  0.4986  0.5037  0.9585
  138OSM   H18G15117   1.699   4.143   8.073  1.0226 -2.8557  0.3119
  138OSM   H18H15118   1.675   4.111   8.249 -0.4130 -1.4013 -1.0328
  139OSM      N15119   0.383   5.422   6.031 -0.1237 -0.6026  0.3552
  139OSM    C1515120   0.348   5.333   6.147  0.4474  0.3952 -0.3390
  139OSM   H15A15121   0.418   5.332   6.230  0.1724  2.1724 -0.0563
  139OSM   H15B15122   0.341   5.232   6.110  0.4221 -1.1102  3.3511
  139OSM   H15C15123   0.258   5.364   6.199  0.3494  2.5036 -1.6450
  139OSM    C1415124   0.529   5.388   6.007  0.4093  0.7202 -0.7462
  139OSM   H14A15125   0.572   5.442   5.924 -0.1809 -1.0866 -2.2923
  139OSM   H14B15126   0.538   5.287   5.970  1.1908  0.7441 -0.6300
  139OSM   H14C15127   0.586   5.385   6.099 -0.8642 -1.0217  0.0460
  139OSM    C1315128   0.293   5.391   5.916 -0.9020  0.0123  0.3349
  139OSM   H13A15129   0.193   5.421   5.940 -0.0785  1.6301  1.9963
  139OSM   H13B15130   0.274   5.286   5.900 -2.5564  0.3139  0.2029
  139OSM   H13C15131   0.320   5.443   5.825  1.7004 -2.2175 -0.3097
  139OSM    C1215132   0.368   5.570   6.071  0.3415 -0.0097  0.3386
  139OSM   H12A15133   0.424   5.586   6.161 -0.9073 -0.4029  1.2197
  139OSM   H12B15134   0.267   5.600   6.095  0.2657  0.5112 -0.5541
  139OSM    C1115135   0.418   5.670   5.959  0.1885 -0.8551  0.0472
  139OSM   H11A15136   0.375   5.770   5.982  1.0973 -0.6162  0.7951
  139OSM   H11B15137   0.361   5.637   5.870  2.5781 -0.6088 -1.6935
  139OSM      P15138   0.653   5.750   6.023 -0.0020  0.3098  0.0818
  139OSM    O1315139   0.769   5.668   6.071  0.1142 -0.8480  0.1069
  139OSM    O1415140   0.679   5.872   5.942 -0.5640 -0.0767  0.0278
  139OSM    O1115141   0.563   5.773   6.159 -0.4721 -0.4537  0.4540
  139OSM    O1215142   0.556   5.669   5.939 -0.3383  0.4276 -0.3887
  139OSM    C1S15143   0.624   5.772   6.287 -0.4574 -0.2912  0.0260
  139OSM    H1S15144   0.722   5.823   6.298 -0.5966 -0.3622  1.9225
  139OSM    H1T15145   0.647   5.667   6.313 -0.5438 -0.0837  0.9827
  139OSM     NF15146   0.595   5.805   6.526 -0.1530  0.6273 -0.3110
  139OSM    HNF15147   0.546   5.755   6.596 -0.8136 -0.0025 -1.1916
  139OSM    C2S15148   0.522   5.829   6.396  0.0647  0.6124  0.3589
  139OSM    H2S15149   0.505   5.938   6.383 -2.4209  0.5001  1.8974
  139OSM    C3S15150   0.380   5.763   6.372  0.0097  0.2489 -0.8059
  139OSM    H3S15151   0.383   5.652   6.381  0.5094  0.3444  0.4835
  139OSM     O315152   0.307   5.799   6.259  0.8704 -0.1195 -0.4361
  139OSM    HO315153   0.361   5.857   6.204 -0.0036 -0.1520 -1.3406
  139OSM    C4S15154   0.291   5.821   6.482  0.8387 -0.0503  0.0087
  139OSM    H4S15155   0.294   5.931   6.485  0.2076  0.0792 -2.0413
  139OSM    C5S15156   0.208   5.752   6.563  0.6195  0.2132 -0.3660
  139OSM    H5S15157   0.199   5.643   6.550  1.8519 -0.3465  2.6816
  139OSM    C6S15158   0.116   5.816   6.669 -0.1809 -0.4435  0.5035
  139OSM    H6S15159   0.052   5.752   6.733 -1.1911 -0.7468 -0.7563
  139OSM    H6T15160   0.035   5.871   6.617  1.7646  2.9791  0.8241
  139OSM    C7S15161   0.185   5.910   6.773  0.9405 -0.0066  0.2043
  139OSM    H7S15162   0.116   5.950   6.850  0.6830 -1.0334  0.5144
  139OSM    H7T15163   0.224   5.999   6.718  0.5178 -2.0486 -3.8030
  139OSM    C8S15164   0.308   5.836   6.834  0.3276  0.2352  0.0562
  139OSM    H8S15165   0.377   5.838   6.747 -0.3782  2.1480 -0.5112
  139OSM    H8T15166   0.301   5.726   6.853  1.0602  0.4294  1.5845
  139OSM    C9S15167   0.370   5.911   6.956 -0.0748  0.2490  0.3759
  139OSM    H9S15168   0.394   6.016   6.929 -1.2495  0.3781 -0.2143
  139OSM    H9T15169   0.468   5.862   6.975 -0.9456 -0.8943  2.1031
  139OSM   C10S15170   0.282   5.890   7.078  0.2721  0.1669  0.6674
  139OSM   H10S15171   0.256   5.783   7.093  0.0177  0.0552 -0.4858
  139OSM   H10T15172   0.184   5.942   7.071 -0.6945 -1.1779  2.8910
  139OSM   C11S15173   0.359   5.937   7.194  0.8275 -0.7297 -0.3957
  139OSM   H11S15174   0.373   6.047   7.193  2.1848 -0.8685  0.3954
  139OSM   H11T15175   0.465   5.905   7.188  1.2145  0.1252  1.3210
  139OSM   C12S15176   0.311   5.871   7.328  0.1727 -0.9837 -0.1162
  139OSM   H12S15177   0.303   5.763   7.305  1.8852 -0.6394 -2.6985
  139OSM   H12T15178   0.212   5.916   7.349  0.6802  0.4653 -0.6569
  139OSM   C13S15179   0.401   5.896   7.446  0.3152  0.2744 -0.2886
  139OSM   H13S15180   0.427   6.004   7.450  1.6623  0.2901 -4.5081
  139OSM   H13T15181   0.495   5.841   7.427  0.4027 -0.7298  2.5345
  139OSM   C14S15182   0.335   5.848   7.576  0.0312 -0.0648 -0.5401
  139OSM   H14S15183   0.332   5.737   7.586  0.5418 -0.0705 -0.3913
  139OSM   H14T15184   0.229   5.879   7.581  0.3775  0.9549  2.2491
  139OSM   C15S15185   0.419   5.900   7.701  0.3101  0.2951  0.0323
  139OSM   H15S15186   0.403   6.010   7.698 -0.5978  0.1982  0.7332
  139OSM   H15T15187   0.525   5.881   7.674 -0.3449 -0.7571 -2.0080
  139OSM   C16S15188   0.378   5.822   7.826  0.7430  0.4903 -0.0600
  139OSM   H16S15189   0.377   5.715   7.795 -2.2137  0.2663  0.5023
  139OSM   H16T15190   0.275   5.857   7.850 -0.3124 -2.5270  0.1670
  139OSM   C17S15191   0.468   5.836   7.948  0.9021 -0.0392  0.3674
  139OSM   H17S15192   0.457   5.941   7.984  1.3683 -0.2100  1.0212
  139OSM   H17T15193   0.573   5.835   7.911  1.6484  4.3868  1.7679
  139OSM   C18S15194   0.447   5.734   8.062  0.4735  0.6697 -0.7408
  139OSM   H18S15195   0.534   5.736   8.130  0.1155 -2.3320 -0.0563
  139OSM   H18T15196   0.459   5.628   8.031 -0.3003 -0.3596  2.1517
  139OSM   H18U15197   0.351   5.740   8.118  0.8978  0.4468  0.0249
  139OSM    C1F15198   0.714   5.869   6.551  0.6678 -0.3237 -0.1368
  139OSM     OF15199   0.745   5.963   6.479 -1.1049 -0.2938 -0.0527
  139OSM    C2F15200   0.791   5.829   6.670  0.7610  0.2260 -0.0510
  139OSM    H2F15201   0.808   5.720   6.662 -2.8526 -0.4585 -0.2080
  139OSM    H2G15202   0.729   5.856   6.758 -1.2578  3.3367 -2.2367
  139OSM    C3F15203   0.941   5.894   6.671  0.3811  0.3259  0.2206
  139OSM    H3F15204   0.933   6.005   6.668  0.1110  0.3397  1.0971
  139OSM    H3G15205   0.997   5.862   6.580 -0.5671  0.1226 -0.3070
  139OSM    C4F15206   1.030   5.857   6.789  1.0319 -0.3262 -0.1461
  139OSM    H4F15207   1.140   5.877   6.788  1.0224 -0.0086  1.5165
  139OSM    H4G15208   1.030   5.746   6.790 -0.3175 -0.3468 -0.9662
  139OSM    C5F15209   0.965   5.891   6.930 -1.1057  0.1733  0.8835
  139OSM    H5F15210   0.871   5.832   6.938 -0.1754 -1.3647  0.9378
  139OSM    H5G15211   0.933   5.997   6.938 -3.1184 -0.3780  0.7738
  139OSM    C6F15212   1.047   5.855   7.049 -0.5073  0.1817  0.4183
  139OSM    H6F15213   1.156   5.874   7.042 -0.4813  1.0534  2.5562
  139OSM    H6G15214   1.048   5.744   7.048  2.4096  0.1196  1.0838
  139OSM    C7F15215   0.986   5.894   7.187  0.6730  0.4188  0.4223
  139OSM    H7F15216   0.877   5.872   7.175  0.5581  0.9559  0.4586
  139OSM    H7G15217   0.980   6.002   7.212 -2.1249  0.3623  0.3752
  139OSM    C8F15218   1.031   5.810   7.304 -1.0919 -0.1115 -0.1982
  139OSM    H8F15219   1.015   5.701   7.292 -2.0760 -0.2156  1.6979
  139OSM    H8G15220   0.963   5.837   7.388 -0.9761 -0.4288 -0.0015
  139OSM    C9F15221   1.175   5.848   7.328 -0.5486  0.0090  0.0839
  139OSM    H9F15222   1.242   5.827   7.243 -0.0119  2.4097 -0.1425
  139OSM   C10F15223   1.233   5.908   7.438 -0.0576 -0.8323 -0.1437
  139OSM   H10F15224   1.342   5.913   7.451 -0.1352  0.8575  0.0958
  139OSM   C11F15225   1.178   5.960   7.574 -0.1424  0.4591  0.1184
  139OSM   H11F15226   1.073   5.929   7.594  0.2955  0.9935  3.9144
  139OSM   H11G15227   1.171   6.071   7.569 -1.2435  0.5874  2.8915
  139OSM   C12F15228   1.257   5.941   7.700 -0.4040 -0.3280 -0.5706
  139OSM   H12F15229   1.231   6.025   7.767 -0.0600 -0.4603 -0.2683
  139OSM   H12G15230   1.367   5.947   7.686  0.0585  0.8335  2.8177
  139OSM   C13F15231   1.231   5.798   7.757  0.0188 -0.2020 -0.4741
  139OSM   H13F15232   1.251   5.724   7.676 -0.4516 -0.2709 -0.5321
  139OSM   H13G15233   1.122   5.791   7.777  0.0663  0.1144 -0.1032
  139OSM   C14F15234   1.315   5.773   7.883  0.2491 -0.0397 -0.2192
  139OSM   H14F15235   1.422   5.788   7.858  0.2380 -1.4449 -1.2214
  139OSM   H14G15236   1.297   5.672   7.924 -0.6692 -0.2254 -1.0187
  139OSM   C15F15237   1.296   5.869   8.009  0.6513  0.5909 -0.2996
  139OSM   H15F15238   1.189   5.859   8.036  0.3084 -1.3257 -2.0990
  139OSM   H15G15239   1.329   5.967   7.967 -0.9071  0.6213 -1.5804
  139OSM   C16F15240   1.381   5.831   8.123  0.3766  0.4190  0.1571
  139OSM   H16F15241   1.418   5.928   8.163  0.1226  1.0430 -1.0753
  139OSM   H16G15242   1.478   5.781   8.105  0.5960  0.1193  1.9890
  139OSM   C17F15243   1.297   5.762   8.238  0.8262 -0.1895 -0.0597
  139OSM   H17F15244   1.289   5.655   8.208  0.9843 -0.4028  0.6210
  139OSM   H17G15245   1.197   5.809   8.247  1.6670  1.5868  0.4634
  139OSM   C18F15246   1.367   5.771   8.368  0.4631  0.3163 -0.5349
  139OSM   H18F15247   1.328   5.697   8.441 -0.5194  0.5808 -0.7745
  139OSM   H18G15248   1.371   5.870   8.417 -0.7952  0.6713 -1.1090
  139OSM   H18H15249   1.474   5.744   8.354  0.5754 -0.8805  2.1511
  140OSM      N15250   6.744   1.624   6.159 -0.1035  0.2361  0.6945
  140OSM    C1515251   6.612   1.553   6.165 -0.9724 -0.3126 -0.6355
  140OSM   H15A15252   6.580   1.565   6.267 -1.4125  0.9461 -0.8944
  140OSM   H15B15253   6.624   1.450   6.136 -1.2781 -1.0556  1.6875
  140OSM   H15C15254   6.542   1.605   6.101  0.2624 -0.1903 -1.9294
  140OSM    C1415255   6.809   1.582   6.028  0.9895  0.4157  0.0033
  140OSM   H14A15256   6.915   1.597   6.038  0.9666  0.7075 -0.1651
  140OSM   H14B15257   6.780   1.631   5.935  0.1627 -1.4085 -0.7580
  140OSM   H14C15258   6.792   1.476   6.018 -0.2629  0.6434 -0.5855
  140OSM    C1315259   6.716   1.772   6.153 -0.1263  0.3118 -0.1046
  140OSM   H13A15260   6.810   1.824   6.138  0.4455 -0.6030  0.2656
  140OSM   H13B15261   6.671   1.819   6.240 -0.2189  2.2434 -1.1300
  140OSM   H13C15262   6.663   1.803   6.065 -1.5950  1.3494  1.0870
  140OSM    C1215263   6.830   1.596   6.278 -0.0847 -0.0727  0.4754
  140OSM   H12A15264   6.789   1.625   6.374 -2.0480 -0.7612 -0.1059
  140OSM   H12B15265   6.920   1.655   6.266  0.0319 -0.7671 -3.5394
  140OSM    C1115266   6.871   1.445   6.303 -0.2536 -1.0448 -0.0189
  140OSM   H11A15267   6.772   1.394   6.300 -0.8918  0.1049  0.6218
  140OSM   H11B15268   6.915   1.441   6.405  0.6111  3.4904 -0.0002
  140OSM      P15269   7.109   1.431   6.216  0.1902  0.3137  0.1699
  140OSM    O1315270   7.187   1.362   6.111  0.4995 -0.3618  0.4428
  140OSM    O1415271   7.131   1.580   6.215 -0.3132  0.1692  0.2191
  140OSM    O1115272   7.163   1.373   6.363 -0.2690 -0.2703 -0.2114
  140OSM    O1215273   6.950   1.398   6.201 -0.1650  0.0649 -0.0876
  140OSM    C1S15274   7.188   1.231   6.382  0.2758 -0.1896  0.5464
  140OSM    H1S15275   7.276   1.197   6.321 -1.9515 -0.4339 -2.8159
  140OSM    H1T15276   7.099   1.171   6.351 -0.3816  0.2824  1.4814
  140OSM     NF15277   7.231   1.042   6.538  0.4139 -0.1465 -0.3032
  140OSM    HNF15278   7.158   1.004   6.595  2.1107 -0.2705  1.9323
  140OSM    C2S15279   7.228   1.190   6.530  0.5852  0.4028 -0.1226
  140OSM    H2S15280   7.334   1.220   6.546  0.7098 -0.7843  1.5805
  140OSM    C3S15281   7.133   1.252   6.630 -0.5149  0.3609  0.2166
  140OSM    H3S15282   7.030   1.215   6.608  0.0123 -1.6022  0.8379
  140OSM     O315283   7.119   1.395   6.617 -0.4877 -0.2749 -0.3827
  140OSM    HO315284   7.159   1.402   6.530 -0.6672  1.3943 -0.3484
  140OSM    C4S15285   7.172   1.208   6.765  0.1234 -0.1439 -0.0604
  140OSM    H4S15286   7.280   1.189   6.765  0.3861  1.2439  0.1500
  140OSM    C5S15287   7.095   1.170   6.871  0.3167  0.0739  0.4212
  140OSM    H5S15288   6.987   1.156   6.854 -0.0953  2.2616  0.9775
  140OSM    C6S15289   7.141   1.120   7.002  0.2167  0.2183  0.0194
  140OSM    H6S15290   7.251   1.104   7.007 -0.0659 -2.1279  0.1258
  140OSM    H6T15291   7.079   1.031   7.028 -0.9066  0.6126 -1.2604
  140OSM    C7S15292   7.100   1.213   7.119  0.6594  0.6947  0.0370
  140OSM    H7S15293   6.990   1.228   7.126  0.5201 -0.4619  0.6143
  140OSM    H7T15294   7.147   1.313   7.105  3.1423 -0.6703 -2.3033
  140OSM    C8S15295   7.135   1.152   7.252 -0.8457  0.4762  0.2044
  140OSM    H8S15296   7.240   1.117   7.252 -1.2362 -0.8374 -1.4012
  140OSM    H8T15297   7.088   1.051   7.255  0.3656 -0.1048  0.0015
  140OSM    C9S15298   7.096   1.223   7.379  0.2265  1.1046  0.1971
  140OSM    H9S15299   7.135   1.181   7.474 -1.3846  1.4278  1.0415
  140OSM    H9T15300   6.985   1.220   7.390  0.2300  0.6210  0.1051
  140OSM   C10S15301   7.153   1.366   7.382 -0.3792  0.4655  0.1666
  140OSM   H10S15302   7.128   1.417   7.287  0.7577  0.9211  0.0874
  140OSM   H10T15303   7.264   1.358   7.386 -0.3844  0.6269  0.6384
  140OSM   C11S15304   7.114   1.451   7.503  0.0532  0.2455 -0.0456
  140OSM   H11S15305   7.003   1.452   7.510 -0.1742 -2.8401 -1.2557
  140OSM   H11T15306   7.159   1.551   7.484  1.6685 -0.2878  0.7822
  140OSM   C12S15307   7.171   1.402   7.637 -0.0851  0.1113  0.6967
  140OSM   H12S15308   7.282   1.403   7.636 -0.0154 -1.2445  2.3276
  140OSM   H12T15309   7.137   1.301   7.666  1.0779  0.0147  1.8407
  140OSM   C13S15310   7.134   1.491   7.760  0.1395 -0.9764  0.0887
  140OSM   H13S15311   7.023   1.497   7.758  0.1283 -1.2279 -1.8201
  140OSM   H13T15312   7.171   1.596   7.753 -2.1591  0.0310  1.6428
  140OSM   C14S15313   7.197   1.440   7.890 -0.2132  0.4312 -0.1011
  140OSM   H14S15314   7.172   1.334   7.913  0.5640  0.4445  0.8469
  140OSM   H14T15315   7.149   1.507   7.964 -1.9721 -2.1299  1.2143
  140OSM   C15S15316   7.353   1.452   7.890  0.2129  0.3310 -0.4110
  140OSM   H15S15317   7.382   1.559   7.883  0.7508  0.2260  0.1330
  140OSM   H15T15318   7.394   1.398   7.803  0.5658  1.0719 -0.7115
  140OSM   C16S15319   7.427   1.409   8.022  0.4784 -0.1074  0.3719
  140OSM   H16S15320   7.411   1.299   8.027  0.1558 -0.1185 -0.7480
  140OSM   H16T15321   7.384   1.454   8.114 -0.3073 -0.1178  0.0212
  140OSM   C17S15322   7.569   1.446   8.019 -0.0995 -0.6413  0.6301
  140OSM   H17S15323   7.572   1.555   8.038 -0.2571 -0.6678  0.8094
  140OSM   H17T15324   7.627   1.425   7.927  2.4307  0.6690  1.8084
  140OSM   C18S15325   7.653   1.381   8.133 -0.6215 -0.1793 -0.1016
  140OSM   H18S15326   7.746   1.440   8.146 -1.7774  1.7494 -0.1492
  140OSM   H18T15327   7.669   1.274   8.112 -0.6677  0.1324 -1.9346
  140OSM   H18U15328   7.604   1.376   8.232  1.3062 -2.8934  0.8282
  140OSM    C1F15329   7.334   0.980   6.478 -0.2059  0.6275  0.1669
  140OSM     OF15330   7.431   1.041   6.452 -0.3553  0.5289 -1.3106
  140OSM    C2F15331   7.328   0.836   6.456  0.0799  0.5049  0.3277
  140OSM    H2F15332   7.325   0.822   6.345 -1.3701  2.9512 -0.0207
  140OSM    H2G15333   7.226   0.811   6.490 -0.7935 -0.1082 -2.4351
  140OSM    C3F15334   7.440   0.756   6.523  0.6326  0.6469  1.0382
  140OSM    H3F15335   7.543   0.794   6.502  0.0898  1.0319 -1.1883
  140OSM    H3G15336   7.423   0.658   6.474  4.2582  0.4880 -0.2072
  140OSM    C4F15337   7.436   0.737   6.680  0.2436 -0.2380  0.0178
  140OSM    H4F15338   7.458   0.837   6.722  0.3682 -1.1824  2.3685
  140OSM    H4G15339   7.524   0.679   6.717 -0.7238 -1.8206 -0.0631
  140OSM    C5F15340   7.305   0.689   6.748  0.1840 -0.0810  0.6725
  140OSM    H5F15341   7.265   0.600   6.694  0.4990  1.0336 -1.4870
  140OSM    H5G15342   7.231   0.771   6.749  1.5037  1.1623 -0.2858
  140OSM    C6F15343   7.320   0.661   6.901 -0.5241 -0.8351 -0.0144
  140OSM    H6F15344   7.410   0.596   6.907 -0.7697 -1.6559 -3.0904
  140OSM    H6G15345   7.241   0.593   6.940  0.6628 -1.4422  1.3949
  140OSM    C7F15346   7.334   0.792   6.980 -1.1578 -0.5060 -0.0763
  140OSM    H7F15347   7.240   0.850   6.965 -2.1901 -2.4264 -1.4780
  140OSM    H7G15348   7.410   0.859   6.936 -2.1975  2.2725  2.0517
  140OSM    C8F15349   7.379   0.788   7.130 -0.2138 -0.4866  0.2808
  140OSM    H8F15350   7.403   0.889   7.169 -2.5830 -1.2516  4.2685
  140OSM    H8G15351   7.474   0.732   7.115 -0.6327 -0.4903 -3.2371
  140OSM    C9F15352   7.278   0.719   7.215  0.3446 -0.3804 -0.3312
  140OSM    H9F15353   7.240   0.626   7.171 -0.8130  0.1039 -0.3834
  140OSM   C10F15354   7.230   0.755   7.334 -0.1548 -0.0513 -0.4442
  140OSM   H10F15355   7.147   0.698   7.378  0.5289 -2.8539 -2.4507
  140OSM   C11F15356   7.271   0.876   7.417 -0.1563  0.6664  0.6431
  140OSM   H11F15357   7.189   0.943   7.449 -0.1414  1.5866 -1.1060
  140OSM   H11G15358   7.329   0.941   7.348  0.4980  0.1049  0.6522
  140OSM   C12F15359   7.344   0.843   7.555  0.3025 -0.0606 -0.0023
  140OSM   H12F15360   7.445   0.802   7.535  0.2870 -1.2842  2.1089
  140OSM   H12G15361   7.279   0.769   7.607  0.1052 -0.1751 -0.4026
  140OSM   C13F15362   7.353   0.975   7.643  0.3691  0.6136 -0.1057
  140OSM   H13F15363   7.386   0.947   7.746  2.6405 -0.7486 -1.1127
  140OSM   H13G15364   7.249   1.013   7.647  0.6033  1.1516  1.4330
  140OSM   C14F15365   7.456   1.078   7.615 -0.0023 -0.1251  0.0332
  140OSM   H14F15366   7.558   1.038   7.633  0.4638  1.4388  1.1553
  140OSM   H14G15367   7.439   1.159   7.690 -1.9604 -0.9886  0.5913
  140OSM   C15F15368   7.450   1.151   7.476 -0.8051 -0.4765  0.1349
  140OSM   H15F15369   7.351   1.198   7.462  0.1000  1.1337 -1.3222
  140OSM   H15G15370   7.478   1.076   7.398 -0.7531 -0.0878 -0.2246
  140OSM   C16F15371   7.564   1.261   7.483 -0.3268 -1.0297 -0.0634
  140OSM   H16F15372   7.667   1.226   7.506  0.1709  0.1042 -0.5052
  140OSM   H16G15373   7.539   1.337   7.560 -0.3252 -1.4945  0.4042
  140OSM   C17F15374   7.577   1.349   7.353 -0.7245  0.2338 -0.2114
  140OSM   H17F15375   7.677   1.397   7.365  1.3360 -3.6711 -0.1403
  140OSM   H17G15376   7.497   1.426   7.363 -1.5466 -0.7763  1.3230
  140OSM   C18F15377   7.585   1.267   7.223  0.4797 -0.3867 -0.2553
  140OSM   H18F15378   7.580   1.328   7.131  0.8370 -0.3914 -0.2808
  140OSM   H18G15379   7.495   1.202   7.228  0.3190 -0.0820  1.4474
  140OSM   H18H15380   7.676   1.203   7.232  0.6261  0.0203  1.6345
  141OSM      N15381   5.989   3.662   6.269  0.0730  0.3934  0.6263
  141OSM    C1515382   6.107   3.726   6.200  0.3371 -0.1350  0.2446
  141OSM   H15A15383   6.094   3.744   6.094  1.0800  2.1958  0.4831
  141OSM   H15B15384   6.192   3.662   6.210 -0.9962 -2.0667 -0.2868
  141OSM   H15C15385   6.130   3.825   6.238 -0.8896  0.1788  0.2368
  141OSM    C1415386   6.017   3.647   6.419  0.1351  0.4613  0.9177
  141OSM   H14A15387   5.928   3.613   6.469 -1.2540  1.5922 -0.6819
  141OSM   H14B15388   6.051   3.737   6.468 -2.1969  2.0903 -0.3031
  141OSM   H14C15389   6.091   3.569   6.426  1.0837  0.5323 -4.2670
  141OSM    C1315390   5.873   3.754   6.246 -0.3455 -0.2920 -0.4176
  141OSM   H13A15391   5.843   3.746   6.142  0.1037  1.2081 -0.6867
  141OSM   H13B15392   5.892   3.856   6.273 -0.0416  0.1719 -2.2524
  141OSM   H13C15393   5.784   3.715   6.293 -1.2845 -0.8608 -2.5290
  141OSM    C1215394   5.960   3.530   6.206  0.2361 -0.6987  0.5283
  141OSM   H12A15395   5.949   3.545   6.100 -1.2559 -1.2486  0.5889
  141OSM   H12B15396   5.871   3.486   6.247 -0.3987  0.6810  0.6869
  141OSM    C1115397   6.067   3.410   6.229  0.4961  0.0301 -0.7127
  141OSM   H11A15398   6.017   3.316   6.200 -0.8011  0.8176 -1.1116
  141OSM   H11B15399   6.072   3.391   6.338 -1.0310  0.5196 -0.5385
  141OSM      P15400   6.325   3.417   6.254  0.0164 -0.2645 -0.1780
  141OSM    O1315401   6.352   3.272   6.261  0.4488  0.1513 -0.4793
  141OSM    O1415402   6.425   3.505   6.189 -0.2654 -0.1183 -0.3366
  141OSM    O1115403   6.293   3.464   6.398  0.4344 -0.2404 -0.4108
  141OSM    O1215404   6.195   3.432   6.175  0.4628 -0.6130 -0.1334
  141OSM    C1S15405   6.394   3.464   6.499 -0.0139 -0.7138 -0.7847
  141OSM    H1S15406   6.473   3.536   6.471 -0.7738  1.1060  1.4331
  141OSM    H1T15407   6.443   3.364   6.504  1.2110 -0.1489 -1.0486
  141OSM     NF15408   6.434   3.515   6.737  0.2530 -0.6464  0.5695
  141OSM    HNF15409   6.437   3.445   6.808  0.5146 -0.7143  0.4915
  141OSM    C2S15410   6.334   3.490   6.640  0.1888 -0.4010 -0.2479
  141OSM    H2S15411   6.262   3.575   6.632  0.9544  0.2206 -0.7625
  141OSM    C3S15412   6.240   3.371   6.689  0.5621 -0.0306 -0.1101
  141OSM    H3S15413   6.304   3.283   6.713 -2.0806 -1.9391  0.4943
  141OSM     O315414   6.151   3.325   6.589 -0.6786 -0.2723  0.1836
  141OSM    HO315415   6.200   3.345   6.509 -0.7383 -2.2152 -0.3880
  141OSM    C4S15416   6.176   3.400   6.822  1.2241 -0.1978  0.0005
  141OSM    H4S15417   6.242   3.372   6.906  0.4238 -0.6236  0.5086
  141OSM    C5S15418   6.045   3.445   6.846 -0.0751  0.2061  0.1064
  141OSM    H5S15419   5.991   3.471   6.753 -1.3530  0.2886  0.8484
  141OSM    C6S15420   5.981   3.482   6.979 -0.7649 -0.1185 -0.3643
  141OSM    H6S15421   5.885   3.428   6.967 -0.1594 -1.9005  2.1077
  141OSM    H6T15422   5.964   3.592   6.988  0.2618 -0.0471  0.9635
  141OSM    C7S15423   6.064   3.424   7.099  0.0704 -0.5669  0.0468
  141OSM    H7S15424   6.168   3.462   7.092 -0.0207 -0.5844 -4.2721
  141OSM    H7T15425   6.085   3.316   7.084  0.9707 -0.4508  0.4226
  141OSM    C8S15426   6.001   3.439   7.239 -1.0088 -0.0327  0.8440
  141OSM    H8S15427   5.891   3.425   7.248 -0.8905 -0.9778  0.9714
  141OSM    H8T15428   6.016   3.547   7.260 -1.8200  0.3906 -0.6363
  141OSM    C9S15429   6.057   3.352   7.351 -0.1500 -0.7827  0.0838
  141OSM    H9S15430   6.168   3.354   7.347 -0.1586 -0.3777 -0.0047
  141OSM    H9T15431   6.030   3.246   7.330  0.7350 -0.9031 -0.5179
  141OSM   C10S15432   6.026   3.400   7.491 -0.0459  0.5395 -0.3773
  141OSM   H10S15433   5.916   3.408   7.508 -0.2156  1.4473 -1.6958
  141OSM   H10T15434   6.077   3.496   7.509 -1.4925  0.6415  4.3599
  141OSM   C11S15435   6.081   3.296   7.591  0.2653 -0.0821  0.6270
  141OSM   H11S15436   6.191   3.301   7.603  0.4442 -1.2826 -0.2551
  141OSM   H11T15437   6.063   3.188   7.572 -0.8709 -0.1767  2.0789
  141OSM   C12S15438   6.019   3.310   7.731  0.1936 -0.8361  0.3841
  141OSM   H12S15439   5.909   3.297   7.726  0.1405 -0.9283  1.5031
  141OSM   H12T15440   6.041   3.408   7.778 -0.4254 -1.0922  1.2457
  141OSM   C13S15441   6.076   3.205   7.830  0.1452  0.7688 -0.9868
  141OSM   H13S15442   6.187   3.206   7.839  0.0066  0.6455  1.2418
  141OSM   H13T15443   6.055   3.101   7.796  1.6983  1.0100 -2.8769
  141OSM   C14S15444   6.027   3.230   7.975 -0.3319  0.4243 -0.5445
  141OSM   H14S15445   5.916   3.243   7.976 -0.4174 -0.2614  0.1620
  141OSM   H14T15446   6.067   3.330   8.000 -0.7505  0.1807  1.2650
  141OSM   C15S15447   6.072   3.114   8.068  0.2686 -0.2843 -1.0596
  141OSM   H15S15448   6.034   3.014   8.036 -1.2511 -0.0799 -0.0030
  141OSM   H15T15449   6.026   3.132   8.167  1.8267 -3.1631  0.3202
  141OSM   C16S15450   6.228   3.113   8.081 -0.1227 -0.8983 -0.0005
  141OSM   H16S15451   6.264   3.217   8.092  0.9154 -1.2895  0.4725
  141OSM   H16T15452   6.279   3.093   7.985  1.7272 -0.0158  0.7670
  141OSM   C17S15453   6.281   3.020   8.188  0.4322  0.1015 -0.0995
  141OSM   H17S15454   6.381   2.989   8.151 -0.0196 -0.6935 -0.6831
  141OSM   H17T15455   6.211   2.934   8.193  0.2114  0.3539  1.7072
  141OSM   C18S15456   6.287   3.082   8.321  0.0673 -0.0621 -0.6755
  141OSM   H18S15457   6.327   3.018   8.403  1.0370  0.6561 -0.5706
  141OSM   H18T15458   6.187   3.114   8.356  0.8414  1.6933  0.0594
  141OSM   H18U15459   6.346   3.176   8.323 -1.0783  0.7479 -2.5525
  141OSM    C1F15460   6.531   3.605   6.739  0.5439 -0.3714 -0.2739
  141OSM     OF15461   6.536   3.689   6.649 -0.8314 -0.0997 -0.4695
  141OSM    C2F15462   6.626   3.603   6.851  0.0687  0.3707  0.1077
  141OSM    H2F15463   6.683   3.508   6.846  0.4430  0.6543 -2.1630
  141OSM    H2G15464   6.569   3.606   6.946  0.8887 -0.2031  0.6223
  141OSM    C3F15465   6.735   3.715   6.835  0.2725 -0.1317  0.3015
  141OSM    H3F15466   6.683   3.812   6.819 -0.8783 -0.7846 -0.0756
  141OSM    H3G15467   6.806   3.686   6.755  0.7347 -1.1181  1.0549
  141OSM    C4F15468   6.824   3.733   6.965  0.1193  0.5511 -0.1061
  141OSM    H4F15469   6.911   3.801   6.962 -0.9856  1.9855 -1.1084
  141OSM    H4G15470   6.859   3.631   6.989 -0.1251  0.6150  0.5607
  141OSM    C5F15471   6.748   3.780   7.093  0.1485  0.4515  0.0872
  141OSM    H5F15472   6.686   3.695   7.131 -0.3585 -0.2144 -2.1013
  141OSM    H5G15473   6.681   3.868   7.081 -1.6117 -1.0300 -1.5984
  141OSM    C6F15474   6.842   3.809   7.218 -0.0332  0.0083 -0.0435
  141OSM    H6F15475   6.901   3.900   7.195 -0.9309  0.2421 -1.5489
  141OSM    H6G15476   6.924   3.734   7.208 -2.9350 -3.3983 -0.0466
  141OSM    C7F15477   6.773   3.818   7.352 -0.3266 -0.2497 -0.2841
  141OSM    H7F15478   6.756   3.718   7.397  1.4621 -1.5846 -2.3349
  141OSM    H7G15479   6.673   3.864   7.339  0.2870  1.8757  1.8012
  141OSM    C8F15480   6.838   3.907   7.464 -0.0383  0.3608 -0.3570
  141OSM    H8F15481   6.758   3.932   7.537 -0.6801  1.7566 -1.4873
  141OSM    H8G15482   6.879   4.003   7.424 -2.1367  1.7760  0.7119
  141OSM    C9F15483   6.955   3.830   7.520  0.3289  0.2516 -0.1719
  141OSM    H9F15484   7.053   3.842   7.472  0.3636  0.0941 -0.1415
  141OSM   C10F15485   6.952   3.767   7.636 -0.1011 -0.1494 -0.0715
  141OSM   H10F15486   7.045   3.728   7.680  0.5727  0.9560 -0.4772
  141OSM   C11F15487   6.834   3.748   7.726  0.4050  0.1643 -0.9347
  141OSM   H11F15488   6.840   3.647   7.771  1.4605 -0.1814 -1.7978
  141OSM   H11G15489   6.744   3.746   7.661 -0.2690  0.7976 -0.0461
  141OSM   C12F15490   6.821   3.846   7.840 -0.2012 -0.1183 -0.0324
  141OSM   H12F15491   6.719   3.832   7.882 -0.6420  2.0828 -0.2180
  141OSM   H12G15492   6.811   3.952   7.806 -0.1429 -0.0761  0.0804
  141OSM   C13F15493   6.943   3.845   7.928  0.6265  0.2849  0.0092
  141OSM   H13F15494   6.939   3.929   8.001  1.0221  0.9570 -0.7260
  141OSM   H13G15495   7.026   3.867   7.857  0.4104  0.6470 -0.1367
  141OSM   C14F15496   6.971   3.718   8.006  0.2548  0.4898 -0.4514
  141OSM   H14F15497   7.074   3.723   8.047  0.6300  0.1897 -1.3380
  141OSM   H14G15498   6.970   3.624   7.947  1.3335  1.6458 -2.4315
  141OSM   C15F15499   6.874   3.712   8.124  0.0011 -0.2656 -0.1716
  141OSM   H15F15500   6.778   3.678   8.080 -2.0087  1.7931  2.3712
  141OSM   H15G15501   6.848   3.817   8.147  1.0256 -0.2619  1.0954
  141OSM   C16F15502   6.933   3.623   8.235 -0.3661 -0.5568 -0.3927
  141OSM   H16F15503   7.031   3.670   8.258 -0.9196  0.2580  0.3178
  141OSM   H16G15504   6.935   3.518   8.198 -2.4967 -0.8828  0.2764
  141OSM   C17F15505   6.844   3.622   8.361  0.3648  0.6435 -0.0216
  141OSM   H17F15506   6.747   3.575   8.334 -0.8960  2.2872  1.3575
  141OSM   H17G15507   6.818   3.725   8.394 -0.3800  0.5353 -0.2541
  141OSM   C18F15508   6.907   3.553   8.479 -0.0916  0.3577 -0.2876
  141OSM   H18F15509   6.889   3.444   8.479 -2.6203  0.6965  0.8171
  141OSM   H18G15510   6.865   3.602   8.569 -0.2437 -0.0580 -0.1310
  141OSM   H18H15511   7.015   3.575   8.492 -0.5609  2.9501 -0.2034
  142OSM      N15512   6.468   5.786   6.445 -0.5494  0.4729 -0.3767
  142OSM    C1515513   6.380   5.694   6.525  0.3323 -0.3261 -0.5247
  142OSM   H15A15514   6.405   5.705   6.629  2.4604 -4.9137 -0.3258
  142OSM   H15B15515   6.408   5.593   6.500  2.8374  0.0042  0.7050
  142OSM   H15C15516   6.275   5.718   6.511  1.1413  3.5670 -1.0435
  142OSM    C1415517   6.439   5.927   6.464 -0.6194 -0.5442 -0.3811
  142OSM   H14A15518   6.466   5.969   6.560 -1.5994 -1.2315  0.2131
  142OSM   H14B15519   6.335   5.942   6.439 -0.5629 -0.5770 -0.6434
  142OSM   H14C15520   6.490   5.986   6.390 -0.0889  0.1657  0.5348
  142OSM    C1315521   6.607   5.749   6.481 -0.3767  0.4581  0.3540
  142OSM   H13A15522   6.638   5.746   6.585  1.4432 -2.2068 -0.1516
  142OSM   H13B15523   6.682   5.805   6.428  0.6049 -2.2619 -1.3279
  142OSM   H13C15524   6.623   5.644   6.464  0.6680  0.3578  1.7476
  142OSM    C1215525   6.457   5.747   6.297 -0.1547 -0.6592 -0.0397
  142OSM   H12A15526   6.514   5.819   6.239  0.9163 -2.2301 -1.0124
  142OSM   H12B15527   6.356   5.769   6.267 -0.0538  0.3266  0.3032
  142OSM    C1115528   6.503   5.607   6.243  0.3073 -0.8592  0.0769
  142OSM   H11A15529   6.609   5.609   6.211  0.1761 -2.3998 -0.5325
  142OSM   H11B15530   6.444   5.594   6.150  1.7456  2.3731 -1.4187
  142OSM      P15531   6.552   5.386   6.365  0.2909 -0.4624  0.0865
  142OSM    O1315532   6.591   5.305   6.250 -0.0900 -0.1671  1.1409
  142OSM    O1415533   6.659   5.446   6.449 -0.6184  0.4375 -0.9845
  142OSM    O1115534   6.471   5.297   6.467  0.2492 -0.3145 -0.3482
  142OSM    O1215535   6.453   5.498   6.323 -0.6243  0.0441  0.2693
  142OSM    C1S15536   6.526   5.192   6.550  0.2286 -0.2556  0.6114
  142OSM    H1S15537   6.637   5.195   6.557  0.1454  2.0820  4.6980
  142OSM    H1T15538   6.491   5.092   6.518  1.4276 -0.9050  1.2929
  142OSM     NF15539   6.559   5.117   6.779  0.0027  0.6232 -0.1270
  142OSM    HNF15540   6.525   5.024   6.789  1.5217  0.0460 -0.1406
  142OSM    C2S15541   6.487   5.217   6.695 -0.5382  0.2338 -0.4297
  142OSM    H2S15542   6.521   5.322   6.709  0.0379 -0.1549  1.3696
  142OSM    C3S15543   6.330   5.213   6.720  0.3336  0.4668 -0.3578
  142OSM    H3S15544   6.297   5.107   6.711 -2.6541  1.1456  1.3029
  142OSM     O315545   6.251   5.281   6.622 -0.2525  0.3688  0.3704
  142OSM    HO315546   6.319   5.312   6.561 -1.7964  0.3396 -1.4550
  142OSM    C4S15547   6.295   5.264   6.854 -0.3176  0.1220 -0.8035
  142OSM    H4S15548   6.250   5.364   6.852 -0.3278  0.2001  1.3654
  142OSM    C5S15549   6.318   5.203   6.976 -0.6947 -0.0276 -0.0247
  142OSM    H5S15550   6.355   5.099   6.977 -0.8939 -0.1068 -0.6210
  142OSM    C6S15551   6.293   5.261   7.113 -0.5755 -0.2191 -0.4310
  142OSM    H6S15552   6.389   5.231   7.160  0.1573  3.0998  0.4691
  142OSM    H6T15553   6.216   5.198   7.163 -0.7946 -0.7837 -1.4374
  142OSM    C7S15554   6.274   5.409   7.142 -0.2909  0.1158  0.2902
  142OSM    H7S15555   6.182   5.439   7.087 -0.0258  0.2843 -0.0611
  142OSM    H7T15556   6.362   5.459   7.096 -0.5956  1.0065  0.6556
  142OSM    C8S15557   6.268   5.435   7.293  0.7705  0.3989  0.0577
  142OSM    H8S15558   6.333   5.366   7.351  0.1364 -0.3103 -0.0598
  142OSM    H8T15559   6.173   5.393   7.332  1.5051 -0.8091  0.6134
  142OSM    C9S15560   6.282   5.577   7.331  0.3206  0.1181 -0.4410
  142OSM    H9S15561   6.191   5.640   7.344  1.2717  1.2138  1.1939
  142OSM    H9T15562   6.331   5.633   7.249  1.4694  1.2422  0.9645
  142OSM   C10S15563   6.370   5.587   7.462  0.4509  0.2070 -0.4963
  142OSM   H10S15564   6.395   5.691   7.491  2.7553 -0.1737 -0.8843
  142OSM   H10T15565   6.466   5.530   7.460 -0.5267 -1.4869 -0.8211
  142OSM   C11S15566   6.290   5.529   7.585  0.5499  0.3311  0.3549
  142OSM   H11S15567   6.361   5.522   7.670 -0.5615 -2.5362  1.1893
  142OSM   H11T15568   6.244   5.432   7.557  1.5008 -0.3110  0.9411
  142OSM   C12S15569   6.174   5.618   7.625  0.1373  0.0408  0.0424
  142OSM   H12S15570   6.103   5.598   7.542  0.1472 -4.2279  0.8201
  142OSM   H12T15571   6.207   5.723   7.613  0.7224  0.1333  2.0390
  142OSM   C13S15572   6.094   5.608   7.763  0.1029  0.1788  0.0638
  142OSM   H13S15573   6.049   5.507   7.771  0.6364 -0.0679 -0.0221
  142OSM   H13T15574   6.016   5.685   7.744 -0.4982 -0.2608  0.7224
  142OSM   C14S15575   6.170   5.653   7.884 -0.3618  0.0035 -0.9927
  142OSM   H14S15576   6.205   5.759   7.886  0.4200 -0.2158  2.0806
  142OSM   H14T15577   6.267   5.600   7.895 -0.5839  0.1148  2.8717
  142OSM   C15S15578   6.091   5.619   8.014 -1.2266  0.7221  0.1122
  142OSM   H15S15579   6.063   5.516   7.983  0.8225 -0.1306  0.8885
  142OSM   H15T15580   6.007   5.691   8.009 -2.8937 -1.1768 -0.7920
  142OSM   C16S15581   6.172   5.635   8.145 -0.1399 -0.2835  0.1009
  142OSM   H16S15582   6.263   5.572   8.135 -0.9971 -1.3120 -1.9317
  142OSM   H16T15583   6.107   5.598   8.227 -0.3524  2.4371  1.2701
  142OSM   C17S15584   6.203   5.778   8.174 -0.0207 -0.4285  0.0061
  142OSM   H17S15585   6.253   5.830   8.089 -2.2118  2.2131  0.2041
  142OSM   H17T15586   6.284   5.782   8.251  1.8114 -0.4818 -1.8232
  142OSM   C18S15587   6.083   5.866   8.213 -0.1853  0.6160 -0.5523
  142OSM   H18S15588   6.007   5.847   8.134  2.2232 -2.0874 -2.4697
  142OSM   H18T15589   6.118   5.971   8.217  0.1872  0.4495  1.9023
  142OSM   H18U15590   6.054   5.830   8.314  0.9302 -0.3157 -0.5410
  142OSM    C1F15591   6.677   5.133   6.825  0.7329  0.2228 -0.3298
  142OSM     OF15592   6.746   5.222   6.778 -0.4758 -0.0825  0.1288
  142OSM    C2F15593   6.725   5.046   6.934 -0.1613  0.1636 -0.2962
  142OSM    H2F15594   6.683   4.944   6.923  1.5473 -0.5365 -0.6365
  142OSM    H2G15595   6.685   5.102   7.022  2.0325  1.9962 -0.3473
  142OSM    C3F15596   6.893   5.042   6.947  0.1944 -0.2147 -0.2300
  142OSM    H3F15597   6.933   5.142   6.918 -0.9465  0.2916 -0.1188
  142OSM    H3G15598   6.922   4.978   6.861  2.3163  0.4953 -0.1002
  142OSM    C4F15599   6.948   4.969   7.071 -0.2012  1.1035  0.0435
  142OSM    H4F15600   7.046   4.926   7.042  1.7190  2.2869  3.9528
  142OSM    H4G15601   6.880   4.889   7.105  1.2052 -0.3545 -0.4581
  142OSM    C5F15602   6.968   5.065   7.191 -0.1288 -0.1690 -0.1095
  142OSM    H5F15603   6.870   5.107   7.218 -0.6245  0.6563 -2.8419
  142OSM    H5G15604   7.033   5.150   7.162 -0.5570  1.2845  2.8722
  142OSM    C6F15605   7.033   4.998   7.309 -0.0151 -0.0023  0.3404
  142OSM    H6F15606   7.127   4.952   7.271  0.2609  2.2025 -1.8958
  142OSM    H6G15607   6.968   4.923   7.359 -0.8456  1.8440  2.1322
  142OSM    C7F15608   7.077   5.091   7.417 -0.1120  0.9833 -0.1729
  142OSM    H7F15609   6.989   5.127   7.476 -0.2947  1.8428 -0.9476
  142OSM    H7G15610   7.130   5.181   7.380  0.7960  0.5931  0.1481
  142OSM    C8F15611   7.159   5.011   7.522  0.5516 -0.1120  0.8244
  142OSM    H8F15612   7.233   4.951   7.464 -0.4214  0.4188 -1.0569
  142OSM    H8G15613   7.113   4.933   7.586  0.4379 -0.1294  0.7222
  142OSM    C9F15614   7.236   5.119   7.602  0.0242 -0.0430 -0.6294
  142OSM    H9F15615   7.247   5.221   7.564 -0.2286  1.6566  3.3777
  142OSM   C10F15616   7.268   5.099   7.728  0.4163  0.0237  0.3781
  142OSM   H10F15617   7.310   5.189   7.776 -0.2301  1.1709 -1.1406
  142OSM   C11F15618   7.247   4.982   7.824  0.0827  0.0128 -0.5382
  142OSM   H11F15619   7.145   4.942   7.808  0.3892 -0.0807 -2.4908
  142OSM   H11G15620   7.242   5.032   7.924 -1.3201 -1.1846  0.0284
  142OSM   C12F15621   7.369   4.881   7.818  0.3922 -0.1120  0.4266
  142OSM   H12F15622   7.466   4.930   7.839  0.5219 -0.0269 -0.3397
  142OSM   H12G15623   7.368   4.839   7.715 -2.5517  0.1717  0.2504
  142OSM   C13F15624   7.349   4.762   7.916 -0.4810  0.2637  0.5628
  142OSM   H13F15625   7.263   4.708   7.871  2.3888 -1.7778 -3.0373
  142OSM   H13G15626   7.334   4.800   8.020 -0.7560 -0.8002  0.9259
  142OSM   C14F15627   7.460   4.655   7.900 -0.9410  0.0521 -0.6228
  142OSM   H14F15628   7.547   4.691   7.959 -1.7850  0.8681  0.1615
  142OSM   H14G15629   7.498   4.655   7.796  0.8766 -1.4733 -0.0206
  142OSM   C15F15630   7.418   4.515   7.952 -0.3869  0.1620 -0.6842
  142OSM   H15F15631   7.507   4.449   7.954 -0.3440  0.2271  1.0882
  142OSM   H15G15632   7.345   4.471   7.880  0.0170  0.7054 -1.4421
  142OSM   C16F15633   7.358   4.512   8.093  0.0550  0.2534  0.4086
  142OSM   H16F15634   7.366   4.606   8.151  1.7948 -0.1581  0.9062
  142OSM   H16G15635   7.408   4.426   8.142 -1.7363 -1.7226 -1.0493
  142OSM   C17F15636   7.204   4.481   8.097  0.2678 -0.4355 -0.1435
  142OSM   H17F15637   7.192   4.375   8.068  0.4202 -0.3885 -0.3808
  142OSM   H17G15638   7.144   4.552   8.036  1.4886  1.4773  0.7833
  142OSM   C18F15639   7.154   4.506   8.238 -0.1428 -0.2833 -0.0950
  142OSM   H18F15640   7.169   4.614   8.260  0.7042 -0.2238 -0.9287
  142OSM   H18G15641   7.227   4.452   8.301  1.5741  1.5221 -0.4262
  142OSM   H18H15642   7.050   4.476   8.260  0.2732  0.0688  2.7581
  143OSM      N15643   1.985   0.146   6.237 -0.1966 -0.2520 -0.8529
  143OSM    C1515644   2.119   0.085   6.211  0.9534 -0.2607 -0.0386
  143OSM   H15A15645   2.104   0.001   6.146 -1.7912  1.1875 -1.4636
  143OSM   H15B15646   2.153   0.047   6.306 -1.8938 -0.6154  0.9400
  143OSM   H15C15647   2.189   0.155   6.169  0.8777 -1.0728 -1.5915
  143OSM    C1415648   1.998   0.237   6.351 -0.4799 -0.5732 -0.4331
  143OSM   H14A15649   1.902   0.285   6.365 -0.0742  0.1187  0.0380
  143OSM   H14B15650   2.070   0.316   6.334 -1.9633  1.0190  0.2677
  143OSM   H14C15651   2.034   0.193   6.442  0.5877  3.3833  1.2529
  143OSM    C1315652   1.938   0.222   6.122  0.5068  0.5411 -0.3865
  143OSM   H13A15653   1.834   0.251   6.125 -0.0199 -1.3717  1.5896
  143OSM   H13B15654   1.944   0.159   6.035 -0.0972 -0.3278  0.1912
  143OSM   H13C15655   1.986   0.318   6.111  0.6552  0.8834  2.5537
  143OSM    C1215656   1.879   0.040   6.284  0.2852  0.7818  0.0561
  143OSM   H12A15657   1.792   0.096   6.314  0.2580 -0.3484  2.2866
  143OSM   H12B15658   1.916  -0.013   6.370 -0.0675  0.8899  0.2774
  143OSM    C1115659   1.836  -0.065   6.175 -0.2940 -0.0335  0.1085
  143OSM   H11A15660   1.802  -0.010   6.085  0.1024  0.2120  0.1086
  143OSM   H11B15661   1.752  -0.127   6.214  0.8026 -1.7297 -0.1112
  143OSM      P15662   1.976  -0.297   6.157 -0.4351  0.0233  0.5387
  143OSM    O1315663   1.886  -0.378   6.073  0.5117 -0.1357  0.6159
  143OSM    O1415664   2.115  -0.333   6.141  0.0658  0.1141  0.0241
  143OSM    O1115665   1.940  -0.313   6.310 -0.0141  0.3551  0.2653
  143OSM    O1215666   1.947  -0.139   6.127  0.5404 -0.6507  0.4907
  143OSM    C1S15667   2.033  -0.262   6.403  0.3184 -0.0849  0.3811
  143OSM    H1S15668   2.047  -0.153   6.387 -1.5492 -0.0078 -0.9959
  143OSM    H1T15669   2.132  -0.313   6.411 -0.7397 -2.5234 -0.9202
  143OSM     NF15670   2.043  -0.175   6.625 -0.0076 -0.5729  0.1694
  143OSM    HNF15671   2.113  -0.218   6.682 -2.4108 -3.1808  1.4348
  143OSM    C2S15672   1.963  -0.257   6.538 -0.2339  0.5332  0.0626
  143OSM    H2S15673   1.860  -0.215   6.530  0.3886  2.3614  1.0220
  143OSM    C3S15674   1.952  -0.402   6.588  0.9102 -0.2008  0.1666
  143OSM    H3S15675   2.053  -0.445   6.606 -0.0263 -1.9926  1.4590
  143OSM     O315676   1.881  -0.493   6.505 -0.1812 -0.1073 -0.3772
  143OSM    HO315677   1.866  -0.459   6.416 -2.6666 -1.8823 -0.7418
  143OSM    C4S15678   1.889  -0.407   6.724  0.3298 -0.3718  0.3431
  143OSM    H4S15679   1.783  -0.376   6.722  0.2335 -0.6724 -1.5976
  143OSM    C5S15680   1.932  -0.463   6.838 -0.2811  0.1141  0.0763
  143OSM    H5S15681   2.031  -0.510   6.841  0.3074  0.7952 -3.6892
  143OSM    C6S15682   1.850  -0.478   6.965  0.0990  0.2582 -0.0617
  143OSM    H6S15683   1.828  -0.587   6.970  1.6817 -0.0185  1.6442
  143OSM    H6T15684   1.749  -0.430   6.965  0.6915  1.5494  0.9461
  143OSM    C7S15685   1.936  -0.428   7.077  0.2233  0.2585 -0.0443
  143OSM    H7S15686   1.976  -0.325   7.068 -1.4676  0.8046 -2.0168
  143OSM    H7T15687   2.028  -0.490   7.071  0.9983  1.2993  0.6992
  143OSM    C8S15688   1.865  -0.452   7.214  0.9000 -0.5023  0.0551
  143OSM    H8S15689   1.855  -0.562   7.228  3.8435 -1.1054 -1.7681
  143OSM    H8T15690   1.763  -0.407   7.216  1.2268  0.2288  1.6478
  143OSM    C9S15691   1.960  -0.409   7.319 -0.0263  0.0664 -0.1756
  143OSM    H9S15692   1.957  -0.298   7.331 -2.0758  0.0402 -0.0641
  143OSM    H9T15693   2.065  -0.442   7.302 -0.0185  0.7129 -1.5210
  143OSM   C10S15694   1.917  -0.456   7.464 -0.2112  0.2818  0.0572
  143OSM   H10S15695   1.906  -0.566   7.466  2.0074  0.0146  0.4438
  143OSM   H10T15696   1.819  -0.411   7.491  0.8666  1.9210  1.4971
  143OSM   C11S15697   2.018  -0.422   7.577  0.6904  0.6806 -1.0317
  143OSM   H11S15698   2.036  -0.313   7.567 -0.7190  0.8094 -2.3337
  143OSM   H11T15699   2.115  -0.472   7.554  1.8487  1.5720  1.5431
  143OSM   C12S15700   1.957  -0.454   7.715  0.5484 -0.8279  0.6783
  143OSM   H12S15701   1.936  -0.563   7.712  2.3506 -1.2675  2.0206
  143OSM   H12T15702   1.855  -0.413   7.731 -0.2730 -2.3689 -0.3831
  143OSM   C13S15703   2.056  -0.418   7.833 -0.6133 -0.5082 -0.4744
  143OSM   H13S15704   2.118  -0.329   7.809  0.3381 -1.0355 -0.0216
  143OSM   H13T15705   2.128  -0.500   7.850 -0.1910  0.3048  1.9600
  143OSM   C14S15706   1.996  -0.391   7.971 -1.3054 -0.2534 -0.4505
  143OSM   H14S15707   2.079  -0.369   8.041 -1.7178 -0.3669  0.0728
  143OSM   H14T15708   1.938  -0.479   8.004 -3.3649  0.9783 -0.6104
  143OSM   C15S15709   1.889  -0.282   7.978 -0.3571  0.2704  0.0247
  143OSM   H15S15710   1.803  -0.305   7.912 -0.8188 -0.7222  0.9261
  143OSM   H15T15711   1.933  -0.188   7.941 -1.9277  0.4922 -1.3884
  143OSM   C16S15712   1.835  -0.254   8.116  0.3974 -0.6003  0.0380
  143OSM   H16S15713   1.768  -0.166   8.115  1.7553  0.4680  0.3277
  143OSM   H16T15714   1.918  -0.235   8.188 -0.7190  0.9823  0.9799
  143OSM   C17S15715   1.761  -0.379   8.180 -1.0495  0.6787 -0.1235
  143OSM   H17S15716   1.837  -0.459   8.189 -1.7420 -0.1068 -1.0139
  143OSM   H17T15717   1.694  -0.426   8.105 -1.3450 -1.6767  1.5011
  143OSM   C18S15718   1.689  -0.340   8.309  0.7172 -0.4340  0.5368
  143OSM   H18S15719   1.673  -0.432   8.369  0.0874 -1.1208 -0.6551
  143OSM   H18T15720   1.591  -0.292   8.288  1.7124  1.0813 -1.0303
  143OSM   H18U15721   1.752  -0.271   8.369  0.1985  0.4858  0.0505
  143OSM    C1F15722   2.037  -0.041   6.622 -0.1656  0.1106 -0.0084
  143OSM     OF15723   1.947   0.016   6.567  0.1895 -0.4143  0.3029
  143OSM    C2F15724   2.156   0.036   6.673  0.6700 -0.1176 -0.1756
  143OSM    H2F15725   2.164   0.129   6.613  0.0732 -0.4203 -0.7238
  143OSM    H2G15726   2.250  -0.022   6.661  0.3797 -0.2194 -2.2217
  143OSM    C3F15727   2.133   0.087   6.826 -0.2162  0.0532  0.6989
  143OSM    H3F15728   2.041   0.149   6.834  0.2980  0.8234  0.6762
  143OSM    H3G15729   2.213   0.161   6.846  0.0938 -0.2580  0.6281
  143OSM    C4F15730   2.131  -0.027   6.931 -0.0242  0.6223  0.6676
  143OSM    H4F15731   2.224  -0.089   6.925  0.3535  1.2166  0.2832
  143OSM    H4G15732   2.050  -0.101   6.913  2.3541 -2.0583  0.3012
  143OSM    C5F15733   2.111   0.013   7.080  0.0899 -0.5791 -0.3728
  143OSM    H5F15734   2.002   0.010   7.102  0.1573  0.7495  0.2675
  143OSM    H5G15735   2.158   0.113   7.094 -0.3760  0.0459 -2.7541
  143OSM    C6F15736   2.182  -0.078   7.177 -0.3107  0.1076  0.0458
  143OSM    H6F15737   2.287  -0.075   7.141  0.1265  1.5519  1.3473
  143OSM    H6G15738   2.131  -0.176   7.165 -1.2854  0.1979  2.7556
  143OSM    C7F15739   2.184  -0.031   7.330 -0.3074  0.1591  0.2362
  143OSM    H7F15740   2.078  -0.018   7.359  0.0748 -0.2850  1.9395
  143OSM    H7G15741   2.229   0.070   7.343  0.0106 -0.0377  0.6947
  143OSM    C8F15742   2.238  -0.131   7.430  1.2226 -0.0949 -0.7081
  143OSM    H8F15743   2.215  -0.236   7.402  0.6980 -0.4231  0.9077
  143OSM    H8G15744   2.184  -0.113   7.525  1.9992  0.0475 -0.2790
  143OSM    C9F15745   2.380  -0.111   7.462 -0.1157  0.0819  0.5677
  143OSM    H9F15746   2.453  -0.170   7.405 -0.7928  0.5230 -0.7976
  143OSM   C10F15747   2.430  -0.038   7.561  0.3506 -0.2224  0.2636
  143OSM   H10F15748   2.539  -0.030   7.578  0.1369  1.3515  1.1497
  143OSM   C11F15749   2.331   0.035   7.651  0.1381  0.1307 -0.3635
  143OSM   H11F15750   2.236   0.052   7.596  0.8018  1.6835 -1.0875
  143OSM   H11G15751   2.365   0.139   7.667 -0.5239  0.9105 -3.4110
  143OSM   C12F15752   2.302  -0.052   7.780 -0.0891  0.4148  0.2884
  143OSM   H12F15753   2.257  -0.148   7.747  2.7661 -0.3853 -1.6893
  143OSM   H12G15754   2.235   0.010   7.843  2.8728  2.4765  1.6959
  143OSM   C13F15755   2.425  -0.087   7.870  0.2519  0.2311 -0.2209
  143OSM   H13F15756   2.477  -0.006   7.925  0.4871 -1.2043  1.7646
  143OSM   H13G15757   2.499  -0.126   7.797  0.5421  0.2377  0.0687
  143OSM   C14F15758   2.396  -0.188   7.990  0.2599 -0.7518 -0.4751
  143OSM   H14F15759   2.493  -0.195   8.044 -0.6558 -2.8303  1.0185
  143OSM   H14G15760   2.349  -0.286   7.967  0.3030 -0.6650 -0.9488
  143OSM   C15F15761   2.306  -0.126   8.093 -0.5031  0.0595 -0.0610
  143OSM   H15F15762   2.200  -0.120   8.060 -0.6697 -1.1933  0.2005
  143OSM   H15G15763   2.323  -0.017   8.109 -0.8174 -0.1972  2.4116
  143OSM   C16F15764   2.316  -0.200   8.219 -0.9206  0.6774  0.3717
  143OSM   H16F15765   2.391  -0.149   8.284  0.1450  1.4677 -1.4062
  143OSM   H16G15766   2.359  -0.302   8.211  1.3316  1.6185 -0.1646
  143OSM   C17F15767   2.180  -0.202   8.294  0.0153  0.2769 -0.5037
  143OSM   H17F15768   2.113  -0.273   8.239 -0.8598  0.5011  0.2416
  143OSM   H17G15769   2.132  -0.104   8.316  0.3014 -0.1792  2.6393
  143OSM   C18F15770   2.202  -0.266   8.434  0.2353 -0.5850 -0.0167
  143OSM   H18F15771   2.253  -0.363   8.412  3.3899  1.0479 -0.5524
  143OSM   H18G15772   2.104  -0.290   8.480  0.1489  3.2458  2.1991
  143OSM   H18H15773   2.257  -0.201   8.505 -2.3495  1.9519 -0.1653
  144OSM      N15774   1.736   5.703   6.001  0.6995  0.3648 -0.7324
  144OSM    C1515775   1.661   5.762   5.886  0.0045 -0.6425 -0.1510
  144OSM   H15A15776   1.603   5.851   5.902  0.1692  0.2539 -3.7458
  144OSM   H15B15777   1.589   5.687   5.855 -1.7257 -0.2281  2.5856
  144OSM   H15C15778   1.723   5.790   5.802 -0.4119  0.2224 -0.1810
  144OSM    C1415779   1.833   5.607   5.947 -0.1305 -0.0385  0.9160
  144OSM   H14A15780   1.787   5.517   5.907 -1.1780  0.6631  0.5003
  144OSM   H14B15781   1.898   5.572   6.026  0.6408 -0.8000 -0.0234
  144OSM   H14C15782   1.904   5.652   5.880  1.2379 -2.9722  0.2153
  144OSM    C1315783   1.791   5.820   6.078 -0.1920 -0.6585  0.2967
  144OSM   H13A15784   1.836   5.798   6.174  0.2633 -2.3841 -0.2632
  144OSM   H13B15785   1.720   5.891   6.116 -0.0885 -1.3836  1.9136
  144OSM   H13C15786   1.867   5.874   6.024 -0.6780 -0.7064 -0.4548
  144OSM    C1215787   1.643   5.627   6.098 -0.0224 -0.2362 -0.4167
  144OSM   H12A15788   1.699   5.586   6.181 -2.0743 -0.0395  1.1417
  144OSM   H12B15789   1.606   5.539   6.048 -0.4438 -0.6198  0.5560
  144OSM    C1115790   1.535   5.703   6.180 -0.1096  0.1449  0.8519
  144OSM   H11A15791   1.578   5.775   6.253  1.7702 -0.4527  0.3989
  144OSM   H11B15792   1.490   5.625   6.245 -1.2747 -0.2845 -0.4220
  144OSM      P15793   1.294   5.779   6.132 -0.3340  0.3276 -0.1298
  144OSM    O1315794   1.235   5.905   6.079  0.5274 -0.7072 -0.2467
  144OSM    O1415795   1.227   5.653   6.105 -0.2994  0.5060 -0.1142
  144OSM    O1115796   1.293   5.793   6.290 -0.2894 -0.0312  0.1722
  144OSM    O1215797   1.440   5.768   6.094  0.1139 -0.6785  0.6156
  144OSM    C1S15798   1.331   5.923   6.344 -0.1561  0.5880 -0.1396
  144OSM    H1S15799   1.258   6.003   6.319 -0.1248  0.9268  0.8155
  144OSM    H1T15800   1.429   5.965   6.311  0.6520 -2.0281 -1.3153
  144OSM     NF15801   1.356   6.061   6.539 -0.2848  0.2434  0.2737
  144OSM    HNF15802   1.448   6.092   6.563  0.3646 -0.3420 -1.3270
  144OSM    C2S15803   1.342   5.916   6.503 -0.5533 -0.7619  0.0441
  144OSM    H2S15804   1.247   5.887   6.554 -1.4239  3.6738  1.3617
  144OSM    C3S15805   1.457   5.817   6.544  0.2392  0.6203  0.0879
  144OSM    H3S15806   1.551   5.850   6.495 -0.3853 -0.1449 -1.7048
  144OSM     O315807   1.439   5.680   6.495  0.2532  0.1649 -0.0596
  144OSM    HO315808   1.398   5.687   6.409 -0.5725 -2.4249  0.0461
  144OSM    C4S15809   1.480   5.813   6.688 -0.1853  0.2690 -0.0394
  144OSM    H4S15810   1.399   5.767   6.746 -0.6991  0.9196 -0.2212
  144OSM    C5S15811   1.591   5.840   6.753 -0.2449 -0.1798  0.2510
  144OSM    H5S15812   1.663   5.907   6.703 -0.0208  0.5396  1.4827
  144OSM    C6S15813   1.609   5.839   6.904  0.3897 -0.6284  0.1215
  144OSM    H6S15814   1.712   5.800   6.905  2.2739  3.6884 -1.1215
  144OSM    H6T15815   1.549   5.762   6.958 -1.9661 -0.4009 -1.9383
  144OSM    C7S15816   1.596   5.983   6.967  0.0172 -0.4923  0.1770
  144OSM    H7S15817   1.488   6.008   6.982  0.3499  0.3491  1.2867
  144OSM    H7T15818   1.637   6.055   6.894  3.4111 -3.2422 -0.8779
  144OSM    C8S15819   1.665   6.005   7.101  0.1539  0.1962 -1.1466
  144OSM    H8S15820   1.681   6.114   7.115 -0.2550  0.0110  1.1967
  144OSM    H8T15821   1.765   5.957   7.096 -0.8509 -1.9569 -1.8433
  144OSM    C9S15822   1.583   5.962   7.226  0.4428  0.1647  0.1625
  144OSM    H9S15823   1.551   5.856   7.214 -3.8154  1.1249  1.1711
  144OSM    H9T15824   1.491   6.024   7.240  1.2174  1.5478 -0.6563
  144OSM   C10S15825   1.678   5.975   7.348  0.3489  0.3931 -1.0370
  144OSM   H10S15826   1.708   6.082   7.351 -0.3528  0.5899 -0.9693
  144OSM   H10T15827   1.770   5.919   7.320 -0.4869 -1.8609  0.4510
  144OSM   C11S15828   1.622   5.941   7.489  0.0189  0.5932 -0.0827
  144OSM   H11S15829   1.572   5.842   7.477 -2.9663  1.9685  0.0063
  144OSM   H11T15830   1.543   6.014   7.518  0.4805  1.0239  0.1077
  144OSM   C12S15831   1.719   5.945   7.603  0.1463 -0.0984 -0.4031
  144OSM   H12S15832   1.762   6.048   7.608  0.7351 -0.3939  1.6106
  144OSM   H12T15833   1.805   5.879   7.578 -0.2243  0.0342 -2.1111
  144OSM   C13S15834   1.670   5.920   7.741  0.7574 -0.8183  0.3742
  144OSM   H13S15835   1.644   5.812   7.737  2.4682 -1.2999 -4.5566
  144OSM   H13T15836   1.573   5.969   7.765  0.1915 -1.5174 -0.4146
  144OSM   C14S15837   1.774   5.947   7.854 -0.3928 -0.0410 -0.0888
  144OSM   H14S15838   1.807   6.052   7.845 -0.5494 -0.0630 -1.0093
  144OSM   H14T15839   1.853   5.869   7.848  0.9096  1.1923  0.4256
  144OSM   C15S15840   1.706   5.947   7.989 -0.3978 -0.0360 -0.4114
  144OSM   H15S15841   1.645   5.854   7.982 -1.5505  0.4847  1.8068
  144OSM   H15T15842   1.636   6.028   8.018 -0.5553 -0.2505 -0.1930
  144OSM   C16S15843   1.807   5.910   8.101 -0.4078 -0.5050  0.0840
  144OSM   H16S15844   1.897   5.975   8.110 -1.4796  0.9701  0.4295
  144OSM   H16T15845   1.858   5.813   8.083  0.7654  0.0507  0.2963
  144OSM   C17S15846   1.751   5.918   8.246 -0.7307  0.3062  0.7864
  144OSM   H17S15847   1.825   5.872   8.316  0.1321  0.9127  0.2809
  144OSM   H17T15848   1.655   5.862   8.252 -0.7293  0.4332  3.0185
  144OSM   C18S15849   1.738   6.060   8.288  0.5762  0.7360  0.3383
  144OSM   H18S15850   1.679   6.074   8.381  0.1192  1.1858 -0.0213
  144OSM   H18T15851   1.672   6.121   8.224 -2.0535 -1.3684  0.8888
  144OSM   H18U15852   1.839   6.104   8.306  1.4932 -1.0752 -0.0733
  144OSM    C1F15853   1.254   6.136   6.547  0.3746 -0.4157  0.1816
  144OSM     OF15854   1.142   6.109   6.499 -0.2024 -0.1283 -1.0861
  144OSM    C2F15855   1.277   6.268   6.609 -0.3815  0.6086  0.0031
  144OSM    H2F15856   1.283   6.352   6.536  1.0334 -0.1850 -0.8424
  144OSM    H2G15857   1.375   6.277   6.659 -0.1263  1.5700 -0.6163
  144OSM    C3F15858   1.158   6.321   6.701 -0.2111 -0.5113  0.0476
  144OSM    H3F15859   1.064   6.318   6.641  0.5992 -2.1089 -1.2393
  144OSM    H3G15860   1.174   6.427   6.726 -1.6665 -0.2656  0.0625
  144OSM    C4F15861   1.142   6.235   6.833  0.4143  0.4693  0.0978
  144OSM    H4F15862   1.114   6.129   6.817  0.5513  0.1996  1.5127
  144OSM    H4G15863   1.051   6.270   6.887  0.3157  0.1521  0.1414
  144OSM    C5F15864   1.255   6.238   6.938  0.5058 -0.6881 -0.4380
  144OSM    H5F15865   1.315   6.147   6.915  1.2231 -0.3570  0.0848
  144OSM    H5G15866   1.198   6.229   7.032  0.3343 -0.1531 -0.4884
  144OSM    C6F15867   1.341   6.362   6.945  0.4113 -0.0469 -0.5004
  144OSM    H6F15868   1.273   6.445   6.974  0.0298 -0.4268 -0.3015
  144OSM    H6G15869   1.382   6.388   6.845  2.2434  0.4460  0.3513
  144OSM    C7F15870   1.462   6.353   7.036  0.2392 -0.1707  0.7642
  144OSM    H7F15871   1.526   6.443   7.027 -1.5424  1.0233 -0.8661
  144OSM    H7G15872   1.516   6.265   6.995 -0.8327  0.1413 -1.4435
  144OSM    C8F15873   1.430   6.319   7.188  0.4278  0.7958  0.6691
  144OSM    H8F15874   1.516   6.275   7.244 -0.6177 -0.8515  1.0360
  144OSM    H8G15875   1.360   6.234   7.177 -2.7412  3.3856 -1.0665
  144OSM    C9F15876   1.360   6.430   7.257  0.3251 -0.5454 -0.6948
  144OSM    H9F15877   1.287   6.496   7.206  0.7981  0.2417 -0.3620
  144OSM   C10F15878   1.379   6.460   7.386 -0.2255 -0.2793  0.7448
  144OSM   H10F15879   1.339   6.553   7.429  2.5324  0.4800  1.9295
  144OSM   C11F15880   1.468   6.386   7.476  0.2489 -0.6362 -0.1971
  144OSM   H11F15881   1.567   6.437   7.481  0.9462 -1.4649 -3.1537
  144OSM   H11G15882   1.486   6.282   7.442 -1.8115 -1.6342  1.5510
  144OSM   C12F15883   1.429   6.388   7.628  0.2653  0.1205 -0.2245
  144OSM   H12F15884   1.339   6.322   7.631 -0.1433  0.5760 -1.6823
  144OSM   H12G15885   1.413   6.491   7.665 -1.5242 -0.1117 -0.2553
  144OSM   C13F15886   1.541   6.321   7.703  0.2233  0.6113 -0.6763
  144OSM   H13F15887   1.642   6.350   7.666 -0.0622  1.9109 -0.4709
  144OSM   H13G15888   1.537   6.212   7.681 -0.7588  1.0313 -2.8769
  144OSM   C14F15889   1.534   6.355   7.850  0.1263  0.4590  0.2962
  144OSM   H14F15890   1.532   6.463   7.875  0.9923  0.1119  2.0060
  144OSM   H14G15891   1.616   6.302   7.903 -0.2703  0.7444  1.2083
  144OSM   C15F15892   1.411   6.288   7.917 -0.7028  0.0719  0.1830
  144OSM   H15F15893   1.407   6.186   7.874  1.8392  0.2849 -0.7322
  144OSM   H15G15894   1.317   6.339   7.887  0.2606  0.9199 -1.5518
  144OSM   C16F15895   1.417   6.275   8.066 -0.0399  0.2072 -0.4181
  144OSM   H16F15896   1.454   6.372   8.106  0.7292  0.2047 -1.0802
  144OSM   H16G15897   1.483   6.189   8.091 -0.4791  0.1651  0.6382
  144OSM   C17F15898   1.284   6.236   8.117 -0.7807  0.3639 -0.0626
  144OSM   H17F15899   1.247   6.152   8.054 -0.9806 -0.1120  0.6836
  144OSM   H17G15900   1.230   6.330   8.093 -0.9943  0.0892 -0.6842
  144OSM   C18F15901   1.276   6.203   8.261  0.8780  0.4717 -0.3522
  144OSM   H18F15902   1.367   6.155   8.304  0.0320 -0.4232  0.5159
  144OSM   H18G15903   1.199   6.129   8.291  2.8976 -0.4512  3.3125
  144OSM   H18H15904   1.245   6.292   8.320  0.7101 -1.9804  3.6440
  145SAPE     N15905   1.358   6.685  10.584  0.4117  0.2702  0.2485
  145SAPE   HN115906   1.346   6.779  10.626  1.0239 -0.4600  2.1410
  145SAPE   HN215907   1.267   6.634  10.579  0.2589  0.4390  1.1886
  145SAPE   HN315908   1.418   6.623  10.642  1.1425 -0.7301 -1.4703
  145SAPE   C1215909   1.414   6.696  10.444  0.4546 -0.1118 -0.3975
  145SAPE  H12A15910   1.520   6.663  10.453  0.7698  0.2158 -2.4299
  145SAPE  H12B15911   1.394   6.797  10.403 -0.5456 -0.2272 -0.2189
  145SAPE   C1115912   1.345   6.589  10.356  0.3573  0.6948 -0.6280
  145SAPE  H11A15913   1.399   6.569  10.261  0.6281 -0.3172 -0.2744
  145SAPE  H11B15914   1.253   6.638  10.319 -0.1817  0.2040  0.0469
  145SAPE     P15915   1.159   6.425  10.469  0.0402 -0.0150  0.2773
  145SAPE   O1315916   1.119   6.540  10.555 -0.2622  0.6957 -0.8015
  145SAPE   O1415917   1.072   6.418  10.352 -0.6278  0.3471 -0.1741
  145SAPE   O1215918   1.314   6.457  10.418 -0.1629  0.1013 -0.3835
  145SAPE   O1115919   1.152   6.286  10.542  0.1676 -0.2125 -0.0211
  145SAPE    C115920   1.252   6.186  10.516  0.1884  0.2752 -0.0178
  145SAPE    HA15921   1.352   6.225  10.488 -0.5771  1.1092 -1.7459
  145SAPE    HB15922   1.278   6.137  10.612  1.1678 -0.6352 -0.7307
  145SAPE    C215923   1.214   6.085  10.408  0.5917  0.2404  0.8850
  145SAPE    HS15924   1.295   6.016  10.377 -1.3725 -0.6259 -3.0264
  145SAPE   O2115925   1.145   6.152  10.300  0.5470 -0.3690  0.5341
  145SAPE   C2115926   1.235   6.190  10.216  0.1653 -0.2318  0.8973
  145SAPE   O2215927   1.356   6.193  10.236  0.2100 -0.1589  0.1696
  145SAPE   C2215928   1.170   6.241  10.090  0.0344  1.2745  0.1723
  145SAPE   H2R15929   1.101   6.163  10.052 -0.6052  1.6425  0.5669
  145SAPE   H2S15930   1.099   6.319  10.126  0.1046  2.7025 -2.5411
  145SAPE    C315931   1.104   5.991  10.465 -0.4813 -0.6490 -0.4294
  145SAPE    HX15932   1.008   6.045  10.482 -0.2133 -0.9104  2.5169
  145SAPE    HY15933   1.137   5.958  10.566  1.0936 -0.8761 -0.9943
  145SAPE   O3115934   1.096   5.869  10.381  0.1300 -0.7358  0.2412
  145SAPE   C3115935   1.019   5.885  10.271 -0.8071 -1.2722 -0.1311
  145SAPE   O3215936   0.949   5.981  10.249 -0.3723 -0.1886 -0.1461
  145SAPE   C3215937   1.010   5.750  10.193  0.1843 -0.5199 -0.2674
  145SAPE   H2X15938   0.943   5.753  10.105  1.4622 -1.2656 -1.2993
  145SAPE   H2Y15939   0.969   5.679  10.268  0.5695 -1.4328 -0.9119
  145SAPE   C2315940   1.268   6.290   9.982  0.1160 -0.3635 -0.2499
  145SAPE   H3R15941   1.325   6.207   9.936 -1.0975 -0.9999 -0.6445
  145SAPE   H3S15942   1.347   6.351  10.031  1.0267 -1.4813 -0.3148
  145SAPE   C2415943   1.192   6.380   9.882  0.1545  0.3700 -0.2046
  145SAPE   H4R15944   1.260   6.436   9.814 -0.7852  1.3118 -0.3920
  145SAPE   H4S15945   1.125   6.456   9.928 -0.1174 -1.1809  2.1156
  145SAPE   C2515946   1.103   6.293   9.799  0.0997  0.1404 -0.0708
  145SAPE   H5R15947   1.161   6.216   9.746  0.4755  0.2652  0.1575
  145SAPE   C2615948   0.971   6.305   9.780 -0.6361  0.5661 -0.0466
  145SAPE   H6R15949   0.929   6.225   9.717  0.6636  0.5707 -0.9541
  145SAPE   C2715950   0.876   6.409   9.829  0.2930 -0.5246  0.7583
  145SAPE   H7R15951   0.802   6.410   9.745  3.1201  0.4468 -1.9022
  145SAPE   H7S15952   0.927   6.508   9.835 -1.4500  0.6171 -1.5107
  145SAPE   C2815953   0.813   6.371   9.958  0.1941  0.5209 -1.2854
  145SAPE   H8R15954   0.868   6.390  10.052 -2.8605 -2.0950  1.2950
  145SAPE   C2915955   0.705   6.297   9.980 -0.1667  0.3958  0.0479
  145SAPE   H9R15956   0.676   6.273  10.083  1.1469  1.2758  0.6432
  145SAPE  C21015957   0.606   6.260   9.873  0.7303  0.5410 -0.2442
  145SAPE  H10R15958   0.526   6.195   9.914 -0.4375  0.8449 -1.9403
  145SAPE  H10S15959   0.649   6.196   9.793  1.7314  1.5107 -0.5102
  145SAPE  C21115960   0.536   6.385   9.811  0.6842  0.4955  0.1239
  145SAPE  H11R15961   0.528   6.472   9.877 -1.1204  0.7758 -0.4206
  145SAPE  C21215962   0.501   6.391   9.684 -0.9574  0.3952 -0.0730
  145SAPE  H12R15963   0.458   6.483   9.643 -0.1559  0.4057 -0.9337
  145SAPE  C21315964   0.515   6.280   9.584  0.6463  0.7196 -0.2885
  145SAPE  H13R15965   0.436   6.285   9.506  1.3595 -1.1216 -1.1782
  145SAPE  H13S15966   0.493   6.183   9.634  1.4534  0.2358 -0.8539
  145SAPE  C21415967   0.657   6.284   9.523  0.3042 -0.3361 -0.4424
  145SAPE  H14R15968   0.740   6.321   9.586  0.2379  1.5449 -1.4026
  145SAPE  C21515969   0.679   6.283   9.390  0.1739  0.4919  0.5936
  145SAPE  H15R15970   0.782   6.295   9.354  0.1120  0.5719  0.4401
  145SAPE  C21615971   0.578   6.270   9.273 -0.5373 -0.0808 -0.2643
  145SAPE  H16R15972   0.471   6.272   9.303 -0.4206  1.8359  0.2060
  145SAPE  H16S15973   0.595   6.171   9.226  0.0068 -0.6122  0.9899
  145SAPE  C21715974   0.611   6.384   9.174 -0.0193 -0.3995  0.4572
  145SAPE  H17R15975   0.717   6.384   9.141 -0.0877 -0.3261  0.2407
  145SAPE  H17S15976   0.592   6.485   9.216  0.4909  1.4327 -3.2802
  145SAPE  C21815977   0.520   6.377   9.047  0.5044  0.4053  0.4663
  145SAPE  H18R15978   0.413   6.388   9.074  0.5644  1.6867  0.2433
  145SAPE  H18S15979   0.532   6.277   9.000  3.2126  0.5119  0.7241
  145SAPE  C21915980   0.543   6.491   8.948 -0.6226 -0.4323  1.0849
  145SAPE  H19R15981   0.636   6.460   8.896 -1.4618 -0.2184 -0.5928
  145SAPE  H19S15982   0.548   6.590   9.000 -2.2005  0.8075 -0.9681
  145SAPE  C22015983   0.428   6.504   8.843 -0.3095 -0.0916  0.1760
  145SAPE  H20R15984   0.446   6.589   8.774  2.1735  1.1482  2.1828
  145SAPE  H20S15985   0.341   6.531   8.907 -1.2245 -1.7768 -0.2902
  145SAPE  H20T15986   0.413   6.407   8.791  2.5724  1.7792 -4.9163
  145SAPE   C3315987   1.156   5.719  10.153  0.1286  0.0539 -0.8603
  145SAPE   H3X15988   1.142   5.615  10.116 -2.5470 -0.1902  0.6347
  145SAPE   H3Y15989   1.232   5.710  10.234  0.5536 -3.8044 -1.4776
  145SAPE   C3415990   1.206   5.817  10.051 -0.1056  0.9428 -0.1402
  145SAPE   H4X15991   1.317   5.806  10.046 -0.1018 -0.0105  1.3653
  145SAPE   H4Y15992   1.181   5.923  10.068  0.2231  1.2494 -1.4503
  145SAPE   C3515993   1.164   5.767   9.913  0.3769  0.6249  0.2003
  145SAPE   H5X15994   1.064   5.719   9.922  0.6283  0.1685  0.5693
  145SAPE   H5Y15995   1.224   5.683   9.873 -0.4095  0.5086 -0.7903
  145SAPE   C3615996   1.155   5.883   9.817 -0.2152 -0.3667 -0.4754
  145SAPE   H6X15997   1.253   5.922   9.782 -1.7223  0.5994 -4.0831
  145SAPE   H6Y15998   1.108   5.970   9.869 -0.8120 -0.4025 -0.9345
  145SAPE   C3715999   1.082   5.847   9.687 -0.7850  0.2871 -0.8973
  145SAPE   H7X16000   0.974   5.834   9.711 -0.9484  2.0374 -0.5634
  145SAPE   H7Y16001   1.114   5.747   9.651  0.6403 -0.3678  1.9362
  145SAPE   C3816002   1.104   5.955   9.586  0.3485 -0.4821  0.3373
  145SAPE   H8X16003   1.202   5.945   9.535  0.0818 -0.7365 -0.1289
  145SAPE   H8Y16004   1.105   6.063   9.611 -0.2010  0.2015 -2.2764
  145SAPE   C3916005   1.007   5.959   9.467 -0.5352  0.0822  0.0497
  145SAPE   H9X16006   0.901   5.966   9.500 -0.7191 -0.7113 -0.3343
  145SAPE   H9Y16007   1.002   5.853   9.432  0.1579  0.6640 -1.9158
  145SAPE  C31016008   1.055   6.048   9.354 -0.1265 -0.5689  0.8420
  145SAPE  H10X16009   1.159   6.022   9.326 -0.8764 -0.8124 -1.9830
  145SAPE  H10Y16010   1.054   6.153   9.392 -1.1961 -0.3106  0.1404
  145SAPE  C31116011   0.977   6.042   9.224 -0.0918  0.4310 -0.4152
  145SAPE  H11X16012   0.874   6.076   9.245 -0.2704 -0.1699 -0.2962
  145SAPE  H11Y16013   0.970   5.938   9.183 -0.3496  0.3034 -0.0479
  145SAPE  C31216014   1.037   6.130   9.107  0.5917 -0.2480  0.4825
  145SAPE  H12X16015   1.143   6.101   9.094  0.7357  0.2067  0.6217
  145SAPE  H12Y16016   1.012   6.235   9.130  2.2616  0.1102  0.7511
  145SAPE  C31316017   0.967   6.107   8.968  0.5477 -0.0137 -1.1932
  145SAPE  H13X16018   0.954   5.996   8.971 -1.8688  0.2239  0.7502
  145SAPE  H13Y16019   1.040   6.137   8.891  1.2603  3.0713  0.5335
  145SAPE  C31416020   0.824   6.170   8.952  0.9580 -0.3733  0.1737
  145SAPE  H14X16021   0.828   6.280   8.971  1.4249 -0.7899  2.8999
  145SAPE  H14Y16022   0.764   6.118   9.029  0.3076 -0.1305 -0.1604
  145SAPE  C31516023   0.761   6.148   8.811  0.5782  0.6300 -0.0654
  145SAPE  H15X16024   0.657   6.186   8.805 -0.5841 -2.0940  1.0794
  145SAPE  H15Y16025   0.740   6.039   8.805 -2.0917  1.0993 -0.1793
  145SAPE  C31616026   0.839   6.202   8.689 -0.1312 -0.6529  0.0390
  145SAPE  H16X16027   0.935   6.147   8.696 -0.1268 -0.7381 -0.5932
  145SAPE  H16Y16028   0.865   6.310   8.693  0.4239 -0.7809 -0.0704
  145SAPE  C31716029   0.762   6.166   8.553  0.2939  0.2096 -0.1935
  145SAPE  H17X16030   0.657   6.200   8.558 -0.2714 -1.3507 -0.8125
  145SAPE  H17Y16031   0.770   6.056   8.538 -1.2219  0.0367  0.1194
  145SAPE  C31816032   0.824   6.237   8.440  0.5385  0.6646 -0.6445
  145SAPE  H18X16033   0.781   6.195   8.347 -1.3705 -0.8657  0.8378
  145SAPE  H18Y16034   0.934   6.226   8.451  0.1840 -0.0538  4.4239
  145SAPE  H18Z16035   0.808   6.347   8.447  2.4891  0.8922  1.3580
  146SAPE     N16036   5.850   2.544  10.715  0.0156 -0.2563  0.3100
  146SAPE   HN116037   5.787   2.495  10.649  0.7587  2.2893 -2.5086
  146SAPE   HN216038   5.945   2.530  10.677  0.2060 -0.7572  0.9482
  146SAPE   HN316039   5.832   2.501  10.808 -2.6455 -1.6054 -0.7124
  146SAPE   C1216040   5.821   2.693  10.710  0.2679  0.2317 -0.6118
  146SAPE  H12A16041   5.711   2.707  10.710  0.1802 -0.4136 -0.3554
  146SAPE  H12B16042   5.857   2.729  10.612  1.9444 -0.9082 -0.4607
  146SAPE   C1116043   5.887   2.781  10.823  0.2745 -0.4401 -0.5025
  146SAPE  H11A16044   5.839   2.756  10.920 -1.3165 -1.0293 -1.4166
  146SAPE  H11B16045   5.874   2.890  10.804  1.0787 -0.0455  1.0666
  146SAPE     P16046   6.127   2.812  10.733  0.3803  0.0173 -0.6515
  146SAPE   O1316047   6.204   2.921  10.808  0.0020  0.5626  0.5015
  146SAPE   O1416048   6.205   2.710  10.664 -0.0855 -0.1170 -0.2232
  146SAPE   O1216049   6.026   2.748  10.837  0.1867  0.4125  0.2298
  146SAPE   O1116050   6.035   2.885  10.634  0.1341 -0.2118  0.0203
  146SAPE    C116051   6.095   2.945  10.518 -0.0004 -0.2183  0.2587
  146SAPE    HA16052   6.038   3.030  10.475 -1.2921 -1.2513 -0.1432
  146SAPE    HB16053   6.191   2.992  10.549  0.2996 -1.6153  1.5576
  146SAPE    C216054   6.111   2.849  10.397 -0.7882  0.1159 -0.4730
  146SAPE    HS16055   6.167   2.759  10.431  1.4439  1.2894 -0.8362
  146SAPE   O2116056   6.188   2.913  10.295 -0.1103 -0.1721 -0.3459
  146SAPE   C2116057   6.327   2.924  10.297  0.2546 -0.3292 -0.0290
  146SAPE   O2216058   6.397   2.878  10.381 -1.0870  0.1755  1.0651
  146SAPE   C2216059   6.381   2.970  10.161 -0.1646  0.2697  0.7709
  146SAPE   H2R16060   6.310   3.046  10.121  0.5366 -0.1460 -1.3810
  146SAPE   H2S16061   6.482   3.010  10.182  0.1039  0.7074 -1.1298
  146SAPE    C316062   5.969   2.800  10.342  0.1605 -0.0506 -0.3487
  146SAPE    HX16063   5.900   2.887  10.339 -0.1117 -0.2860 -1.1957
  146SAPE    HY16064   5.928   2.720  10.408 -1.6609  2.1742  1.3596
  146SAPE   O3116065   5.984   2.763  10.205  0.2773 -0.0300 -0.4858
  146SAPE   C3116066   6.009   2.638  10.177  0.2871  0.3433 -0.5047
  146SAPE   O3216067   6.018   2.547  10.261  0.2678  0.0852 -0.1137
  146SAPE   C3216068   6.021   2.616  10.025  0.7331  0.5556 -0.1089
  146SAPE   H2X16069   6.125   2.594   9.992 -0.4614 -3.3134 -1.9137
  146SAPE   H2Y16070   5.986   2.709   9.977 -2.2014 -0.5953 -0.3830
  146SAPE   C2316071   6.382   2.855  10.057 -0.0448 -0.2549  0.1947
  146SAPE   H3R16072   6.303   2.777  10.062  0.7252 -1.0849 -0.3591
  146SAPE   H3S16073   6.471   2.794  10.086 -1.7132 -2.8438  0.2462
  146SAPE   C2416074   6.401   2.896   9.908 -0.3159  0.5106  0.7512
  146SAPE   H4R16075   6.508   2.897   9.879 -0.3026  1.7736  0.8036
  146SAPE   H4S16076   6.367   2.998   9.881  1.1798  0.4641 -1.6187
  146SAPE   C2516077   6.343   2.787   9.811 -1.1319  0.0589 -0.9999
  146SAPE   H5R16078   6.378   2.687   9.839  0.1806  1.0295  1.0207
  146SAPE   C2616079   6.250   2.804   9.716  0.4419 -0.5490  0.1642
  146SAPE   H6R16080   6.222   2.720   9.652 -0.6531 -0.5039  0.5585
  146SAPE   C2716081   6.173   2.931   9.673  0.0903  0.0990  0.5716
  146SAPE   H7R16082   6.238   2.977   9.596 -1.5418  0.5313 -0.5797
  146SAPE   H7S16083   6.152   2.997   9.760 -2.3973 -0.9645  0.8642
  146SAPE   C2816084   6.034   2.894   9.615  0.1769  0.3957 -0.1199
  146SAPE   H8R16085   5.969   2.865   9.699  2.5702  1.3819  2.1984
  146SAPE   C2916086   5.985   2.925   9.492 -0.2972 -0.2559  0.3449
  146SAPE   H9R16087   5.889   2.883   9.458  0.5565 -0.2220 -2.3294
  146SAPE  C21016088   6.071   2.992   9.387 -0.1465 -0.2861 -0.4811
  146SAPE  H10R16089   6.152   2.919   9.365 -1.2691 -1.2670 -1.4772
  146SAPE  H10S16090   6.122   3.080   9.432 -0.8257 -0.6030  0.9587
  146SAPE  C21116091   5.992   3.018   9.260  0.2412  0.1256 -0.4542
  146SAPE  H11R16092   5.885   3.036   9.273  0.1186 -0.7876 -0.1587
  146SAPE  C21216093   6.040   3.022   9.136 -0.2912 -0.3251 -0.4041
  146SAPE  H12R16094   5.964   3.043   9.060  1.9059  0.9572 -2.3572
  146SAPE  C21316095   6.182   3.010   9.094 -0.2675 -0.7377  0.5232
  146SAPE  H13R16096   6.192   2.950   9.001  2.4472  2.7431 -1.6710
  146SAPE  H13S16097   6.242   2.958   9.171 -1.4492  0.9632  2.7161
  146SAPE  C21416098   6.246   3.148   9.053 -0.4278 -0.0174 -0.9016
  146SAPE  H14R16099   6.252   3.209   9.145 -0.0201 -0.2101 -0.7954
  146SAPE  C21516100   6.293   3.198   8.942  0.2504 -0.2795  0.9781
  146SAPE  H15R16101   6.335   3.300   8.935 -0.6200  0.0389  0.2288
  146SAPE  C21616102   6.293   3.143   8.805  0.2054  0.3839 -0.2475
  146SAPE  H16R16103   6.262   3.221   8.732 -0.5120  0.9058  0.5881
  146SAPE  H16S16104   6.224   3.057   8.806 -0.0746  0.6083  0.4748
  146SAPE  C21716105   6.426   3.090   8.751 -0.4793  0.5787  0.3197
  146SAPE  H17R16106   6.503   3.170   8.751  1.0011 -0.7902 -1.1309
  146SAPE  H17S16107   6.402   3.067   8.645 -1.1128  1.2866  0.3063
  146SAPE  C21816108   6.489   2.976   8.835  0.1682  0.2471 -0.1654
  146SAPE  H18R16109   6.465   2.994   8.942 -0.1589  0.5225 -0.2810
  146SAPE  H18S16110   6.600   2.976   8.838  0.2023 -1.9026  0.1277
  146SAPE  C21916111   6.429   2.840   8.782 -0.0157 -0.1783  0.1277
  146SAPE  H19R16112   6.318   2.844   8.794 -0.1323  0.7400 -1.0090
  146SAPE  H19S16113   6.456   2.767   8.861 -0.5839 -0.9943 -0.4119
  146SAPE  C22016114   6.459   2.791   8.642 -0.0557  0.0097  0.7498
  146SAPE  H20R16115   6.451   2.681   8.645 -0.0658 -0.0273 -0.2449
  146SAPE  H20S16116   6.566   2.808   8.615  0.4092 -3.1406  0.2704
  146SAPE  H20T16117   6.395   2.844   8.568  2.0953  1.0803 -0.4801
  146SAPE   C3316118   5.932   2.495   9.968 -0.6654 -0.4955  0.0686
  146SAPE   H3X16119   5.826   2.501  10.002 -0.7184 -0.2552 -0.1415
  146SAPE   H3Y16120   5.974   2.402  10.013  0.0635 -1.7369 -2.9829
  146SAPE   C3416121   5.924   2.478   9.814  0.0445 -0.3987 -0.6430
  146SAPE   H4X16122   5.914   2.370   9.792  1.9360 -1.0556  1.3867
  146SAPE   H4Y16123   6.005   2.524   9.754  3.3587 -0.7024  3.1658
  146SAPE   C3516124   5.799   2.546   9.765 -0.1019 -0.4786  0.4074
  146SAPE   H5X16125   5.796   2.649   9.807 -2.6081  0.0630 -0.8798
  146SAPE   H5Y16126   5.708   2.492   9.798  0.3534 -0.7231  1.2927
  146SAPE   C3616127   5.788   2.546   9.614  0.6091 -0.4342  0.5023
  146SAPE   H6X16128   5.764   2.443   9.583 -1.1085 -0.2384  1.0530
  146SAPE   H6Y16129   5.881   2.589   9.571  1.2469  1.1324  3.2223
  146SAPE   C3716130   5.668   2.629   9.562  0.3882  0.6648 -0.6379
  146SAPE   H7X16131   5.687   2.735   9.588 -0.5492  0.4561  1.0366
  146SAPE   H7Y16132   5.578   2.598   9.619  0.2799  1.0930 -0.5702
  146SAPE   C3816133   5.642   2.612   9.420 -0.5464 -0.1116  0.5186
  146SAPE   H8X16134   5.553   2.671   9.392  0.5234  1.4811  0.3634
  146SAPE   H8Y16135   5.629   2.505   9.391 -0.9220 -0.1691  0.8937
  146SAPE   C3916136   5.757   2.657   9.330  0.8454 -0.2468  0.4703
  146SAPE   H9X16137   5.853   2.604   9.348 -0.1073 -2.2804 -0.1207
  146SAPE   H9Y16138   5.767   2.762   9.365 -3.6186  1.1279 -1.5946
  146SAPE  C31016139   5.734   2.648   9.175 -0.1515  0.5458  0.0910
  146SAPE  H10X16140   5.648   2.716   9.155  0.8308  1.1262 -2.5191
  146SAPE  H10Y16141   5.717   2.541   9.151  1.9159  0.2507 -0.2395
  146SAPE  C31116142   5.854   2.696   9.098 -0.2927  0.3381 -0.8602
  146SAPE  H11X16143   5.943   2.641   9.133 -0.7382  0.6147  0.7758
  146SAPE  H11Y16144   5.879   2.801   9.125  1.9629 -0.8164  2.1344
  146SAPE  C31216145   5.820   2.668   8.947 -0.4231 -0.0170  0.2847
  146SAPE  H12X16146   5.749   2.749   8.921 -1.1844  0.1267  2.5727
  146SAPE  H12Y16147   5.773   2.570   8.925 -0.7026  0.4207 -1.1768
  146SAPE  C31316148   5.953   2.673   8.866  0.3281  0.2031  0.2135
  146SAPE  H13X16149   6.023   2.592   8.894 -1.7121 -0.9141  2.5148
  146SAPE  H13Y16150   6.011   2.756   8.912  0.5925 -0.7384  1.6507
  146SAPE  C31416151   5.941   2.698   8.715  0.0622  0.0998 -0.1278
  146SAPE  H14X16152   5.890   2.611   8.669 -1.8122  1.0316  0.1133
  146SAPE  H14Y16153   6.041   2.703   8.666 -0.1534 -1.7866 -0.8481
  146SAPE  C31516154   5.878   2.830   8.678  0.4233 -0.1381 -0.4718
  146SAPE  H15X16155   5.907   2.908   8.753  0.9066 -1.0713  0.3323
  146SAPE  H15Y16156   5.767   2.826   8.688  0.6354 -2.8366  2.6714
  146SAPE  C31616157   5.896   2.873   8.528  0.7030 -0.1508 -0.0709
  146SAPE  H16X16158   5.889   2.785   8.462 -1.2483 -0.7712  0.8615
  146SAPE  H16Y16159   5.995   2.920   8.514  0.2342  0.4334 -1.5554
  146SAPE  C31716160   5.805   2.993   8.486 -0.0670  0.6455 -0.4558
  146SAPE  H17X16161   5.806   3.078   8.558 -0.7732  1.0906 -0.9633
  146SAPE  H17Y16162   5.699   2.959   8.490  0.3148 -0.5339  0.3597
  146SAPE  C31816163   5.832   3.050   8.344  0.0411  0.0921 -0.2940
  146SAPE  H18X16164   5.836   2.968   8.268 -0.9151  1.9391 -2.4717
  146SAPE  H18Y16165   5.922   3.115   8.348  0.9030 -1.0687 -0.3746
  146SAPE  H18Z16166   5.743   3.110   8.314 -0.5153 -0.2978  0.5361
  147SAPE     N16167   1.174   3.026  10.877 -0.4279  0.8983 -0.2736
  147SAPE   HN116168   1.257   2.966  10.898  0.0779  1.3437 -0.9492
  147SAPE   HN216169   1.179   3.085  10.791 -1.3272 -0.5853 -1.3889
  147SAPE   HN316170   1.178   3.099  10.951 -2.1493  0.7022  0.0360
  147SAPE   C1216171   1.040   2.959  10.877  0.0849 -0.2311  0.1635
  147SAPE  H12A16172   1.042   2.888  10.791  3.1590 -3.6295  2.7412
  147SAPE  H12B16173   0.955   3.031  10.873 -0.1737 -0.3498  2.5251
  147SAPE   C1116174   1.020   2.871  11.004 -0.1879  0.0936  0.4840
  147SAPE  H11A16175   0.924   2.817  11.009  0.6270 -1.2991  2.1008
  147SAPE  H11B16176   1.013   2.948  11.084 -5.4686 -1.7875  2.2300
  147SAPE     P16177   1.135   2.643  10.981 -0.3663 -0.0258 -0.5800
  147SAPE   O1316178   1.263   2.573  10.997  0.1876 -0.3355 -0.3346
  147SAPE   O1416179   1.028   2.571  11.054  0.3071 -0.3327  0.5754
  147SAPE   O1216180   1.140   2.791  11.033  0.0631  0.0356  0.2508
  147SAPE   O1116181   1.089   2.661  10.828  0.3163  0.0459 -0.6531
  147SAPE    C116182   1.164   2.631  10.713  0.5909  0.4821  0.3859
  147SAPE    HA16183   1.145   2.717  10.646 -0.4531 -0.2518 -0.2748
  147SAPE    HB16184   1.272   2.612  10.732  0.1779 -2.5065  0.1451
  147SAPE    C216185   1.117   2.510  10.619 -1.0270  0.0096  0.3156
  147SAPE    HS16186   1.169   2.423  10.664  1.4703 -0.0580 -2.4062
  147SAPE   O2116187   1.162   2.530  10.480  0.1237  0.4313  0.2678
  147SAPE   C2116188   1.245   2.442  10.430 -0.0270  0.0602 -0.2771
  147SAPE   O2216189   1.313   2.357  10.484  0.3275  0.4396 -0.4570
  147SAPE   C2216190   1.253   2.467  10.278  0.3564 -0.4226  0.7824
  147SAPE   H2R16191   1.147   2.473  10.245  0.7160  2.3380 -0.1019
  147SAPE   H2S16192   1.288   2.571  10.262 -0.7690 -0.1826 -0.3305
  147SAPE    C316193   0.965   2.484  10.622  0.2839 -0.1424 -0.3843
  147SAPE    HX16194   0.937   2.505  10.728  1.6641 -2.2089  0.4556
  147SAPE    HY16195   0.943   2.378  10.595  2.7297 -1.2491  1.4957
  147SAPE   O3116196   0.889   2.583  10.555  0.3249  0.4175 -0.0657
  147SAPE   C3116197   0.873   2.559  10.425  0.4172  0.1838 -0.1499
  147SAPE   O3216198   0.904   2.458  10.362 -0.3703  0.0130  0.2702
  147SAPE   C3216199   0.792   2.672  10.356  0.2384 -0.4951 -0.1108
  147SAPE   H2X16200   0.851   2.766  10.345 -2.5872  1.3193 -1.0824
  147SAPE   H2Y16201   0.701   2.692  10.416  0.6518  0.5936  0.1741
  147SAPE   C2316202   1.337   2.365  10.205 -0.1475  0.1443  0.5482
  147SAPE   H3R16203   1.302   2.260  10.198 -0.0432  0.2257 -2.7528
  147SAPE   H3S16204   1.427   2.361  10.270 -0.4652 -0.4313  0.9537
  147SAPE   C2416205   1.369   2.403  10.057  0.7092 -0.0106 -0.3756
  147SAPE   H4R16206   1.463   2.348  10.034 -0.2337 -1.4155 -1.0726
  147SAPE   H4S16207   1.388   2.512  10.064  1.4175 -0.1898  0.6693
  147SAPE   C2516208   1.255   2.365   9.959 -0.6154  0.4684  0.5916
  147SAPE   H5R16209   1.151   2.369   9.994 -0.6870  0.0634  0.4342
  147SAPE   C2616210   1.277   2.333   9.832  0.2072 -0.1307 -0.1507
  147SAPE   H6R16211   1.193   2.301   9.769 -0.6453  2.1067 -0.2383
  147SAPE   C2716212   1.409   2.325   9.761  0.4982  0.2790  0.4838
  147SAPE   H7R16213   1.424   2.215   9.763 -1.0436 -0.0418 -1.6410
  147SAPE   H7S16214   1.488   2.383   9.814 -1.8015  3.2636  0.9203
  147SAPE   C2816215   1.409   2.387   9.619  0.2535  0.5248  0.0422
  147SAPE   H8R16216   1.413   2.496   9.602  0.6188  0.2723 -1.6240
  147SAPE   C2916217   1.373   2.314   9.511 -0.9470  0.5766 -0.3787
  147SAPE   H9R16218   1.372   2.365   9.414 -1.3606  0.0685 -0.6438
  147SAPE  C21016219   1.333   2.170   9.510 -0.6585  0.6906  0.4512
  147SAPE  H10R16220   1.270   2.139   9.596 -1.0718  1.2271  0.3464
  147SAPE  H10S16221   1.421   2.104   9.526 -0.6031  0.9986  1.4606
  147SAPE  C21116222   1.249   2.120   9.390  0.2348  0.5999 -0.1344
  147SAPE  H11R16223   1.169   2.186   9.352 -0.9272 -1.6433 -1.7733
  147SAPE  C21216224   1.274   1.998   9.330  0.7771 -0.7843  0.2927
  147SAPE  H12R16225   1.218   1.987   9.237  1.2330  1.4540 -0.2886
  147SAPE  C21316226   1.378   1.894   9.367  0.1271 -0.1568  0.0873
  147SAPE  H13R16227   1.472   1.952   9.380 -0.7356  1.5109 -0.8460
  147SAPE  H13S16228   1.383   1.814   9.289 -1.3817 -0.7638  0.5743
  147SAPE  C21416229   1.328   1.812   9.487 -0.4179  0.0779  0.1730
  147SAPE  H14R16230   1.224   1.776   9.477 -0.7593  1.1157 -0.1653
  147SAPE  C21516231   1.388   1.791   9.606  0.1130  0.0244  0.0489
  147SAPE  H15R16232   1.332   1.733   9.681  1.1745  1.6849  2.2422
  147SAPE  C21616233   1.524   1.836   9.657 -0.6414  0.4022  0.9186
  147SAPE  H16R16234   1.521   1.945   9.676 -2.0630  0.6364 -0.4619
  147SAPE  H16S16235   1.608   1.818   9.586 -1.0090 -0.2973  0.6494
  147SAPE  C21716236   1.559   1.782   9.796  0.4864  0.1076  0.3544
  147SAPE  H17R16237   1.662   1.819   9.814  0.9289 -0.1006 -1.5384
  147SAPE  H17S16238   1.542   1.672   9.795 -0.6769  0.2607 -0.7323
  147SAPE  C21816239   1.467   1.854   9.903 -0.1782 -0.4459 -0.2473
  147SAPE  H18R16240   1.361   1.828   9.878 -0.2435 -1.5333  1.0499
  147SAPE  H18S16241   1.493   1.962   9.909  1.5027 -0.8944  1.1601
  147SAPE  C21916242   1.497   1.801  10.049  0.5367  0.2829  0.4314
  147SAPE  H19R16243   1.607   1.796  10.066  0.7825  1.7996 -0.4533
  147SAPE  H19S16244   1.464   1.696  10.062  1.4663  0.0696  1.1985
  147SAPE  C22016245   1.427   1.871  10.163 -0.1864  0.0575 -0.4777
  147SAPE  H20R16246   1.447   1.980  10.156  0.4700  0.0032  0.4374
  147SAPE  H20S16247   1.475   1.835  10.256  0.6969  1.4275 -0.3899
  147SAPE  H20T16248   1.319   1.848  10.173  0.0422 -0.0127  2.8818
  147SAPE   C3316249   0.734   2.637  10.224 -0.8010  0.1880 -0.0387
  147SAPE   H3X16250   0.646   2.695  10.189 -2.0501 -2.7686 -2.1399
  147SAPE   H3Y16251   0.706   2.530  10.230 -0.0567  0.0547  2.0808
  147SAPE   C3416252   0.840   2.639  10.107 -0.1802 -0.1433  0.2608
  147SAPE   H4X16253   0.928   2.575  10.128 -0.2931 -0.7787 -1.0901
  147SAPE   H4Y16254   0.868   2.743  10.080  2.9600 -0.9593 -0.0527
  147SAPE   C3516255   0.774   2.591   9.977  0.6550  0.1119 -0.1216
  147SAPE   H5X16256   0.820   2.666   9.910  2.0672  0.8349  1.5919
  147SAPE   H5Y16257   0.664   2.602   9.962  0.6617 -1.1391 -1.3098
  147SAPE   C3616258   0.808   2.448   9.922 -0.5319 -0.0718  0.2798
  147SAPE   H6X16259   0.736   2.384   9.978 -0.9562 -0.2481 -0.4597
  147SAPE   H6Y16260   0.909   2.419   9.958  0.2699  0.0840 -1.7214
  147SAPE   C3716261   0.800   2.440   9.773  0.3933  0.0479  0.2411
  147SAPE   H7X16262   0.728   2.515   9.734  1.6050  1.4537  0.5819
  147SAPE   H7Y16263   0.771   2.336   9.749  0.1644  0.1147  0.2231
  147SAPE   C3816264   0.938   2.493   9.713  0.0797 -0.1914 -0.1700
  147SAPE   H8X16265   1.020   2.426   9.745  0.1982  0.3676  0.7260
  147SAPE   H8Y16266   0.948   2.599   9.745 -2.5286  0.3264 -0.8273
  147SAPE   C3916267   0.938   2.494   9.557  0.3925  0.1805  0.1788
  147SAPE   H9X16268   1.040   2.520   9.522 -0.1037 -0.1349 -1.5869
  147SAPE   H9Y16269   0.873   2.581   9.534  0.8540  0.4170 -0.2354
  147SAPE  C31016270   0.910   2.363   9.488  0.0349 -0.6486  0.2398
  147SAPE  H10X16271   0.812   2.323   9.520 -0.3250 -0.1409 -0.2091
  147SAPE  H10Y16272   0.978   2.282   9.522 -0.5827 -1.6892 -0.9607
  147SAPE  C31116273   0.919   2.373   9.332 -0.0805  0.5711 -0.7279
  147SAPE  H11X16274   0.838   2.440   9.296 -2.3152 -1.7428 -0.2624
  147SAPE  H11Y16275   0.907   2.268   9.299  0.1920 -0.0464  1.0256
  147SAPE  C31216276   1.054   2.433   9.287  0.0701 -0.0887  0.7949
  147SAPE  H12X16277   1.143   2.391   9.338 -0.9694 -0.6303  2.2338
  147SAPE  H12Y16278   1.054   2.541   9.309 -3.3943  0.4998 -1.2255
  147SAPE  C31316279   1.085   2.421   9.134 -0.6011  0.0509  0.1307
  147SAPE  H13X16280   1.181   2.463   9.099  0.0317 -0.9978  0.5667
  147SAPE  H13Y16281   1.041   2.505   9.076  0.6220 -0.3797 -1.4869
  147SAPE  C31416282   1.062   2.278   9.076 -0.1867 -0.5439  0.0640
  147SAPE  H14X16283   0.956   2.247   9.061 -0.0933 -1.5318  1.2963
  147SAPE  H14Y16284   1.111   2.214   9.152  0.3347 -1.7706 -1.2541
  147SAPE  C31516285   1.127   2.266   8.940  0.0172 -0.0041 -0.3745
  147SAPE  H15X16286   1.134   2.157   8.919 -1.1576  0.2436 -2.3455
  147SAPE  H15Y16287   1.228   2.314   8.939  1.1094 -2.1645 -0.5429
  147SAPE  C31616288   1.052   2.336   8.829 -0.1764  0.7969 -0.4215
  147SAPE  H16X16289   1.003   2.433   8.849  1.8546  1.7618  0.1186
  147SAPE  H16Y16290   0.962   2.275   8.805  0.1055  0.6282 -1.0765
  147SAPE  C31716291   1.141   2.360   8.712  0.3454 -0.3024  0.1876
  147SAPE  H17X16292   1.197   2.272   8.675  2.8029  1.3608 -0.2417
  147SAPE  H17Y16293   1.211   2.441   8.742  1.2114 -1.6312  1.9401
  147SAPE  C31816294   1.064   2.401   8.581  0.1001 -0.6251 -0.0555
  147SAPE  H18X16295   0.976   2.334   8.590  0.3566 -1.0006 -0.2858
  147SAPE  H18Y16296   1.112   2.369   8.486  1.9628 -0.1658  0.6884
  147SAPE  H18Z16297   1.039   2.509   8.571 -2.0351 -0.9971  0.7826
  148SAPE     N16298   1.884   0.257  10.774  0.3758  0.0664  0.2814
  148SAPE   HN116299   1.909   0.358  10.775  0.0417  0.1561  1.9316
  148SAPE   HN216300   1.867   0.231  10.675 -0.6156 -2.0408  0.9422
  148SAPE   HN316301   1.796   0.243  10.827 -0.1271 -0.6217 -0.6983
  148SAPE   C1216302   2.008   0.191  10.817  0.0877  0.8113 -1.1004
  148SAPE  H12A16303   1.994   0.082  10.835  0.5729  0.8361 -0.5365
  148SAPE  H12B16304   2.031   0.237  10.915  0.4449 -0.0562 -0.7677
  148SAPE   C1116305   2.129   0.206  10.721  0.0487  0.1779  0.5868
  148SAPE  H11A16306   2.221   0.167  10.770  0.3400  1.6211  1.2337
  148SAPE  H11B16307   2.141   0.313  10.695 -0.6362  0.2142  0.4171
  148SAPE     P16308   2.035   0.182  10.474 -0.0009  0.1172 -0.4037
  148SAPE   O1316309   1.894   0.218  10.510  0.2069  0.0618 -0.2645
  148SAPE   O1416310   2.121   0.291  10.427  0.0160  0.4783 -0.2403
  148SAPE   O1216311   2.095   0.122  10.606 -0.3396 -0.1146 -0.1922
  148SAPE   O1116312   2.039   0.066  10.369 -0.1806 -0.0387  0.2562
  148SAPE    C116313   2.109  -0.054  10.368 -0.0491 -0.2356 -0.1572
  148SAPE    HA16314   2.214  -0.029  10.397 -0.9575  2.0702  1.4254
  148SAPE    HB16315   2.066  -0.128  10.439  0.0730  0.3624  0.5481
  148SAPE    C216316   2.137  -0.097  10.220 -0.3818  0.2756 -1.2844
  148SAPE    HS16317   2.053  -0.153  10.173  0.2590 -3.0056  1.1159
  148SAPE   O2116318   2.264  -0.161  10.215 -0.2086 -0.3086 -0.5602
  148SAPE   C2116319   2.259  -0.289  10.261  0.5175 -0.5344  0.3967
  148SAPE   O2216320   2.147  -0.346  10.278 -0.6363  0.3649 -0.1123
  148SAPE   C2216321   2.398  -0.339  10.265  0.2812 -0.3263  0.3001
  148SAPE   H2R16322   2.466  -0.252  10.261 -0.5180  0.3449  1.0089
  148SAPE   H2S16323   2.417  -0.398  10.358 -0.5489  0.7947  1.2033
  148SAPE    C316324   2.155   0.027  10.121 -0.3043  0.2539 -0.8980
  148SAPE    HX16325   2.245   0.084  10.151 -1.0410  2.6689 -2.9121
  148SAPE    HY16326   2.071   0.100  10.131  0.9414  1.7063 -0.5466
  148SAPE   O3116327   2.172  -0.019   9.985 -0.0168 -0.4159 -0.2524
  148SAPE   C3116328   2.290  -0.005   9.930 -0.5309 -0.7542 -0.4533
  148SAPE   O3216329   2.386   0.028   9.993 -0.4518 -0.5222  0.1757
  148SAPE   C3216330   2.282  -0.023   9.781 -0.1183 -0.1816 -0.2100
  148SAPE   H2X16331   2.225  -0.116   9.761 -0.9766 -0.0806  1.5666
  148SAPE   H2Y16332   2.384  -0.029   9.738  0.0780 -0.7520  0.3117
  148SAPE   C2316333   2.432  -0.428  10.140  0.1573 -0.7333  0.0427
  148SAPE   H3R16334   2.371  -0.521  10.148 -0.6876 -0.1921  0.0067
  148SAPE   H3S16335   2.540  -0.450  10.157  0.4615  0.5088 -0.2094
  148SAPE   C2416336   2.411  -0.354  10.013 -1.0175  0.4047  0.1747
  148SAPE   H4R16337   2.475  -0.266   9.992 -0.7001  0.1664  0.1303
  148SAPE   H4S16338   2.304  -0.333   9.993 -0.4636  1.8746 -1.5291
  148SAPE   C2516339   2.448  -0.454   9.907 -0.4444 -0.6484 -0.0936
  148SAPE   H5R16340   2.419  -0.557   9.934 -2.1836  0.0096  0.6516
  148SAPE   C2616341   2.497  -0.426   9.782  0.9035  0.2798 -0.3641
  148SAPE   H6R16342   2.500  -0.516   9.720 -0.2335 -0.5917  0.8007
  148SAPE   C2716343   2.527  -0.285   9.720  0.6162  0.1436  0.0568
  148SAPE   H7R16344   2.532  -0.203   9.796 -0.6821 -0.5313  0.9078
  148SAPE   H7S16345   2.444  -0.257   9.653  1.2520  1.8080 -0.0781
  148SAPE   C2816346   2.662  -0.292   9.662  0.1957 -0.2642  0.5425
  148SAPE   H8R16347   2.739  -0.270   9.738 -0.2662 -1.3677  1.3502
  148SAPE   C2916348   2.704  -0.317   9.535 -0.3587 -0.6418 -0.8649
  148SAPE   H9R16349   2.812  -0.315   9.512  0.2041 -2.2822  1.3613
  148SAPE  C21016350   2.613  -0.337   9.425 -0.1526  0.2624  0.6602
  148SAPE  H10R16351   2.508  -0.355   9.454  0.2324 -0.3433  1.7168
  148SAPE  H10S16352   2.644  -0.431   9.373 -1.1878 -0.0124  0.5199
  148SAPE  C21116353   2.610  -0.222   9.325 -0.5336  0.7978 -0.2369
  148SAPE  H11R16354   2.586  -0.124   9.368 -1.0447  1.2162 -1.4410
  148SAPE  C21216355   2.625  -0.223   9.187 -0.0956  0.4922  0.3799
  148SAPE  H12R16356   2.626  -0.131   9.126 -0.8788 -0.2623 -0.8136
  148SAPE  C21316357   2.664  -0.343   9.112  0.5023 -0.2556 -0.7088
  148SAPE  H13R16358   2.752  -0.394   9.157  0.7582 -0.8565 -1.8445
  148SAPE  H13S16359   2.693  -0.327   9.006 -1.4323 -5.0908 -2.2768
  148SAPE  C21416360   2.540  -0.428   9.094 -0.4127 -1.1304 -0.2704
  148SAPE  H14R16361   2.539  -0.507   9.170  0.3518  0.2264  1.2161
  148SAPE  C21516362   2.441  -0.431   9.008  0.0131  0.3036 -0.6927
  148SAPE  H15R16363   2.353  -0.495   9.017  0.2188  0.3633  3.7273
  148SAPE  C21616364   2.440  -0.327   8.900  0.1903 -0.4858  0.7593
  148SAPE  H16R16365   2.525  -0.256   8.906  0.6092 -0.9580  0.4669
  148SAPE  H16S16366   2.355  -0.261   8.926  1.7432  2.1202 -0.3069
  148SAPE  C21716367   2.428  -0.380   8.753 -0.2041  0.3239  0.5715
  148SAPE  H17R16368   2.415  -0.297   8.681  0.1529  0.0813  0.2225
  148SAPE  H17S16369   2.340  -0.447   8.748 -0.2045  0.3012  0.8369
  148SAPE  C21816370   2.556  -0.459   8.701  0.3220 -0.0789 -0.8096
  148SAPE  H18R16371   2.600  -0.505   8.793 -1.3714 -2.1324 -0.9600
  148SAPE  H18S16372   2.624  -0.385   8.653 -0.3550  2.3457  1.6838
  148SAPE  C21916373   2.533  -0.579   8.609 -0.1285  0.2792 -0.0883
  148SAPE  H19R16374   2.628  -0.635   8.589 -0.8727 -0.5331 -1.5917
  148SAPE  H19S16375   2.522  -0.530   8.510  0.9975  1.8273  0.5114
  148SAPE  C22016376   2.437  -0.688   8.655 -0.0446  0.1270 -0.5594
  148SAPE  H20R16377   2.453  -0.783   8.601  1.1498 -0.3040  0.4894
  148SAPE  H20S16378   2.336  -0.651   8.629  0.1911  1.9706  0.9304
  148SAPE  H20T16379   2.446  -0.703   8.765  0.4578  0.3879 -0.5654
  148SAPE   C3316380   2.211   0.102   9.718 -0.0679  0.1191 -0.1917
  148SAPE   H3X16381   2.293   0.168   9.682  0.0688 -0.5501 -1.1292
  148SAPE   H3Y16382   2.157   0.168   9.790 -2.3642  0.1539 -1.8598
  148SAPE   C3416383   2.117   0.064   9.600  0.1593  0.0001  0.3491
  148SAPE   H4X16384   2.045   0.146   9.579 -0.1583 -0.3857 -0.0661
  148SAPE   H4Y16385   2.047  -0.016   9.633  0.6614 -0.2042  0.9334
  148SAPE   C3516386   2.189   0.011   9.474  0.3631 -0.5457  0.1464
  148SAPE   H5X16387   2.177  -0.098   9.463  2.8871 -0.7697 -1.2278
  148SAPE   H5Y16388   2.297   0.033   9.488 -0.1404  2.2123  0.4002
  148SAPE   C3616389   2.152   0.082   9.339 -0.2643 -0.2918 -0.3442
  148SAPE   H6X16390   2.159   0.193   9.348  0.9946 -0.3919  0.1641
  148SAPE   H6Y16391   2.046   0.052   9.325 -0.5208 -0.1082  1.0392
  148SAPE   C3716392   2.224   0.040   9.212 -0.2222 -0.8064 -0.1104
  148SAPE   H7X16393   2.235  -0.071   9.210  1.9287 -0.6443 -2.9100
  148SAPE   H7Y16394   2.329   0.070   9.196 -0.7069  0.2893 -1.3425
  148SAPE   C3816395   2.147   0.091   9.092 -0.0136 -0.4188  0.4017
  148SAPE   H8X16396   2.048   0.042   9.085 -0.6980  0.7511  1.4627
  148SAPE   H8Y16397   2.222   0.065   9.014  1.4534  0.6531  1.3990
  148SAPE   C3916398   2.108   0.237   9.090 -0.0337  0.2220  0.3413
  148SAPE   H9X16399   2.196   0.298   9.119 -1.6902  1.2914  3.6090
  148SAPE   H9Y16400   2.034   0.256   9.171  1.0719  2.4229  0.9196
  148SAPE  C31016401   2.063   0.284   8.949 -0.3681 -0.5157 -0.1411
  148SAPE  H10X16402   2.036   0.392   8.952  3.0120  0.4769 -0.7043
  148SAPE  H10Y16403   1.973   0.223   8.928 -0.7970  0.6167 -1.8515
  148SAPE  C31116404   2.178   0.267   8.841  0.1316 -0.4569 -0.1251
  148SAPE  H11X16405   2.262   0.209   8.885  0.5311  2.2906  3.1882
  148SAPE  H11Y16406   2.216   0.368   8.814  0.5460 -1.0156 -1.6907
  148SAPE  C31216407   2.122   0.203   8.715 -0.1659  0.1837  0.3103
  148SAPE  H12X16408   2.059   0.283   8.669 -2.8384 -2.1844 -0.4135
  148SAPE  H12Y16409   2.068   0.112   8.747 -0.9793  0.1070 -1.2206
  148SAPE  C31316410   2.229   0.168   8.612 -0.3350  0.2878  0.2856
  148SAPE  H13X16411   2.284   0.262   8.589 -0.8086  0.1305 -1.7017
  148SAPE  H13Y16412   2.181   0.140   8.516  0.5557 -1.2863  0.2881
  148SAPE  C31416413   2.335   0.057   8.645 -0.0045  0.6839 -0.2270
  148SAPE  H14X16414   2.278  -0.038   8.648 -1.3107  1.3276 -2.5525
  148SAPE  H14Y16415   2.369   0.079   8.749  1.0836 -1.6482 -0.0306
  148SAPE  C31516416   2.452   0.049   8.547 -0.5034  0.1649 -0.0910
  148SAPE  H15X16417   2.504   0.147   8.541  0.1363 -0.0697  1.2441
  148SAPE  H15Y16418   2.408   0.037   8.446  0.6298  2.9588 -1.0146
  148SAPE  C31616419   2.559  -0.063   8.567  0.1172 -0.3869  0.4946
  148SAPE  H16X16420   2.624  -0.056   8.477 -1.4993  0.0032 -0.6842
  148SAPE  H16Y16421   2.511  -0.163   8.567  0.2539 -0.5396  3.4059
  148SAPE  C31716422   2.644  -0.052   8.694 -0.0782 -0.3100  0.2485
  148SAPE  H17X16423   2.589  -0.109   8.772  1.6290 -0.2380  1.5544
  148SAPE  H17Y16424   2.642   0.055   8.722  1.2038  0.2212 -1.5170
  148SAPE  C31816425   2.784  -0.104   8.679  0.9087 -0.1561  0.0210
  148SAPE  H18X16426   2.820  -0.152   8.773  0.6571 -0.7651 -0.1868
  148SAPE  H18Y16427   2.847  -0.023   8.638  1.2702  0.5946  1.9734
  148SAPE  H18Z16428   2.795  -0.183   8.602 -1.5861 -2.7541  2.1020
  149SAPE     N16429   5.686   3.629  10.723  0.3473  0.2439 -0.5185
  149SAPE   HN116430   5.673   3.528  10.742 -0.2193 -0.2035 -3.0040
  149SAPE   HN216431   5.608   3.653  10.659 -3.0222 -1.9201  2.3620
  149SAPE   HN316432   5.782   3.654  10.692  0.7708 -0.8179 -0.1199
  149SAPE   C1216433   5.640   3.709  10.844 -0.4245 -0.5208  0.2364
  149SAPE  H12A16434   5.648   3.816  10.814  1.7643 -0.6782  0.1279
  149SAPE  H12B16435   5.706   3.693  10.931 -0.6033 -1.3972  0.2195
  149SAPE   C1116436   5.496   3.678  10.907  0.3062  0.6984  0.2956
  149SAPE  H11A16437   5.426   3.708  10.826  1.4819 -1.8181 -1.7975
  149SAPE  H11B16438   5.486   3.751  10.991  0.7538  1.4788 -0.3192
  149SAPE     P16439   5.428   3.423  10.858  0.1277 -0.3702  0.3762
  149SAPE   O1316440   5.479   3.299  10.920  0.3955 -0.3521  0.3798
  149SAPE   O1416441   5.282   3.432  10.850  0.3028 -0.1640 -0.0332
  149SAPE   O1216442   5.483   3.539  10.950  0.5374 -0.2959  0.2595
  149SAPE   O1116443   5.488   3.456  10.717 -0.3674 -0.3099 -0.4833
  149SAPE    C116444   5.478   3.363  10.603  0.2344  0.1060 -0.1676
  149SAPE    HA16445   5.570   3.302  10.607  0.4121  0.4221  0.8296
  149SAPE    HB16446   5.394   3.291  10.602 -1.3202  1.8200 -1.6640
  149SAPE    C216447   5.458   3.440  10.470 -0.0619 -0.2874 -0.7633
  149SAPE    HS16448   5.457   3.372  10.382 -3.6008 -0.5984 -0.6016
  149SAPE   O2116449   5.571   3.538  10.464  0.1807 -1.0853  0.7555
  149SAPE   C2116450   5.617   3.565  10.338 -0.0120  0.3063 -0.3680
  149SAPE   O2216451   5.578   3.511  10.237  0.2664  0.2516  0.0791
  149SAPE   C2216452   5.710   3.680  10.354 -0.1298  0.2736 -0.6424
  149SAPE   H2R16453   5.649   3.757  10.407  0.0443 -0.5158  0.7516
  149SAPE   H2S16454   5.795   3.657  10.421  1.1998  0.6511 -2.1315
  149SAPE    C316455   5.326   3.528  10.479 -0.1865 -0.0635  0.2995
  149SAPE    HX16456   5.329   3.581  10.577  2.6311  2.3021 -0.8950
  149SAPE    HY16457   5.239   3.460  10.494 -0.2103 -0.0982  0.0091
  149SAPE   O3116458   5.301   3.618  10.363 -0.1554  0.3915 -0.6024
  149SAPE   C3116459   5.254   3.553  10.256 -0.5883 -0.8215  0.3643
  149SAPE   O3216460   5.211   3.438  10.254  0.1376  0.0825  0.1502
  149SAPE   C3216461   5.249   3.653  10.144 -0.0502  0.2961  0.0923
  149SAPE   H2X16462   5.356   3.672  10.121  0.5368  0.2486  2.4999
  149SAPE   H2Y16463   5.205   3.750  10.176 -0.1240 -0.1278  1.3562
  149SAPE   C2316464   5.752   3.738  10.212  0.6717 -0.2097 -0.2615
  149SAPE   H3R16465   5.801   3.833  10.241 -1.3484  0.0096  2.9617
  149SAPE   H3S16466   5.663   3.758  10.148  2.2360 -2.0588 -3.2313
  149SAPE   C2416467   5.863   3.656  10.141  0.6587  0.5380  0.1312
  149SAPE   H4R16468   5.827   3.551  10.136  1.6490  0.1485  0.8228
  149SAPE   H4S16469   5.945   3.674  10.214 -0.4513  0.1019  1.5312
  149SAPE   C2516470   5.885   3.713  10.007  0.3315 -0.1534  0.3805
  149SAPE   H5R16471   5.944   3.806  10.009  2.0874 -1.1818 -1.0921
  149SAPE   C2616472   5.859   3.653   9.890 -0.6389  0.5128  0.2133
  149SAPE   H6R16473   5.883   3.713   9.801 -0.6104 -2.4670 -1.9513
  149SAPE   C2716474   5.801   3.515   9.877  0.5468  0.5681  0.4149
  149SAPE   H7R16475   5.842   3.435   9.941 -2.4305  1.1750  3.3496
  149SAPE   H7S16476   5.796   3.479   9.772 -3.5355  1.2374  0.1960
  149SAPE   C2816477   5.651   3.526   9.921  0.0801  0.4464  0.2434
  149SAPE   H8R16478   5.628   3.474  10.016 -3.8444  0.3570 -0.5871
  149SAPE   C2916479   5.545   3.585   9.858 -1.1447  1.0914  1.0654
  149SAPE   H9R16480   5.443   3.590   9.900 -1.7347  2.5214 -0.4226
  149SAPE  C21016481   5.538   3.656   9.727  0.3701 -0.6254  0.5133
  149SAPE  H10R16482   5.633   3.661   9.670  1.1939  1.1236  1.9364
  149SAPE  H10S16483   5.517   3.762   9.755 -0.5493 -0.5768 -0.3302
  149SAPE  C21116484   5.431   3.604   9.632 -0.2542  0.6511  0.3597
  149SAPE  H11R16485   5.344   3.567   9.688 -0.6668  2.5368  1.0492
  149SAPE  C21216486   5.427   3.610   9.498 -0.4895 -0.7590  0.3111
  149SAPE  H12R16487   5.335   3.576   9.448  0.3890 -0.0020 -1.9315
  149SAPE  C21316488   5.517   3.673   9.393 -0.1403  0.6295 -0.1008
  149SAPE  H13R16489   5.567   3.764   9.432 -1.0400  1.3787 -0.6380
  149SAPE  H13S16490   5.458   3.704   9.305 -1.5679 -0.6730  0.3425
  149SAPE  C21416491   5.623   3.569   9.351 -0.1269 -0.7116  0.3554
  149SAPE  H14R16492   5.690   3.538   9.433  1.1046  0.1418 -0.2912
  149SAPE  C21516493   5.645   3.515   9.233 -0.0348 -0.5117 -0.0106
  149SAPE  H15R16494   5.716   3.433   9.219 -0.4679 -0.4540 -3.1001
  149SAPE  C21616495   5.560   3.543   9.110  0.1332  0.0584  1.4384
  149SAPE  H16R16496   5.454   3.551   9.144 -0.4252  0.2957 -0.2459
  149SAPE  H16S16497   5.564   3.457   9.040  2.8558  0.2264  1.2775
  149SAPE  C21716498   5.595   3.674   9.026 -0.0600 -0.1569 -0.3187
  149SAPE  H17R16499   5.694   3.649   8.982  0.4186  1.2588 -0.0711
  149SAPE  H17S16500   5.588   3.767   9.085 -0.5536 -1.0065  1.0089
  149SAPE  C21816501   5.507   3.699   8.900  0.2505 -0.1984 -0.6602
  149SAPE  H18R16502   5.513   3.605   8.842 -0.9270  0.4400 -1.8904
  149SAPE  H18S16503   5.530   3.790   8.841 -0.3800  0.0717 -0.5023
  149SAPE  C21916504   5.357   3.703   8.939  0.2335  0.2948  0.5177
  149SAPE  H19R16505   5.333   3.775   9.019  0.0719  0.5673  0.2284
  149SAPE  H19S16506   5.326   3.607   8.986 -0.4454  0.6342  0.7679
  149SAPE  C22016507   5.269   3.727   8.819 -0.3668 -0.0635  0.2020
  149SAPE  H20R16508   5.279   3.834   8.791  2.3625 -0.5513 -1.0901
  149SAPE  H20S16509   5.161   3.711   8.838 -0.4632  3.1588  3.3315
  149SAPE  H20T16510   5.298   3.657   8.737  0.7392  0.8046 -0.1810
  149SAPE   C3316511   5.181   3.613  10.015 -0.3294 -0.6060 -0.1059
  149SAPE   H3X16512   5.218   3.516   9.975 -0.7161 -0.5610 -0.5763
  149SAPE   H3Y16513   5.197   3.687   9.934 -0.4898 -1.6820 -1.1571
  149SAPE   C3416514   5.030   3.605  10.043 -0.2796 -0.0763 -0.5312
  149SAPE   H4X16515   5.017   3.712  10.070 -1.0637  0.0594 -1.4325
  149SAPE   H4Y16516   5.017   3.544  10.135  1.4130  0.2350 -0.0447
  149SAPE   C3516517   4.951   3.558   9.922  0.2885  0.0983 -0.2394
  149SAPE   H5X16518   4.843   3.571   9.946  0.2195 -2.7720  1.3795
  149SAPE   H5Y16519   4.963   3.450   9.901  0.8755 -0.0962  0.9842
  149SAPE   C3616520   4.972   3.657   9.802 -0.7349 -0.0210  0.9847
  149SAPE   H6X16521   5.081   3.668   9.785 -0.5853  1.0898  2.4353
  149SAPE   H6Y16522   4.949   3.766   9.804  2.1005  0.6764  0.3238
  149SAPE   C3716523   4.897   3.614   9.682 -0.9135  0.4114  0.8756
  149SAPE   H7X16524   4.817   3.680   9.642 -0.8702 -1.7019 -3.2250
  149SAPE   H7Y16525   4.840   3.526   9.720  0.9433 -1.2043  0.1075
  149SAPE   C3816526   4.975   3.575   9.548  0.0752  0.0500 -0.0630
  149SAPE   H8X16527   4.901   3.519   9.487 -0.0175 -1.9831  1.7627
  149SAPE   H8Y16528   5.052   3.501   9.579 -0.6551 -0.3905  0.7502
  149SAPE   C3916529   5.046   3.682   9.466  0.2634 -0.3440  0.1719
  149SAPE   H9X16530   5.140   3.714   9.516 -0.5711  1.4059  0.6783
  149SAPE   H9Y16531   4.979   3.770   9.463  0.5841 -0.0713  0.7692
  149SAPE  C31016532   5.074   3.640   9.320  0.1364  0.2303 -0.4411
  149SAPE  H10X16533   4.987   3.583   9.281 -1.1372  0.7931  1.4327
  149SAPE  H10Y16534   5.147   3.557   9.332 -3.0263 -2.8617 -0.7892
  149SAPE  C31116535   5.108   3.749   9.218  0.5066  0.1361 -0.3207
  149SAPE  H11X16536   5.170   3.703   9.138  0.6872 -1.5416  0.7377
  149SAPE  H11Y16537   5.173   3.819   9.274 -0.2303  0.8559 -0.3375
  149SAPE  C31216538   4.980   3.817   9.153  0.4264  0.5174  0.2869
  149SAPE  H12X16539   5.014   3.903   9.092 -1.0435  0.0792 -1.2147
  149SAPE  H12Y16540   4.928   3.861   9.242 -1.1264 -1.4697  0.4528
  149SAPE  C31316541   4.878   3.726   9.088  0.0625  0.2624  0.0314
  149SAPE  H13X16542   4.824   3.661   9.161  1.7083  0.4681  1.5059
  149SAPE  H13Y16543   4.947   3.669   9.022  0.5672  0.4152  0.4175
  149SAPE  C31416544   4.788   3.815   9.000 -0.6337 -0.5813 -0.7661
  149SAPE  H14X16545   4.848   3.843   8.910  2.3307  0.8149  1.4760
  149SAPE  H14Y16546   4.759   3.908   9.052 -0.2951 -0.6342 -0.4751
  149SAPE  C31516547   4.660   3.730   8.962 -0.2360 -0.1337  0.3669
  149SAPE  H15X16548   4.617   3.679   9.052  1.0569  0.9520  1.6596
  149SAPE  H15Y16549   4.704   3.647   8.904  3.0973  0.0067  2.4146
  149SAPE  C31616550   4.546   3.814   8.899 -0.2161 -0.4974  0.3014
  149SAPE  H16X16551   4.551   3.802   8.789  0.1889  0.7705  0.1641
  149SAPE  H16Y16552   4.557   3.921   8.925  2.2088 -0.5908 -0.0741
  149SAPE  C31716553   4.409   3.770   8.943 -0.1419 -0.0312  0.0543
  149SAPE  H17X16554   4.336   3.848   8.910  1.5416  1.4684 -0.3047
  149SAPE  H17Y16555   4.406   3.769   9.054  0.9182  1.2400  0.1230
  149SAPE  C31816556   4.360   3.638   8.881  0.4488  0.2584 -0.2649
  149SAPE  H18X16557   4.266   3.602   8.928  0.2608 -0.4797 -1.1764
  149SAPE  H18Y16558   4.425   3.551   8.903 -1.4249 -1.5632 -1.5743
  149SAPE  H18Z16559   4.343   3.635   8.772 -2.7835  0.3731  0.1230
  150SAPE     N16560   0.383   6.578  10.796  0.5112  0.2472  0.3652
  150SAPE   HN116561   0.475   6.537  10.820  0.8580  2.0362  2.3894
  150SAPE   HN216562   0.401   6.680  10.783  2.4547 -0.0465  0.4308
  150SAPE   HN316563   0.308   6.560  10.866 -0.7275 -1.4296 -1.3035
  150SAPE   C1216564   0.337   6.517  10.661  0.3221 -0.2587  0.0668
  150SAPE  H12A16565   0.331   6.407  10.671 -2.3160 -0.0737  1.3427
  150SAPE  H12B16566   0.422   6.535  10.591  0.5333 -2.2244 -0.2414
  150SAPE   C1116567   0.202   6.570  10.612 -0.0949 -0.3865 -0.1195
  150SAPE  H11A16568   0.193   6.525  10.511  1.8877  0.4778 -0.7220
  150SAPE  H11B16569   0.216   6.678  10.588  1.5991 -0.1121  1.8339
  150SAPE     P16570   0.008   6.420  10.709  0.3150  0.0453  0.2380
  150SAPE   O1316571   0.090   6.306  10.674 -0.2278 -0.6556  0.7694
  150SAPE   O1416572  -0.046   6.420  10.849 -0.0743  0.0558  0.5496
  150SAPE   O1216573   0.090   6.555  10.704 -0.6754  0.1002 -0.0503
  150SAPE   O1116574  -0.116   6.446  10.611 -0.8109  0.1906 -0.2714
  150SAPE    C116575  -0.180   6.570  10.594 -0.3697 -0.7341  0.7268
  150SAPE    HA16576  -0.273   6.575  10.655  1.1159  1.2010  3.0361
  150SAPE    HB16577  -0.127   6.658  10.637 -0.6840 -1.1697  2.0433
  150SAPE    C216578  -0.216   6.600  10.445  0.4831  0.4965  0.5952
  150SAPE    HS16579  -0.292   6.681  10.445 -0.6205 -0.5021  1.2053
  150SAPE   O2116580  -0.271   6.488  10.379  0.2949 -0.1963  0.0813
  150SAPE   C2116581  -0.398   6.456  10.411  0.4000 -0.3334  0.0113
  150SAPE   O2216582  -0.477   6.525  10.472 -0.2690  0.2748 -0.3050
  150SAPE   C2216583  -0.434   6.321  10.360 -0.4931  0.2135 -0.4502
  150SAPE   H2R16584  -0.362   6.292  10.281 -1.4278 -2.4248 -0.4171
  150SAPE   H2S16585  -0.415   6.262  10.453  1.8388  1.6075  0.0599
  150SAPE    C316586  -0.092   6.644  10.365 -0.0682 -0.6864 -0.1892
  150SAPE    HX16587  -0.025   6.556  10.368 -1.9401 -2.1456  0.3492
  150SAPE    HY16588  -0.031   6.727  10.409 -0.3112 -0.8515  0.4770
  150SAPE   O3116589  -0.129   6.663  10.228  0.3578 -0.0546 -0.4754
  150SAPE   C3116590  -0.171   6.789  10.202  0.0493  0.5262 -0.2732
  150SAPE   O3216591  -0.180   6.876  10.282 -0.2793  0.1472 -0.1920
  150SAPE   C3216592  -0.201   6.813  10.053  0.0759  0.2492 -0.2478
  150SAPE   H2X16593  -0.250   6.724  10.008 -0.6266  1.4793 -2.0026
  150SAPE   H2Y16594  -0.098   6.821  10.012  0.3134  0.7718  0.4283
  150SAPE   C2316595  -0.582   6.308  10.315 -0.2191  0.7312 -0.7693
  150SAPE   H3R16596  -0.649   6.350  10.393  0.0264 -0.1262 -0.0788
  150SAPE   H3S16597  -0.606   6.199  10.323  0.1869  0.6409 -0.7479
  150SAPE   C2416598  -0.621   6.342  10.170 -0.4269 -0.4929 -0.3832
  150SAPE   H4R16599  -0.724   6.303  10.156 -0.4174  0.0682 -2.4465
  150SAPE   H4S16600  -0.550   6.286  10.104 -1.3931 -2.6773  0.3273
  150SAPE   C2516601  -0.625   6.493  10.143  0.3980  0.8097  0.8883
  150SAPE   H5R16602  -0.691   6.551  10.209  0.4787  0.5724  1.1784
  150SAPE   C2616603  -0.547   6.555  10.048 -0.3043  0.2703  0.5917
  150SAPE   H6R16604  -0.553   6.665  10.041 -0.1971  0.3002  0.9450
  150SAPE   C2716605  -0.449   6.492   9.956  0.4775  0.5645  0.5236
  150SAPE   H7R16606  -0.377   6.422  10.003  1.0208  1.4534  1.0554
  150SAPE   H7S16607  -0.379   6.572   9.924 -1.5616  2.5159  0.7190
  150SAPE   C2816608  -0.536   6.433   9.843 -0.5994 -0.7354 -0.0193
  150SAPE   H8R16609  -0.620   6.372   9.879 -0.8377 -0.6195 -0.3667
  150SAPE   C2916610  -0.512   6.439   9.712 -0.5358 -0.2695 -0.0085
  150SAPE   H9R16611  -0.590   6.391   9.651  0.1093 -1.1629 -0.1402
  150SAPE  C21016612  -0.395   6.504   9.640  0.1279 -0.1246  0.1635
  150SAPE  H10R16613  -0.343   6.435   9.569 -1.3948 -2.4483  1.2014
  150SAPE  H10S16614  -0.322   6.531   9.718  0.9931 -0.3568 -0.5462
  150SAPE  C21116615  -0.439   6.633   9.576 -0.5519 -0.2652  0.8186
  150SAPE  H11R16616  -0.496   6.703   9.640 -0.3505 -0.1154  0.8350
  150SAPE  C21216617  -0.400   6.671   9.451  0.4561  0.6529 -0.0595
  150SAPE  H12R16618  -0.446   6.760   9.406  0.5758 -0.4117 -2.4248
  150SAPE  C21316619  -0.304   6.599   9.353  0.2286 -0.0656 -0.6638
  150SAPE  H13R16620  -0.296   6.495   9.392  0.7160  0.7208  1.4732
  150SAPE  H13S16621  -0.199   6.634   9.360  1.0084 -2.0456 -1.6136
  150SAPE  C21416622  -0.346   6.607   9.209 -0.2179  0.1517  0.3268
  150SAPE  H14R16623  -0.308   6.689   9.146 -0.1755  0.3319  0.5826
  150SAPE  C21516624  -0.408   6.508   9.143 -0.0731  0.8918  0.0941
  150SAPE  H15R16625  -0.426   6.531   9.037  0.6462  0.3545 -0.1564
  150SAPE  C21616626  -0.458   6.378   9.206 -0.0745 -0.6915  0.0652
  150SAPE  H16R16627  -0.560   6.385   9.249  0.9050  1.0052  2.3157
  150SAPE  H16S16628  -0.385   6.345   9.283 -0.9107 -0.2706  1.0674
  150SAPE  C21716629  -0.481   6.258   9.105  0.3490 -0.4987  0.6825
  150SAPE  H17R16630  -0.550   6.284   9.021  1.3603 -2.1736 -0.7452
  150SAPE  H17S16631  -0.532   6.179   9.164 -0.9510  0.7926  1.3514
  150SAPE  C21816632  -0.363   6.203   9.027 -0.5488  0.4292  0.4415
  150SAPE  H18R16633  -0.325   6.296   8.982 -1.1954  0.6263  0.2968
  150SAPE  H18S16634  -0.385   6.131   8.946 -0.7731 -0.1937  1.0405
  150SAPE  C21916635  -0.253   6.146   9.121 -0.3856  0.2837 -0.2374
  150SAPE  H19R16636  -0.293   6.065   9.185  0.4328 -0.6819 -0.9331
  150SAPE  H19S16637  -0.222   6.221   9.197 -2.9625  1.5427 -0.3334
  150SAPE  C22016638  -0.127   6.091   9.041 -0.1242 -0.1615 -0.9052
  150SAPE  H20R16639  -0.067   6.175   9.000 -2.3688  1.8706 -0.3263
  150SAPE  H20S16640  -0.155   6.022   8.959 -1.0183 -0.1031 -0.6596
  150SAPE  H20T16641  -0.055   6.045   9.112 -1.1877 -0.2933  0.1257
  150SAPE   C3316642  -0.286   6.935  10.021 -0.4157 -0.5508  0.8520
  150SAPE   H3X16643  -0.237   7.034  10.037 -0.2252 -0.1178 -2.0093
  150SAPE   H3Y16644  -0.373   6.927  10.090 -1.4517  0.9307 -0.2242
  150SAPE   C3416645  -0.324   6.933   9.871  0.1644  0.2441 -0.0173
  150SAPE   H4X16646  -0.379   7.027   9.849  0.4290  0.2595 -0.6379
  150SAPE   H4Y16647  -0.403   6.856   9.853  0.1296  0.4873 -0.9206
  150SAPE   C3516648  -0.209   6.914   9.776 -0.2649 -0.9655  0.9047
  150SAPE   H5X16649  -0.191   6.805   9.761 -1.3675 -1.0515 -0.0135
  150SAPE   H5Y16650  -0.113   6.954   9.814 -0.6210  1.7987 -0.8207
  150SAPE   C3616651  -0.232   6.979   9.640  0.8083  0.2392 -0.5618
  150SAPE   H6X16652  -0.336   6.944   9.619  0.8384 -0.9668  1.1692
  150SAPE   H6Y16653  -0.168   6.935   9.561 -1.6284 -3.2830 -0.8147
  150SAPE   C3716654  -0.229   7.133   9.636 -0.3787 -0.4951 -0.7731
  150SAPE   H7X16655  -0.125   7.166   9.661 -0.5096 -1.2309  0.8601
  150SAPE   H7Y16656  -0.288   7.173   9.721 -1.3720 -0.4979 -1.4410
  150SAPE   C3816657  -0.287   7.194   9.509 -0.0375  0.2417  0.2729
  150SAPE   H8X16658  -0.397   7.182   9.514 -0.0208 -1.9576 -2.4869
  150SAPE   H8Y16659  -0.241   7.150   9.418  2.0962  1.5007  0.6623
  150SAPE   C3916660  -0.283   7.342   9.493 -0.4479  0.0737 -0.5127
  150SAPE   H9X16661  -0.179   7.378   9.476 -0.2309 -0.1081  0.3540
  150SAPE   H9Y16662  -0.310   7.393   9.588 -1.4969  2.0318 -1.8069
  150SAPE  C31016663  -0.372   7.390   9.377 -0.3906  0.2496 -0.1200
  150SAPE  H10X16664  -0.478   7.373   9.401 -0.4252 -0.0815 -0.4995
  150SAPE  H10Y16665  -0.342   7.335   9.285  0.2244  0.8921 -0.3172
  150SAPE  C31116666  -0.362   7.537   9.352  0.0179 -0.2410  0.1148
  150SAPE  H11X16667  -0.254   7.557   9.338 -0.5731  2.4779 -1.2772
  150SAPE  H11Y16668  -0.402   7.594   9.438 -0.2871 -0.6077  0.2187
  150SAPE  C31216669  -0.452   7.579   9.229  0.5183 -0.5878  0.1254
  150SAPE  H12X16670  -0.552   7.534   9.249  1.3819 -1.7736  2.1182
  150SAPE  H12Y16671  -0.406   7.520   9.146  1.7177 -2.0132  1.7203
  150SAPE  C31316672  -0.459   7.730   9.208 -1.0436  0.2165  0.2126
  150SAPE  H13X16673  -0.361   7.777   9.183 -1.8262  1.8753  0.1110
  150SAPE  H13Y16674  -0.497   7.781   9.299 -3.0551 -1.0272  0.1219
  150SAPE  C31416675  -0.567   7.763   9.103 -0.5674 -0.0178  0.3672
  150SAPE  H14X16676  -0.566   7.874   9.098 -2.0120  0.0204  0.5205
  150SAPE  H14Y16677  -0.667   7.745   9.147 -0.3727  1.7074  1.6490
  150SAPE  C31516678  -0.536   7.706   8.962  0.9842  0.1105  0.7956
  150SAPE  H15X16679  -0.545   7.595   8.968  0.1450  0.1988  1.3020
  150SAPE  H15Y16680  -0.433   7.744   8.947  1.8150 -1.4730  2.1795
  150SAPE  C31616681  -0.635   7.754   8.858  0.5460  0.7173 -0.2549
  150SAPE  H16X16682  -0.638   7.863   8.875 -0.1427  0.8503 -1.1286
  150SAPE  H16Y16683  -0.735   7.715   8.885  0.3023  0.9224 -0.8423
  150SAPE  C31716684  -0.588   7.704   8.716  0.7897 -0.2136  0.1571
  150SAPE  H17X16685  -0.554   7.599   8.727  0.7232 -0.4556 -1.6724
  150SAPE  H17Y16686  -0.494   7.760   8.696  0.3040 -0.5242 -3.5780
  150SAPE  C31816687  -0.697   7.717   8.605  0.3300  0.4501 -1.0416
  150SAPE  H18X16688  -0.633   7.696   8.516  3.6630  0.8463  1.0649
  150SAPE  H18Y16689  -0.751   7.814   8.601 -1.9713 -0.6877  0.4145
  150SAPE  H18Z16690  -0.778   7.643   8.621 -0.3660  1.0300 -1.8372
  151SAPE     N16691   2.594   4.341  10.821  0.4247 -0.0552  0.0982
  151SAPE   HN116692   2.624   4.439  10.803 -0.0245  0.3429  1.3896
  151SAPE   HN216693   2.511   4.331  10.883 -2.7377 -0.9285 -3.8329
  151SAPE   HN316694   2.673   4.282  10.854 -0.6797 -1.6749  0.0016
  151SAPE   C1216695   2.540   4.274  10.691 -0.2476 -0.1825 -0.7844
  151SAPE  H12A16696   2.447   4.325  10.660 -2.0076 -2.6120  0.1662
  151SAPE  H12B16697   2.508   4.171  10.719  0.3095  0.0207  0.7335
  151SAPE   C1116698   2.639   4.274  10.575  0.4439  0.1490  0.6159
  151SAPE  H11A16699   2.576   4.277  10.483  1.5254 -0.0751 -0.1478
  151SAPE  H11B16700   2.699   4.180  10.571 -1.7892 -1.3259 -0.5944
  151SAPE     P16701   2.862   4.393  10.531 -0.1930 -0.1774  0.1065
  151SAPE   O1316702   2.911   4.531  10.549 -0.5685  0.5279  0.5575
  151SAPE   O1416703   2.937   4.287  10.609 -0.0211 -0.5471  0.2031
  151SAPE   O1216704   2.709   4.392  10.560 -0.2520  0.4420  0.0549
  151SAPE   O1116705   2.865   4.350  10.376 -0.7911 -0.6480  0.4510
  151SAPE    C116706   2.824   4.439  10.269  0.4627  0.4025 -0.0897
  151SAPE    HA16707   2.721   4.418  10.235  0.2247 -1.9002  1.7885
  151SAPE    HB16708   2.838   4.544  10.303 -0.8977  0.6227 -0.1731
  151SAPE    C216709   2.925   4.438  10.149  0.0246  0.6250 -0.4239
  151SAPE    HS16710   2.899   4.514  10.072 -1.5172 -0.1029 -0.6505
  151SAPE   O2116711   2.927   4.309  10.094  0.3075  0.5763 -0.1076
  151SAPE   C2116712   2.840   4.284   9.997 -0.0899  0.1283  0.2828
  151SAPE   O2216713   2.752   4.357   9.954  0.2761 -0.5951 -0.4323
  151SAPE   C2216714   2.860   4.140   9.955  0.0417 -0.1487  0.0103
  151SAPE   H2R16715   2.962   4.128   9.914  0.0516 -1.4325  0.3528
  151SAPE   H2S16716   2.867   4.090  10.054 -1.5207  1.5329  1.0393
  151SAPE    C316717   3.076   4.477  10.192 -0.0816  0.2483 -0.0623
  151SAPE    HX16718   3.102   4.409  10.276  1.4781  0.8452 -0.0291
  151SAPE    HY16719   3.076   4.582  10.228 -1.2189  0.7083 -1.3326
  151SAPE   O3116720   3.168   4.456  10.083  0.1623 -0.2897 -0.0866
  151SAPE   C3116721   3.185   4.546   9.987  0.4259 -0.1724  0.7618
  151SAPE   O3216722   3.152   4.662   9.994  0.9332  0.3076  0.3447
  151SAPE   C3216723   3.243   4.488   9.861 -0.9543  0.1715  0.8348
  151SAPE   H2X16724   3.224   4.379   9.850  0.9646 -0.2252  0.9652
  151SAPE   H2Y16725   3.354   4.478   9.869 -0.9797 -1.3930 -0.2708
  151SAPE   C2316726   2.740   4.081   9.878  0.6487 -0.7686 -0.5096
  151SAPE   H3R16727   2.646   4.120   9.922  1.4194  0.7393 -0.1321
  151SAPE   H3S16728   2.740   3.970   9.879 -1.0080 -0.8725 -2.5681
  151SAPE   C2416729   2.736   4.132   9.733  0.4736  0.7993  0.0090
  151SAPE   H4R16730   2.720   4.242   9.731 -2.2609  0.4926  0.5922
  151SAPE   H4S16731   2.640   4.098   9.689 -0.0870  0.9160  1.1151
  151SAPE   C2516732   2.854   4.084   9.649 -0.4517 -0.0878  0.6369
  151SAPE   H5R16733   2.913   3.996   9.677 -1.0098 -0.5655  0.3642
  151SAPE   C2616734   2.906   4.149   9.536  0.0706 -0.0370  0.6731
  151SAPE   H6R16735   2.993   4.102   9.488  0.4291  0.4924  0.7932
  151SAPE   C2716736   2.846   4.269   9.475  0.4571 -0.8691  0.3965
  151SAPE   H7R16737   2.937   4.333   9.466  0.1723  0.0955  3.3262
  151SAPE   H7S16738   2.782   4.322   9.548  1.1902  1.1783 -0.3967
  151SAPE   C2816739   2.764   4.243   9.348  0.2153  0.2826 -0.3149
  151SAPE   H8R16740   2.710   4.148   9.334 -0.8762  0.9633 -0.8709
  151SAPE   C2916741   2.752   4.333   9.252 -0.2671 -0.5251  0.0362
  151SAPE   H9R16742   2.688   4.300   9.168  1.4052  0.4174 -1.6868
  151SAPE  C21016743   2.790   4.482   9.258  0.3172 -0.0390  0.7584
  151SAPE  H10R16744   2.887   4.499   9.205  0.6094 -1.4462  0.7993
  151SAPE  H10S16745   2.814   4.512   9.362  0.6258  0.5698  0.5194
  151SAPE  C21116746   2.672   4.572   9.213 -0.1526  0.4226 -0.6870
  151SAPE  H11R16747   2.581   4.534   9.262 -0.0767  0.6276 -0.3891
  151SAPE  C21216748   2.672   4.672   9.122  0.4000 -0.3585 -0.5081
  151SAPE  H12R16749   2.578   4.727   9.111 -0.0469 -0.6365  1.5236
  151SAPE  C21316750   2.779   4.723   9.038  0.0341  0.1380 -0.2664
  151SAPE  H13R16751   2.867   4.763   9.094 -0.6343  1.2955 -0.0071
  151SAPE  H13S16752   2.739   4.816   8.992 -0.6001  0.2796  0.5438
  151SAPE  C21416753   2.813   4.633   8.919 -0.1440 -0.0098 -0.1652
  151SAPE  H14R16754   2.855   4.533   8.943  2.7006  1.1911  0.2944
  151SAPE  C21516755   2.828   4.676   8.795  0.0965 -0.1721 -0.0872
  151SAPE  H15R16756   2.844   4.597   8.719  0.1996  0.8543 -1.1646
  151SAPE  C21616757   2.800   4.810   8.733  0.3061 -0.7535 -0.6285
  151SAPE  H16R16758   2.903   4.848   8.714 -0.4966  1.7281 -0.3490
  151SAPE  H16S16759   2.772   4.892   8.802  1.1450 -2.2055  1.5753
  151SAPE  C21716760   2.705   4.818   8.611 -0.5015  0.4067  0.5438
  151SAPE  H17R16761   2.674   4.924   8.600  0.6962  0.5312 -3.7074
  151SAPE  H17S16762   2.617   4.754   8.632  0.7258 -1.5048  0.1623
  151SAPE  C21816763   2.780   4.779   8.483 -0.6612  0.1357 -0.0993
  151SAPE  H18R16764   2.795   4.669   8.487 -0.9652  0.0918 -0.1331
  151SAPE  H18S16765   2.884   4.816   8.479  0.6877 -3.1230  1.1606
  151SAPE  C21916766   2.716   4.836   8.359  0.2408 -0.4440  0.1405
  151SAPE  H19R16767   2.768   4.800   8.267 -0.5506  0.5680 -0.7348
  151SAPE  H19S16768   2.737   4.945   8.351  1.0453 -0.7398 -3.2175
  151SAPE  C22016769   2.565   4.811   8.328  0.6642 -0.1965 -0.8212
  151SAPE  H20R16770   2.532   4.855   8.231 -1.6077  1.5164  0.6244
  151SAPE  H20S16771   2.499   4.846   8.410  2.6300 -0.8987  1.1630
  151SAPE  H20T16772   2.557   4.700   8.324  0.3331 -0.3656  2.2465
  151SAPE   C3316773   3.211   4.572   9.729  0.2064 -0.7325 -0.7062
  151SAPE   H3X16774   3.262   4.670   9.729  0.4151 -0.7583  2.1325
  151SAPE   H3Y16775   3.104   4.590   9.707  0.3641  0.1656 -0.7470
  151SAPE   C3416776   3.236   4.488   9.607  0.1285 -1.1592 -0.0214
  151SAPE   H4X16777   3.199   4.384   9.624  3.0154 -2.0021  1.7571
  151SAPE   H4Y16778   3.346   4.478   9.600  0.2359 -0.2301  0.2324
  151SAPE   C3516779   3.194   4.554   9.469 -0.6743 -0.2365 -0.3844
  151SAPE   H5X16780   3.253   4.647   9.457 -0.3480 -0.4026 -0.0700
  151SAPE   H5Y16781   3.084   4.573   9.467 -0.5113  0.8469  0.4155
  151SAPE   C3616782   3.245   4.466   9.352  0.6211 -0.3268  0.2258
  151SAPE   H6X16783   3.183   4.374   9.343 -0.4542  0.5282 -1.8496
  151SAPE   H6Y16784   3.353   4.452   9.371  0.0542 -0.8168  3.6114
  151SAPE   C3716785   3.227   4.534   9.216  0.0758 -0.0288  1.0505
  151SAPE   H7X16786   3.275   4.634   9.223  2.1736 -1.0095  1.1295
  151SAPE   H7Y16787   3.119   4.558   9.199 -0.0763  0.6308  2.7487
  151SAPE   C3816788   3.293   4.463   9.095  0.3438 -0.1383 -0.4796
  151SAPE   H8X16789   3.234   4.374   9.064 -1.0672  0.6727 -0.2210
  151SAPE   H8Y16790   3.387   4.417   9.133 -0.2197 -1.4483 -0.6486
  151SAPE   C3916791   3.333   4.553   8.983  0.4969 -0.6772 -0.3284
  151SAPE   H9X16792   3.399   4.632   9.024  0.1780 -0.4913 -0.1730
  151SAPE   H9Y16793   3.246   4.608   8.943 -0.4745 -3.3367 -2.1718
  151SAPE  C31016794   3.396   4.482   8.871 -0.2055  1.0024 -0.2243
  151SAPE  H10X16795   3.492   4.440   8.906 -1.5541 -1.5137  0.7127
  151SAPE  H10Y16796   3.427   4.555   8.793 -0.7086 -0.4380 -1.8381
  151SAPE  C31116797   3.309   4.372   8.803 -0.5600 -0.1496 -0.0660
  151SAPE  H11X16798   3.225   4.423   8.752  0.0365  1.5657  0.5883
  151SAPE  H11Y16799   3.264   4.307   8.882  0.4321 -1.8379 -0.8343
  151SAPE  C31216800   3.394   4.282   8.715 -0.0696  0.3345 -0.4409
  151SAPE  H12X16801   3.330   4.192   8.704  0.0930  0.2079 -0.3715
  151SAPE  H12Y16802   3.485   4.248   8.769 -2.0241 -2.5360  1.3400
  151SAPE  C31316803   3.417   4.334   8.573 -0.4688 -0.5092  0.8727
  151SAPE  H13X16804   3.484   4.261   8.521 -0.5111 -0.3183  0.5519
  151SAPE  H13Y16805   3.482   4.424   8.573 -0.7206 -0.3108  2.1308
  151SAPE  C31416806   3.289   4.357   8.473 -0.1877  0.3169 -0.2382
  151SAPE  H14X16807   3.232   4.440   8.519  0.7723  1.0872 -0.4222
  151SAPE  H14Y16808   3.233   4.261   8.472  1.5665 -0.7639 -2.0862
  151SAPE  C31516809   3.324   4.397   8.329  0.3785 -0.2735 -0.0799
  151SAPE  H15X16810   3.381   4.316   8.278 -0.8419 -2.5418  1.9637
  151SAPE  H15Y16811   3.379   4.492   8.340  0.9616 -0.5646 -0.4204
  151SAPE  C31616812   3.202   4.435   8.245 -0.2359  0.5814  0.4394
  151SAPE  H16X16813   3.121   4.361   8.263 -0.6597  0.4413 -1.7355
  151SAPE  H16Y16814   3.238   4.439   8.140  2.8603  1.3682  1.4322
  151SAPE  C31716815   3.160   4.573   8.285 -0.3496 -0.9273  0.3359
  151SAPE  H17X16816   3.246   4.640   8.261  0.7240 -2.2772  0.3050
  151SAPE  H17Y16817   3.138   4.584   8.393 -1.4581  0.7928 -0.0227
  151SAPE  C31816818   3.042   4.631   8.213  0.6302 -0.2364  0.3187
  151SAPE  H18X16819   3.061   4.636   8.104  1.4112 -0.5032  0.4349
  151SAPE  H18Y16820   3.017   4.735   8.245  2.8695 -0.1570  2.1077
  151SAPE  H18Z16821   2.946   4.578   8.229 -0.2615  1.3290  0.4162
  152SAPE     N16822   4.075   4.833  10.772  0.6217 -0.5432 -0.3947
  152SAPE   HN116823   4.151   4.767  10.749  2.1763  1.7356 -2.1959
  152SAPE   HN216824   4.000   4.781  10.824  1.1951 -1.1092 -0.1164
  152SAPE   HN316825   4.040   4.864  10.679  2.6637 -1.0323 -1.3736
  152SAPE   C1216826   4.133   4.947  10.856 -0.1011 -0.5611  0.2769
  152SAPE  H12A16827   4.167   4.916  10.957 -0.8359  0.7522  0.9673
  152SAPE  H12B16828   4.060   5.031  10.863  1.5800  0.9942 -0.1198
  152SAPE   C1116829   4.262   5.013  10.801  0.7735 -0.3969  0.7518
  152SAPE  H11A16830   4.295   5.082  10.882  0.0485  1.5213 -0.5349
  152SAPE  H11B16831   4.245   5.082  10.716  3.0529 -1.4232 -0.6549
  152SAPE     P16832   4.463   4.929  10.660  0.3196 -0.4205  0.1841
  152SAPE   O1316833   4.555   5.044  10.694 -0.5037  0.2347  0.2992
  152SAPE   O1416834   4.525   4.803  10.628 -0.2261 -0.1130  0.2185
  152SAPE   O1216835   4.359   4.905  10.776 -0.3521  0.3790  0.5767
  152SAPE   O1116836   4.368   4.983  10.546  0.0343  0.4255  0.1014
  152SAPE    C116837   4.318   4.881  10.452 -0.3919 -0.5931 -0.7828
  152SAPE    HA16838   4.295   4.785  10.502  1.7036 -0.2708  0.8960
  152SAPE    HB16839   4.226   4.927  10.408 -3.3300 -2.8178  2.5159
  152SAPE    C216840   4.422   4.862  10.332 -0.0188 -0.6138  0.5892
  152SAPE    HS16841   4.515   4.816  10.372 -0.2505 -2.3988 -0.7523
  152SAPE   O2116842   4.461   4.989  10.274  0.3238 -0.0692  0.2233
  152SAPE   C2116843   4.381   5.041  10.179  0.3062  0.1765  0.1713
  152SAPE   O2216844   4.262   5.016  10.158 -0.3161 -0.7491 -0.3501
  152SAPE   C2216845   4.472   5.102  10.074  0.4783 -0.5871 -0.0308
  152SAPE   H2R16846   4.549   5.030  10.039  0.7642  0.0005 -0.6572
  152SAPE   H2S16847   4.409   5.116   9.983  0.6901 -0.8009 -0.2113
  152SAPE    C316848   4.374   4.763  10.221 -0.3755 -0.2208  0.4007
  152SAPE    HX16849   4.269   4.780  10.190 -0.6527 -2.0345  0.2257
  152SAPE    HY16850   4.380   4.664  10.272 -0.7127 -1.8757 -2.5738
  152SAPE   O3116851   4.458   4.776  10.097 -0.7053 -0.1486 -0.3530
  152SAPE   C3116852   4.411   4.713   9.994 -0.8108 -0.2282 -0.0790
  152SAPE   O3216853   4.309   4.653   9.986  0.2150  0.2331  0.4564
  152SAPE   C3216854   4.521   4.721   9.890 -0.0672  0.4137  0.1962
  152SAPE   H2X16855   4.530   4.624   9.837 -0.6738  1.3302 -1.6786
  152SAPE   H2Y16856   4.616   4.755   9.937  0.2330 -0.8836  0.5612
  152SAPE   C2316857   4.539   5.237  10.125 -0.1565  0.3250  0.1246
  152SAPE   H3R16858   4.631   5.213  10.183 -0.2829  1.1517  0.6822
  152SAPE   H3S16859   4.463   5.298  10.178  0.4230  0.3262  0.9649
  152SAPE   C2416860   4.585   5.329  10.008 -0.2967 -0.2367  0.2735
  152SAPE   H4R16861   4.632   5.419  10.053 -0.6842  0.8390 -1.3900
  152SAPE   H4S16862   4.495   5.369   9.956  0.2547  0.8987  0.1578
  152SAPE   C2516863   4.676   5.252   9.914  0.1908 -0.0250  0.6395
  152SAPE   H5R16864   4.730   5.162   9.947  3.6469  1.2283 -1.1090
  152SAPE   C2616865   4.697   5.279   9.779  0.2843 -0.8941 -0.0428
  152SAPE   H6R16866   4.764   5.213   9.722  0.3713 -0.3931 -0.5256
  152SAPE   C2716867   4.645   5.400   9.700  0.8429  0.0670 -0.8778
  152SAPE   H7R16868   4.562   5.445   9.759  1.8654 -0.8224  1.3470
  152SAPE   H7S16869   4.589   5.366   9.610 -0.1881 -2.8847  0.7327
  152SAPE   C2816870   4.743   5.511   9.686  0.2925  0.8338 -0.2311
  152SAPE   H8R16871   4.742   5.579   9.773  0.8492  1.0567 -0.3951
  152SAPE   C2916872   4.835   5.533   9.585  0.5832  0.5410 -0.4227
  152SAPE   H9R16873   4.899   5.622   9.590  0.1538  0.7848  1.5512
  152SAPE  C21016874   4.855   5.438   9.469 -0.7847  0.2754  0.4046
  152SAPE  H10R16875   4.818   5.486   9.376  3.8106  0.5188 -1.5146
  152SAPE  H10S16876   4.794   5.347   9.488  1.7953 -1.6755 -0.0799
  152SAPE  C21116877   5.000   5.393   9.469 -0.5697 -0.3715 -0.2760
  152SAPE  H11R16878   5.019   5.308   9.537  2.3618  2.2785  2.5589
  152SAPE  C21216879   5.094   5.443   9.391  0.5157 -0.4019  0.0533
  152SAPE  H12R16880   5.198   5.409   9.401  0.9218  0.9791  0.8097
  152SAPE  C21316881   5.084   5.547   9.279  0.6726 -1.0811  0.9390
  152SAPE  H13R16882   4.979   5.557   9.244  0.0728  1.4064  3.0983
  152SAPE  H13S16883   5.139   5.517   9.188 -2.6176  0.2667 -1.6814
  152SAPE  C21416884   5.127   5.683   9.321  0.8765 -0.2688  0.3453
  152SAPE  H14R16885   5.127   5.700   9.430  3.3326 -1.6511  0.6281
  152SAPE  C21516886   5.164   5.779   9.226 -0.3001 -0.4407  0.4488
  152SAPE  H15R16887   5.211   5.872   9.264  1.4740 -1.6876  1.4666
  152SAPE  C21616888   5.159   5.773   9.076 -0.0273  0.4553  0.3271
  152SAPE  H16R16889   5.071   5.832   9.042 -1.5480 -1.2414  1.1809
  152SAPE  H16S16890   5.135   5.673   9.034 -0.0426  0.9003 -0.7653
  152SAPE  C21716891   5.286   5.824   9.006  0.1159 -0.8584  0.1884
  152SAPE  H17R16892   5.368   5.753   9.032 -0.8037 -2.4753 -1.1189
  152SAPE  H17S16893   5.314   5.925   9.041 -0.0452 -0.7858  0.1103
  152SAPE  C21816894   5.280   5.817   8.852 -0.0441 -0.5900 -0.9885
  152SAPE  H18R16895   5.188   5.863   8.810 -0.6525 -0.8942 -0.0078
  152SAPE  H18S16896   5.268   5.709   8.831  1.0390 -0.7564 -0.7820
  152SAPE  C21916897   5.391   5.900   8.787 -0.5990 -0.2304 -0.4213
  152SAPE  H19R16898   5.395   5.998   8.841 -0.2306  0.0879 -1.0129
  152SAPE  H19S16899   5.369   5.913   8.679  1.8672  1.2470 -0.8482
  152SAPE  C22016900   5.539   5.847   8.794  0.7931 -0.2184 -0.2791
  152SAPE  H20R16901   5.605   5.920   8.742  0.2579  0.7829  0.4083
  152SAPE  H20S16902   5.536   5.751   8.739 -2.2978 -0.6504  0.4705
  152SAPE  H20T16903   5.561   5.850   8.903 -2.9802  1.8233  0.5970
  152SAPE   C3316904   4.474   4.824   9.790  0.3110  0.0141 -0.0497
  152SAPE   H3X16905   4.456   4.923   9.837  0.0364  0.5258 -1.1942
  152SAPE   H3Y16906   4.384   4.787   9.737  1.2421 -0.8289 -1.0986
  152SAPE   C3416907   4.580   4.847   9.674  0.0552  0.0297  0.3338
  152SAPE   H4X16908   4.571   4.760   9.606 -2.8163  0.4878 -0.0137
  152SAPE   H4Y16909   4.678   4.876   9.718 -0.2860  2.2585 -0.2774
  152SAPE   C3516910   4.541   4.961   9.578 -0.7088  0.0059 -0.4337
  152SAPE   H5X16911   4.546   5.056   9.634  0.4564  0.3422 -1.0813
  152SAPE   H5Y16912   4.435   4.952   9.546 -1.5455 -2.3310  2.5175
  152SAPE   C3616913   4.629   4.974   9.453  0.8424 -0.3877  0.6486
  152SAPE   H6X16914   4.625   4.875   9.403 -1.2949 -2.4746  4.4953
  152SAPE   H6Y16915   4.735   4.997   9.476  1.1979 -1.2307 -0.0927
  152SAPE   C3716916   4.585   5.086   9.351  0.1937 -0.3071 -0.5891
  152SAPE   H7X16917   4.581   5.186   9.400  2.4065 -0.5235  0.1289
  152SAPE   H7Y16918   4.484   5.064   9.310  0.1424 -0.8843 -0.1737
  152SAPE   C3816919   4.682   5.102   9.234  0.5208  0.1139  0.6250
  152SAPE   H8X16920   4.680   5.016   9.163  1.4536 -0.3265  1.1114
  152SAPE   H8Y16921   4.781   5.117   9.281  0.7332 -1.4986  0.7633
  152SAPE   C3916922   4.644   5.225   9.159 -0.4182 -0.0144  0.3741
  152SAPE   H9X16923   4.685   5.308   9.220  2.2863 -1.1336  0.2565
  152SAPE   H9Y16924   4.534   5.233   9.152 -0.5285  0.4596  2.2317
  152SAPE  C31016925   4.702   5.234   9.017  0.4478 -0.2362 -0.1245
  152SAPE  H10X16926   4.651   5.304   8.947 -2.6116 -1.3822  0.7905
  152SAPE  H10Y16927   4.694   5.131   8.976  1.6392 -0.6586  0.6810
  152SAPE  C31116928   4.853   5.257   9.025  0.7090  0.3600  0.5839
  152SAPE  H11X16929   4.900   5.176   9.084  1.7330  0.4061 -0.1405
  152SAPE  H11Y16930   4.869   5.355   9.074 -0.0553  0.0937  1.3916
  152SAPE  C31216931   4.919   5.287   8.889 -0.4633 -0.2293 -0.5341
  152SAPE  H12X16932   4.877   5.380   8.847  1.4505  1.1451  0.4287
  152SAPE  H12Y16933   4.893   5.213   8.811 -2.4541 -0.0690 -0.0884
  152SAPE  C31316934   5.070   5.298   8.887  0.4304  0.4193  0.6825
  152SAPE  H13X16935   5.109   5.197   8.914  0.7785  0.5090  0.5177
  152SAPE  H13Y16936   5.126   5.356   8.963  1.0099  3.2072 -1.7027
  152SAPE  C31416937   5.128   5.371   8.763 -0.1682  0.3932 -0.2496
  152SAPE  H14X16938   5.095   5.477   8.771 -0.1446  0.3451  0.5236
  152SAPE  H14Y16939   5.081   5.322   8.675  0.1514 -3.8532  1.7287
  152SAPE  C31516940   5.280   5.344   8.738  0.1319 -0.3065 -0.6600
  152SAPE  H15X16941   5.309   5.238   8.755  0.3439 -0.4884 -2.0264
  152SAPE  H15Y16942   5.324   5.408   8.817 -1.1361  1.5239 -1.3660
  152SAPE  C31616943   5.321   5.394   8.601 -0.6516 -0.1629  0.8457
  152SAPE  H16X16944   5.225   5.411   8.549 -1.0592 -0.3963  1.5162
  152SAPE  H16Y16945   5.381   5.321   8.543 -4.0242 -1.7631 -0.8653
  152SAPE  C31716946   5.380   5.532   8.602 -0.5035  0.1691  0.4171
  152SAPE  H17X16947   5.463   5.548   8.673 -0.8778 -1.3190  1.2205
  152SAPE  H17Y16948   5.298   5.596   8.640 -0.4647  0.3956  0.1269
  152SAPE  C31816949   5.421   5.585   8.463  0.1159 -0.7482  0.0041
  152SAPE  H18X16950   5.456   5.507   8.391 -1.5698 -0.6646 -0.9549
  152SAPE  H18Y16951   5.502   5.661   8.463  0.4672 -1.1152  0.4886
  152SAPE  H18Z16952   5.330   5.623   8.412  0.4535  0.8786  0.5547
  153SAPE     N16953   4.502   6.400  10.927  0.4818  0.4822 -0.2679
  153SAPE   HN116954   4.472   6.385  11.025  1.6246 -0.5176 -0.0493
  153SAPE   HN216955   4.499   6.311  10.872  0.2641 -1.1048  2.1281
  153SAPE   HN316956   4.593   6.449  10.932 -0.4520  2.2357  0.3841
  153SAPE   C1216957   4.418   6.510  10.866  0.0540  0.4478 -0.0084
  153SAPE  H12A16958   4.414   6.603  10.927 -0.3656  0.2882  0.2193
  153SAPE  H12B16959   4.312   6.480  10.852 -0.5760  2.2642  0.6805
  153SAPE   C1116960   4.468   6.546  10.729  0.7276  0.3561 -0.0793
  153SAPE  H11A16961   4.400   6.629  10.700  2.0783  0.5366 -3.1978
  153SAPE  H11B16962   4.447   6.470  10.651  0.1478  0.3657  0.0610
  153SAPE     P16963   4.724   6.503  10.675 -0.2424  0.1319  0.1407
  153SAPE   O1316964   4.835   6.590  10.667  0.5503 -0.6438  0.2313
  153SAPE   O1416965   4.735   6.387  10.763 -0.3880  0.7159 -0.2165
  153SAPE   O1216966   4.599   6.590  10.713  0.9233 -0.4211  0.1305
  153SAPE   O1116967   4.675   6.456  10.537  0.2554  0.9754  0.2318
  153SAPE    C116968   4.618   6.540  10.436  0.0413 -0.9434  0.4401
  153SAPE    HA16969   4.530   6.594  10.477 -0.9554 -2.4392  0.3323
  153SAPE    HB16970   4.696   6.614  10.409  0.2664 -0.2522  2.8293
  153SAPE    C216971   4.581   6.440  10.326 -0.3638  0.2810 -0.1867
  153SAPE    HS16972   4.665   6.367  10.320  0.5309  1.0587  1.9426
  153SAPE   O2116973   4.551   6.501  10.198  0.5785  0.3039 -0.1683
  153SAPE   C2116974   4.660   6.549  10.131 -0.4639  0.0803 -0.2654
  153SAPE   O2216975   4.775   6.534  10.170 -0.1238  0.2559  0.0622
  153SAPE   C2216976   4.618   6.636  10.013 -0.4583  1.0305 -0.0714
  153SAPE   H2R16977   4.592   6.735  10.057 -0.3437  0.5340  1.1695
  153SAPE   H2S16978   4.707   6.654   9.950  0.8447  2.1026  1.9362
  153SAPE    C316979   4.457   6.356  10.363 -1.1778 -0.2010 -0.3655
  153SAPE    HX16980   4.378   6.431  10.383  1.5338  1.9368  3.6721
  153SAPE    HY16981   4.475   6.299  10.457 -0.0067  0.0329 -0.4228
  153SAPE   O3116982   4.422   6.266  10.260  0.6134 -0.2868  0.5203
  153SAPE   C3116983   4.514   6.169  10.241  0.3469  1.2228 -0.1346
  153SAPE   O3216984   4.617   6.149  10.309 -0.2550 -0.5813  1.0772
  153SAPE   C3216985   4.484   6.083  10.120  0.1369  0.1886  0.1145
  153SAPE   H2X16986   4.377   6.102  10.097  0.2552  0.5232 -0.1682
  153SAPE   H2Y16987   4.514   5.980  10.148  2.5301  1.7311  3.9645
  153SAPE   C2316988   4.496   6.578   9.933  0.7548 -0.1156  0.5317
  153SAPE   H3R16989   4.427   6.657   9.896 -0.7631 -0.6961  1.9952
  153SAPE   H3S16990   4.441   6.512  10.003 -0.2456  0.6055  0.4371
  153SAPE   C2416991   4.542   6.502   9.804 -0.0497 -0.1416 -0.7373
  153SAPE   H4R16992   4.455   6.436   9.785 -1.1651  1.8456 -3.1585
  153SAPE   H4S16993   4.627   6.436   9.830 -1.2114 -1.0674  0.9062
  153SAPE   C2516994   4.575   6.594   9.684  0.6190  0.1844 -0.5706
  153SAPE   H5R16995   4.649   6.673   9.702  0.2320  0.1584  1.3645
  153SAPE   C2616996   4.529   6.580   9.558  0.1211 -0.5092  0.0293
  153SAPE   H6R16997   4.576   6.655   9.493  0.7353  0.9562  2.0649
  153SAPE   C2716998   4.428   6.474   9.510  0.8730  0.8788 -1.2124
  153SAPE   H7R16999   4.360   6.441   9.591 -0.9301  1.1180 -2.5780
  153SAPE   H7S17000   4.491   6.387   9.482  0.8852  0.8364 -1.0557
  153SAPE   C2817001   4.357   6.511   9.379  0.1025  0.0033  0.3821
  153SAPE   H8R17002   4.273   6.580   9.390  0.0018 -0.0444 -0.0846
  153SAPE   C2917003   4.406   6.490   9.256 -0.8834 -0.0354 -0.0680
  153SAPE   H9R17004   4.340   6.515   9.172 -1.6723  2.2103  1.1093
  153SAPE  C21017005   4.533   6.420   9.212 -0.3897  0.5326 -0.3001
  153SAPE  H10R17006   4.511   6.323   9.164 -1.7298  0.7554 -0.1650
  153SAPE  H10S17007   4.599   6.395   9.298  0.2762 -0.1485 -1.0020
  153SAPE  C21117008   4.601   6.510   9.119 -0.4735  0.4331  0.7864
  153SAPE  H11R17009   4.666   6.578   9.176 -0.5549  0.7071  0.5545
  153SAPE  C21217010   4.610   6.515   8.985  0.5029 -0.0053  0.2721
  153SAPE  H12R17011   4.669   6.598   8.941 -0.3751  1.0465  1.0190
  153SAPE  C21317012   4.546   6.425   8.881  0.1637  0.5549  0.3822
  153SAPE  H13R17013   4.545   6.325   8.928 -0.5828  0.6928  0.6677
  153SAPE  H13S17014   4.612   6.403   8.795  3.0258 -1.6139  2.9120
  153SAPE  C21417015   4.407   6.466   8.841 -0.0296 -0.3718  0.3822
  153SAPE  H14R17016   4.362   6.559   8.880 -1.6055 -0.6476 -0.6555
  153SAPE  C21517017   4.329   6.393   8.759  0.0273 -0.4689 -0.7854
  153SAPE  H15R17018   4.236   6.445   8.733  0.2921  1.7347  2.1535
  153SAPE  C21617019   4.347   6.259   8.693 -0.3672 -0.0729  0.9706
  153SAPE  H16R17020   4.283   6.184   8.746  1.7361 -2.1652  0.7251
  153SAPE  H16S17021   4.450   6.220   8.706  0.6871  2.1959 -0.0423
  153SAPE  C21717022   4.300   6.264   8.548  0.8460 -0.5618 -0.2255
  153SAPE  H17R17023   4.210   6.327   8.534  1.1950 -0.1473 -0.6645
  153SAPE  H17S17024   4.274   6.161   8.515 -0.3249 -0.8800  1.5491
  153SAPE  C21817025   4.399   6.326   8.440 -0.1477 -1.0397 -0.3029
  153SAPE  H18R17026   4.502   6.292   8.466 -0.1298 -0.3852  0.5150
  153SAPE  H18S17027   4.401   6.437   8.447  0.7020 -1.1371  1.2804
  153SAPE  C21917028   4.369   6.296   8.300 -0.0345  0.1638 -0.1366
  153SAPE  H19R17029   4.264   6.320   8.272 -0.5566  1.4401  2.5708
  153SAPE  H19S17030   4.365   6.185   8.286 -0.0392  0.0534  0.6958
  153SAPE  C22017031   4.473   6.346   8.198 -0.0897  0.4617 -0.5093
  153SAPE  H20R17032   4.430   6.348   8.095 -0.2375  1.0060 -0.4455
  153SAPE  H20S17033   4.572   6.297   8.208 -0.4354  0.0935  1.5707
  153SAPE  H20T17034   4.497   6.454   8.205 -1.2628  0.7085  0.0214
  153SAPE   C3317035   4.573   6.121  10.000 -0.6168  0.2706 -0.5346
  153SAPE   H3X17036   4.677   6.115  10.040  0.2304 -1.3198 -2.7872
  153SAPE   H3Y17037   4.548   6.220   9.955  0.3073  0.6430 -0.2648
  153SAPE   C3417038   4.556   6.022   9.890  0.5081  0.0418  0.3890
  153SAPE   H4X17039   4.447   6.017   9.869  0.5972 -1.8272  0.2192
  153SAPE   H4Y17040   4.580   5.920   9.927 -2.9653 -0.6362  1.1119
  153SAPE   C3517041   4.618   6.059   9.755  0.4694 -0.4453 -0.4970
  153SAPE   H5X17042   4.726   6.065   9.779  0.2160 -0.6196  0.7758
  153SAPE   H5Y17043   4.593   6.157   9.710  2.7319  0.4992  0.1507
  153SAPE   C3617044   4.576   5.952   9.653  0.4875  0.2926 -1.1516
  153SAPE   H6X17045   4.465   5.946   9.646  0.4048 -0.1505  0.2947
  153SAPE   H6Y17046   4.617   5.864   9.706  0.9563  1.6176  0.7899
  153SAPE   C3717047   4.637   5.962   9.513  0.3263 -0.2810  0.0977
  153SAPE   H7X17048   4.616   6.066   9.483 -2.1192 -0.5784  0.5877
  153SAPE   H7Y17049   4.566   5.904   9.450 -0.4658  0.3875  0.3585
  153SAPE   C3817050   4.785   5.939   9.492 -0.2340  0.1651 -0.3212
  153SAPE   H8X17051   4.814   5.839   9.531  1.9905  1.0710  0.5458
  153SAPE   H8Y17052   4.848   6.010   9.549  0.3078 -1.2435  0.9061
  153SAPE   C3917053   4.831   5.936   9.348 -0.7346  0.6834  0.5463
  153SAPE   H9X17054   4.761   5.866   9.298  0.2720  1.2863 -1.8511
  153SAPE   H9Y17055   4.935   5.898   9.338 -0.4492  1.3465  0.9442
  153SAPE  C31017056   4.814   6.070   9.284 -0.6331 -0.2065  0.3912
  153SAPE  H10X17057   4.877   6.140   9.342 -0.8255 -1.7302  2.5773
  153SAPE  H10Y17058   4.707   6.098   9.292 -0.8025  0.0571 -2.0095
  153SAPE  C31117059   4.843   6.070   9.133 -0.5762  0.8168  0.1625
  153SAPE  H11X17060   4.759   6.019   9.081 -0.6827  1.6305 -0.4787
  153SAPE  H11Y17061   4.935   6.012   9.110 -0.0955  1.4609  0.4440
  153SAPE  C31217062   4.865   6.216   9.088  0.2433 -0.4432 -0.0332
  153SAPE  H12X17063   4.965   6.252   9.121 -0.4738  0.6150  1.0389
  153SAPE  H12Y17064   4.791   6.278   9.143  0.9700  1.1801 -0.8240
  153SAPE  C31317065   4.856   6.231   8.934 -0.2903 -0.0565  0.5776
  153SAPE  H13X17066   4.843   6.340   8.921 -0.0002  0.2700  2.6841
  153SAPE  H13Y17067   4.758   6.186   8.906  0.1985 -0.4767 -0.5156
  153SAPE  C31417068   4.975   6.176   8.854  0.0525  0.6839 -0.4798
  153SAPE  H14X17069   4.972   6.065   8.852  2.1635  0.5247  1.3062
  153SAPE  H14Y17070   5.068   6.200   8.910 -1.4405 -0.0230  2.4934
  153SAPE  C31517071   4.976   6.216   8.710  0.0328  0.0647  0.1553
  153SAPE  H15X17072   4.884   6.178   8.662 -0.5175 -0.9928  1.9783
  153SAPE  H15Y17073   5.065   6.166   8.666 -1.4714 -3.4339  0.7475
  153SAPE  C31617074   4.969   6.376   8.684 -1.0574  0.0017 -0.3181
  153SAPE  H16X17075   5.039   6.417   8.760 -1.4184  3.8669 -1.8552
  153SAPE  H16Y17076   4.864   6.410   8.700 -0.7938  1.2807 -1.1415
  153SAPE  C31717077   5.010   6.412   8.539 -0.6968  0.1530 -0.5615
  153SAPE  H17X17078   5.112   6.374   8.518 -0.5739  1.1114 -1.8142
  153SAPE  H17Y17079   4.997   6.522   8.537 -2.3436  0.0805  1.9251
  153SAPE  C31817080   4.926   6.356   8.430 -1.3149 -0.4294  0.6580
  153SAPE  H18X17081   4.973   6.366   8.329 -2.7012  1.0137  0.1177
  153SAPE  H18Y17082   4.837   6.421   8.438 -2.0736 -1.3876  0.3490
  153SAPE  H18Z17083   4.898   6.249   8.439 -4.9371  0.4372  0.9263
  154SAPE     N17084   6.454   4.498  10.680 -0.2086 -0.6572 -0.8130
  154SAPE   HN117085   6.351   4.511  10.683  0.1310  3.4419 -1.0255
  154SAPE   HN217086   6.468   4.395  10.683 -1.4426 -0.8239  0.2673
  154SAPE   HN317087   6.484   4.541  10.770  0.2366 -1.3216 -0.6370
  154SAPE   C1217088   6.506   4.570  10.558  0.4753  0.3079  0.2824
  154SAPE  H12A17089   6.515   4.502  10.470 -1.7054  0.0051  0.2350
  154SAPE  H12B17090   6.603   4.612  10.592 -0.0857  2.2628 -0.3690
  154SAPE   C1117091   6.398   4.679  10.517  0.1472  0.4048  0.5911
  154SAPE  H11A17092   6.312   4.622  10.476 -0.3147  0.8247  0.9592
  154SAPE  H11B17093   6.439   4.739  10.434 -0.6473  0.9469  0.5759
  154SAPE     P17094   6.429   4.884  10.677 -0.2014 -0.0964 -0.2103
  154SAPE   O1317095   6.362   4.944  10.793  0.0294 -0.2943  0.2541
  154SAPE   O1417096   6.570   4.869  10.691 -0.7458  1.0241  0.3432
  154SAPE   O1217097   6.354   4.744  10.635 -0.0154  0.4226 -0.2362
  154SAPE   O1117098   6.410   4.977  10.552 -0.0108 -0.7311 -0.4103
  154SAPE    C117099   6.278   4.983  10.495 -0.8076 -0.1621 -0.4851
  154SAPE    HA17100   6.214   4.892  10.504 -0.7220 -0.4390 -2.2339
  154SAPE    HB17101   6.226   5.074  10.529  0.3216  0.1962  0.3226
  154SAPE    C217102   6.303   4.986  10.340  1.4937  0.3573  0.1303
  154SAPE    HS17103   6.356   4.891  10.315  0.6545 -0.7193  2.2150
  154SAPE   O2117104   6.367   5.111  10.309  0.3735  0.0406  0.3156
  154SAPE   C2117105   6.481   5.097  10.239 -0.0453 -0.0429 -0.2787
  154SAPE   O2217106   6.537   4.990  10.211 -0.4750  0.6069 -0.3846
  154SAPE   C2217107   6.548   5.231  10.209  0.3205  0.3023  0.7710
  154SAPE   H2R17108   6.495   5.310  10.152 -0.1338  1.2241  2.3914
  154SAPE   H2S17109   6.551   5.281  10.308  2.9439  1.8691  0.0100
  154SAPE    C317110   6.171   4.974  10.259 -0.1804  0.1198 -0.0735
  154SAPE    HX17111   6.120   5.071  10.276 -0.0212  0.2365 -0.2583
  154SAPE    HY17112   6.109   4.891  10.300  1.3769 -0.3679  1.4051
  154SAPE   O3117113   6.201   4.961  10.117 -0.2426 -0.0873 -0.1188
  154SAPE   C3117114   6.144   4.860  10.063 -0.4389 -0.3166 -0.1709
  154SAPE   O3217115   6.067   4.779  10.116  0.5293 -0.2588  0.3488
  154SAPE   C3217116   6.188   4.840   9.920  0.2309 -0.1749  0.0686
  154SAPE   H2X17117   6.231   4.738   9.912 -0.7478 -0.7323  1.4600
  154SAPE   H2Y17118   6.260   4.913   9.878  0.3517 -0.8715 -0.9717
  154SAPE   C2317119   6.685   5.215  10.142 -0.3072 -0.1834 -0.5972
  154SAPE   H3R17120   6.665   5.164  10.045 -1.3492 -0.0459 -0.4667
  154SAPE   H3S17121   6.746   5.150  10.207 -1.4862 -0.7535 -0.0228
  154SAPE   C2417122   6.761   5.343  10.121  0.0324 -0.1805  0.5535
  154SAPE   H4R17123   6.706   5.419  10.062  0.6348 -0.9741 -1.1076
  154SAPE   H4S17124   6.830   5.313  10.039 -0.1360 -2.4639  1.1804
  154SAPE   C2517125   6.823   5.399  10.246  0.7773 -0.4300  0.5939
  154SAPE   H5R17126   6.776   5.371  10.341 -1.4765 -0.8972 -0.5621
  154SAPE   C2617127   6.914   5.496  10.264 -0.1006 -0.2860 -0.3274
  154SAPE   H6R17128   6.945   5.527  10.365 -0.0325 -0.0808 -0.4105
  154SAPE   C2717129   6.988   5.570  10.151 -0.3782  0.1755  0.0349
  154SAPE   H7R17130   6.967   5.678  10.167  1.2590  0.4063  0.8059
  154SAPE   H7S17131   6.952   5.531  10.053  0.9496 -2.1276  0.3861
  154SAPE   C2817132   7.136   5.534  10.162  0.0531 -0.7882  0.0646
  154SAPE   H8R17133   7.191   5.574  10.249 -1.7580  0.7374  0.5690
  154SAPE   C2917134   7.223   5.478  10.072  0.7812  0.3823 -0.2321
  154SAPE   H9R17135   7.329   5.471  10.100  0.5408 -1.5872  0.3303
  154SAPE  C21017136   7.194   5.428   9.931  0.4928 -0.0656  0.5376
  154SAPE  H10R17137   7.088   5.456   9.914  1.0761  1.7177 -0.5533
  154SAPE  H10S17138   7.208   5.319   9.922 -0.3009 -0.3819  2.6063
  154SAPE  C21117139   7.272   5.501   9.822  0.4284  0.5225  0.2146
  154SAPE  H11R17140   7.315   5.589   9.871 -0.9944  0.6927  1.2211
  154SAPE  C21217141   7.285   5.473   9.686 -0.0151 -0.6160 -0.1342
  154SAPE  H12R17142   7.341   5.554   9.637  0.4004 -0.3362  0.7760
  154SAPE  C21317143   7.214   5.374   9.600  0.5266 -0.0876 -0.2421
  154SAPE  H13R17144   7.118   5.419   9.567  1.4740  1.1069 -1.4838
  154SAPE  H13S17145   7.197   5.277   9.652 -1.9149  1.2452  1.5843
  154SAPE  C21417146   7.296   5.348   9.476  0.9663  0.0028  0.4367
  154SAPE  H14R17147   7.376   5.273   9.483 -0.0597 -0.9933  2.2191
  154SAPE  C21517148   7.254   5.397   9.358 -0.5605 -0.9653  0.1399
  154SAPE  H15R17149   7.323   5.379   9.274 -0.7073 -2.0663  0.2386
  154SAPE  C21617150   7.138   5.478   9.331 -0.7016 -0.7435  0.1059
  154SAPE  H16R17151   7.147   5.579   9.376 -0.5041  0.1935 -1.9044
  154SAPE  H16S17152   7.042   5.427   9.355 -1.1751 -0.0456 -0.2466
  154SAPE  C21717153   7.139   5.513   9.178 -0.0581  0.4348 -0.2921
  154SAPE  H17R17154   7.164   5.427   9.112 -0.7102  1.7442 -2.3573
  154SAPE  H17S17155   7.222   5.585   9.157 -0.4460  1.4143  1.3444
  154SAPE  C21817156   7.003   5.570   9.136  0.6041  0.0586  0.0102
  154SAPE  H18R17157   6.966   5.659   9.191  0.1433  1.1857 -2.0184
  154SAPE  H18S17158   6.929   5.487   9.144  0.9413 -0.5213 -2.2055
  154SAPE  C21917159   7.009   5.613   8.981 -0.3544 -0.7977  0.9613
  154SAPE  H19R17160   7.058   5.534   8.920  0.0888  0.9989 -1.1351
  154SAPE  H19S17161   7.091   5.689   8.974  1.1799 -2.3419  1.3469
  154SAPE  C22017162   6.874   5.666   8.931 -0.9129 -0.7497  0.0246
  154SAPE  H20R17163   6.802   5.590   8.895 -1.1605  0.5596 -2.5218
  154SAPE  H20S17164   6.888   5.741   8.849 -0.1523 -0.1488  0.6871
  154SAPE  H20T17165   6.835   5.718   9.021  2.4093 -0.0677  1.2352
  154SAPE   C3317166   6.057   4.848   9.835 -0.7855  0.0638  0.0284
  154SAPE   H3X17167   6.006   4.944   9.858  0.5512  0.7704  0.1029
  154SAPE   H3Y17168   5.993   4.757   9.843 -2.1307  0.9323 -0.4716
  154SAPE   C3417169   6.084   4.855   9.686  0.3421 -0.3551  0.3807
  154SAPE   H4X17170   6.098   4.961   9.654  0.7052 -0.0180  1.6183
  154SAPE   H4Y17171   5.987   4.822   9.643  0.4165  0.7464 -0.7009
  154SAPE   C3517172   6.198   4.774   9.621  0.0191  0.8026 -0.3078
  154SAPE   H5X17173   6.201   4.670   9.661  0.5421  1.5874  1.8628
  154SAPE   H5Y17174   6.298   4.810   9.654 -0.1923  1.5147 -0.4402
  154SAPE   C3617175   6.185   4.781   9.469  0.7832  0.0353 -0.0340
  154SAPE   H6X17176   6.168   4.886   9.437 -1.2015 -0.2947 -0.1990
  154SAPE   H6Y17177   6.093   4.723   9.444 -0.9938  2.0866  1.3807
  154SAPE   C3717178   6.298   4.705   9.401 -0.0853 -0.2698 -0.2122
  154SAPE   H7X17179   6.272   4.667   9.300  0.6882  1.6138 -1.1462
  154SAPE   H7Y17180   6.323   4.611   9.456  0.3856 -2.0647 -3.2427
  154SAPE   C3817181   6.413   4.799   9.397 -1.3307  1.1433  0.6382
  154SAPE   H8X17182   6.450   4.817   9.500  2.5539 -1.3700 -0.0941
  154SAPE   H8Y17183   6.381   4.896   9.354 -0.1891  2.1440  1.9725
  154SAPE   C3917184   6.534   4.743   9.319 -0.4859 -0.2702 -0.7203
  154SAPE   H9X17185   6.522   4.744   9.208 -2.4297  0.5232 -0.5521
  154SAPE   H9Y17186   6.565   4.641   9.349  1.8609  0.4734 -0.3738
  154SAPE  C31017187   6.661   4.831   9.331 -0.3724 -0.2427  0.3029
  154SAPE  H10X17188   6.744   4.782   9.277 -1.6006 -1.3596 -0.6366
  154SAPE  H10Y17189   6.677   4.825   9.441  1.3261  3.1991  0.3718
  154SAPE  C31117190   6.653   4.978   9.301 -0.2730 -1.1814  0.3561
  154SAPE  H11X17191   6.575   5.024   9.365  2.2149  0.2142  2.5914
  154SAPE  H11Y17192   6.617   5.000   9.198 -0.4788  1.4520  0.9266
  154SAPE  C31217193   6.788   5.056   9.319  0.1753 -0.2026  0.4090
  154SAPE  H12X17194   6.837   5.024   9.413  0.4820 -2.2266 -0.3971
  154SAPE  H12Y17195   6.772   5.165   9.336 -0.0767 -0.0463 -0.7440
  154SAPE  C31317196   6.898   5.048   9.206 -0.0519  0.4900 -0.5476
  154SAPE  H13X17197   6.844   5.073   9.112  0.4149  0.4338 -0.8341
  154SAPE  H13Y17198   6.923   4.940   9.210 -0.8553  0.3371  1.3759
  154SAPE  C31417199   7.020   5.137   9.214 -0.4244 -0.4211  0.0599
  154SAPE  H14X17200   7.075   5.103   9.305  0.9452 -1.5498 -1.1372
  154SAPE  H14Y17201   6.972   5.235   9.232  0.9454  0.2473  0.1815
  154SAPE  C31517202   7.098   5.133   9.087 -0.1628 -0.1226  0.7014
  154SAPE  H15X17203   7.125   5.037   9.037  2.6184  1.7908 -1.8411
  154SAPE  H15Y17204   7.197   5.179   9.109 -0.7626  1.9353 -0.6134
  154SAPE  C31617205   7.036   5.214   8.966 -0.1475  0.0926 -0.3866
  154SAPE  H16X17206   7.025   5.322   8.987  0.7917 -0.1115  1.3793
  154SAPE  H16Y17207   6.937   5.165   8.954  0.5757 -2.4302  2.4870
  154SAPE  C31717208   7.119   5.199   8.834  0.8606 -0.0037 -0.0771
  154SAPE  H17X17209   7.069   5.247   8.747 -0.9523 -1.5126  0.0886
  154SAPE  H17Y17210   7.135   5.091   8.814  1.1839 -0.1434  0.9194
  154SAPE  C31817211   7.266   5.252   8.845  0.5499  0.1364 -0.5808
  154SAPE  H18X17212   7.267   5.362   8.830  1.1289  0.1452 -0.4986
  154SAPE  H18Y17213   7.326   5.196   8.770 -1.7090 -1.9199 -0.9862
  154SAPE  H18Z17214   7.313   5.240   8.945  2.2912  0.8195 -1.2854
  155SAPE     N17215   5.653   0.394  11.169  0.3602  0.7857 -0.5277
  155SAPE   HN117216   5.598   0.395  11.080  2.2361 -1.5634 -1.8258
  155SAPE   HN217217   5.750   0.369  11.141 -0.1329 -0.9876 -0.7841
  155SAPE   HN317218   5.621   0.310  11.221  2.1533  0.0376 -0.5776
  155SAPE   C1217219   5.656   0.525  11.240  0.4205 -0.0210  0.0512
  155SAPE  H12A17220   5.701   0.515  11.341  0.8167 -1.3060 -0.2327
  155SAPE  H12B17221   5.552   0.562  11.246  0.3172 -0.5181  1.6007
  155SAPE   C1117222   5.726   0.627  11.152  0.0763 -0.8832  0.5913
  155SAPE  H11A17223   5.751   0.712  11.218 -0.7743 -0.8594  0.8992
  155SAPE  H11B17224   5.656   0.677  11.081 -0.2139 -1.0147  0.7795
  155SAPE     P17225   5.904   0.687  10.977 -0.0819  0.4813 -0.4857
  155SAPE   O1317226   5.837   0.816  10.995  0.2912  0.0527  0.8902
  155SAPE   O1417227   6.044   0.685  10.995 -0.4253 -0.1228 -0.4605
  155SAPE   O1217228   5.846   0.582  11.086  0.2289 -0.4460  0.2670
  155SAPE   O1117229   5.857   0.623  10.835 -0.2329  0.0409  0.4135
  155SAPE    C117230   5.732   0.642  10.778  0.7657  0.1607  0.1948
  155SAPE    HA17231   5.665   0.560  10.813 -2.5945  2.7641  0.4239
  155SAPE    HB17232   5.689   0.740  10.810  1.4130 -0.0626  1.8431
  155SAPE    C217233   5.729   0.623  10.624 -0.6038 -0.3502  0.3724
  155SAPE    HS17234   5.822   0.667  10.582  0.3824 -3.1238 -0.5621
  155SAPE   O2117235   5.616   0.686  10.556  0.3986  0.2338  0.1700
  155SAPE   C2117236   5.624   0.813  10.541  0.8966 -0.3893 -0.4938
  155SAPE   O2217237   5.717   0.880  10.577 -0.1626 -0.4658 -0.2854
  155SAPE   C2217238   5.514   0.869  10.447  0.2081 -0.3913  0.5188
  155SAPE   H2R17239   5.447   0.785  10.419  2.5669 -1.5042 -2.2025
  155SAPE   H2S17240   5.466   0.932  10.526  1.0977 -0.0569  0.8096
  155SAPE    C317241   5.735   0.474  10.585  0.3617 -0.6150  0.3477
  155SAPE    HX17242   5.631   0.446  10.614  0.2747  1.1753  1.9477
  155SAPE    HY17243   5.803   0.420  10.654 -0.1066  0.5355  1.7663
  155SAPE   O3117244   5.774   0.455  10.445  0.4990  0.5385  0.5743
  155SAPE   C3117245   5.686   0.392  10.364  0.4909  0.4595  0.8823
  155SAPE   O3217246   5.581   0.342  10.403 -0.1325 -0.2381  0.0406
  155SAPE   C3217247   5.731   0.399  10.223  1.2745  0.2989  0.2127
  155SAPE   H2X17248   5.841   0.402  10.207  1.1351  1.7740 -0.7371
  155SAPE   H2Y17249   5.701   0.501  10.191  0.4443 -0.6081 -2.1740
  155SAPE   C2317250   5.580   0.952  10.333  0.6320 -0.2275 -0.6292
  155SAPE   H3R17251   5.653   1.021  10.379 -0.7637  0.9754 -0.1454
  155SAPE   H3S17252   5.512   1.023  10.280 -0.4846 -1.4513 -0.9013
  155SAPE   C2417253   5.646   0.869  10.222 -0.3266  0.5213 -0.0848
  155SAPE   H4R17254   5.738   0.816  10.257  1.1938  1.8004 -1.9838
  155SAPE   H4S17255   5.691   0.929  10.140  0.6477 -3.0717 -2.4098
  155SAPE   C2517256   5.558   0.768  10.166  0.5034 -0.2329 -0.4359
  155SAPE   H5R17257   5.539   0.691  10.242 -0.2373 -0.5446 -0.9283
  155SAPE   C2617258   5.506   0.759  10.044 -0.0694 -0.7427 -0.0149
  155SAPE   H6R17259   5.443   0.672  10.021  0.5568 -1.3908  0.6401
  155SAPE   C2717260   5.532   0.855   9.929  0.2228 -0.3319  0.1047
  155SAPE   H7R17261   5.627   0.831   9.877 -0.4363 -0.8830 -0.8841
  155SAPE   H7S17262   5.536   0.957   9.972  1.3176  0.6930 -2.2126
  155SAPE   C2817263   5.423   0.852   9.832 -0.2870 -0.3004  0.3046
  155SAPE   H8R17264   5.324   0.845   9.880 -0.1989  0.4833  0.6090
  155SAPE   C2917265   5.431   0.879   9.697  0.1602  0.4323 -0.1081
  155SAPE   H9R17266   5.333   0.891   9.648 -0.7899 -2.7571  0.7460
  155SAPE  C21017267   5.554   0.902   9.618  0.1635 -0.6670 -0.3165
  155SAPE  H10R17268   5.533   0.911   9.509 -3.1097  3.2472  0.3758
  155SAPE  H10S17269   5.626   0.818   9.626 -0.8115 -1.3341  2.4270
  155SAPE  C21117270   5.627   1.032   9.649  0.1886  0.1114  0.5222
  155SAPE  H11R17271   5.620   1.074   9.751  1.8942  0.2071  0.6344
  155SAPE  C21217272   5.701   1.111   9.570 -0.1245  0.6151 -0.6329
  155SAPE  H12R17273   5.762   1.189   9.620  0.2148 -0.5796  0.8977
  155SAPE  C21317274   5.730   1.105   9.427  0.1861  0.3825  0.1845
  155SAPE  H13R17275   5.663   1.178   9.376 -0.7887 -1.1825 -0.8480
  155SAPE  H13S17276   5.713   1.004   9.385  1.8843  0.5155 -0.9202
  155SAPE  C21417277   5.875   1.140   9.396 -0.1756 -0.2523  0.1309
  155SAPE  H14R17278   5.944   1.111   9.477 -0.0858 -1.4308 -0.3541
  155SAPE  C21517279   5.924   1.203   9.285  0.5216 -0.1965  0.8312
  155SAPE  H15R17280   6.021   1.255   9.285 -0.1452  1.2972  4.2095
  155SAPE  C21617281   5.839   1.256   9.171 -0.3651 -1.0623  0.2696
  155SAPE  H16R17282   5.822   1.366   9.168  0.6944 -0.8675  1.1957
  155SAPE  H16S17283   5.740   1.205   9.169 -0.7957 -0.2881  0.9636
  155SAPE  C21717284   5.895   1.212   9.036  0.3063 -0.0352 -0.0675
  155SAPE  H17R17285   5.917   1.103   9.044  0.2516 -0.0583 -0.2204
  155SAPE  H17S17286   5.987   1.273   9.027 -0.0657  0.2691 -2.9521
  155SAPE  C21817287   5.800   1.248   8.916  0.9866 -0.3753 -0.3953
  155SAPE  H18R17288   5.788   1.359   8.910 -0.2365 -0.5548 -1.7499
  155SAPE  H18S17289   5.706   1.190   8.928  1.3169 -0.9157 -0.4030
  155SAPE  C21917290   5.869   1.199   8.797  0.3053  0.4155 -0.2652
  155SAPE  H19R17291   5.861   1.088   8.790 -0.3949  0.5584 -3.9833
  155SAPE  H19S17292   5.978   1.222   8.797  0.2570  0.7414  1.5918
  155SAPE  C22017293   5.793   1.248   8.671 -0.0094  0.3448  0.3319
  155SAPE  H20R17294   5.778   1.357   8.658 -0.5672  0.1279 -1.0076
  155SAPE  H20S17295   5.687   1.216   8.673 -0.5003  1.8026  3.2217
  155SAPE  H20T17296   5.838   1.205   8.579 -0.1312  0.1957  0.3421
  155SAPE   C3317297   5.654   0.299  10.127  0.1050 -0.2699  0.0269
  155SAPE   H3X17298   5.545   0.295  10.147  0.1621  0.1226  0.4383
  155SAPE   H3Y17299   5.706   0.202  10.139 -1.3072 -0.9685  0.7357
  155SAPE   C3417300   5.677   0.332   9.980  0.0776  1.0184 -1.2782
  155SAPE   H4X17301   5.781   0.363   9.958  0.9300  0.7042  1.8522
  155SAPE   H4Y17302   5.599   0.411   9.970  0.7776  1.7483 -1.0359
  155SAPE   C3517303   5.631   0.212   9.891 -0.3857 -0.2237  0.1525
  155SAPE   H5X17304   5.538   0.163   9.928  0.6059 -2.2651  0.1132
  155SAPE   H5Y17305   5.714   0.138   9.894  0.3625  0.5986  0.3399
  155SAPE   C3617306   5.609   0.268   9.747  0.3773  0.1103 -0.8634
  155SAPE   H6X17307   5.547   0.360   9.748  0.8973  0.4953 -2.3026
  155SAPE   H6Y17308   5.552   0.190   9.693  0.4458 -1.9824  1.8181
  155SAPE   C3717309   5.739   0.316   9.678 -1.3258 -0.0809  0.3601
  155SAPE   H7X17310   5.806   0.231   9.656  0.1806  0.4142  2.7173
  155SAPE   H7Y17311   5.791   0.380   9.753  1.2521 -0.9178 -0.6124
  155SAPE   C3817312   5.718   0.391   9.543 -0.5163 -0.6105 -0.7017
  155SAPE   H8X17313   5.808   0.397   9.479 -0.6977  3.5560 -0.8367
  155SAPE   H8Y17314   5.688   0.493   9.574  1.8372 -0.4742  1.3826
  155SAPE   C3917315   5.611   0.324   9.459  0.4303 -0.0136  0.4097
  155SAPE   H9X17316   5.516   0.296   9.509 -0.6271  1.6210 -0.5876
  155SAPE   H9Y17317   5.645   0.223   9.427 -0.5506  0.3083 -1.8542
  155SAPE  C31017318   5.584   0.401   9.323 -0.8685 -0.2314 -0.3769
  155SAPE  H10X17319   5.514   0.343   9.259 -0.8752 -0.1334 -0.4570
  155SAPE  H10Y17320   5.682   0.395   9.272 -0.3223  0.9049  0.5084
  155SAPE  C31117321   5.534   0.542   9.336 -0.6332 -0.2924  0.5218
  155SAPE  H11X17322   5.592   0.604   9.407 -1.9854  3.0653 -1.0389
  155SAPE  H11Y17323   5.430   0.542   9.376 -0.6571  1.8548  0.6163
  155SAPE  C31217324   5.532   0.627   9.205  0.4028 -0.6752 -0.2772
  155SAPE  H12X17325   5.450   0.594   9.138  0.7253 -0.5386 -0.7446
  155SAPE  H12Y17326   5.624   0.605   9.146 -0.3027 -0.3236 -1.5360
  155SAPE  C31317327   5.520   0.781   9.222  0.4563  0.0917 -0.3760
  155SAPE  H13X17328   5.561   0.822   9.127  2.6989 -2.7542 -0.7916
  155SAPE  H13Y17329   5.600   0.810   9.293  0.8171 -1.8057  0.0537
  155SAPE  C31417330   5.385   0.828   9.273  0.2386  0.0288  1.0059
  155SAPE  H14X17331   5.389   0.937   9.295 -0.6579 -0.0655  1.7196
  155SAPE  H14Y17332   5.361   0.775   9.368  1.8037 -0.7778  0.9857
  155SAPE  C31517333   5.272   0.797   9.166  0.5824 -0.0924 -0.3233
  155SAPE  H15X17334   5.255   0.687   9.163  2.3387 -0.4621  1.3513
  155SAPE  H15Y17335   5.310   0.844   9.073 -0.6613  0.3333 -0.6381
  155SAPE  C31617336   5.136   0.855   9.208 -0.3889 -0.1553  0.0588
  155SAPE  H16X17337   5.126   0.965   9.210 -0.2368  0.0085 -2.8713
  155SAPE  H16Y17338   5.111   0.811   9.307 -0.0038  0.8460  0.6071
  155SAPE  C31717339   5.013   0.803   9.119 -0.2933  0.1078 -0.1703
  155SAPE  H17X17340   4.916   0.852   9.143 -2.2883 -2.7661 -1.6811
  155SAPE  H17Y17341   5.005   0.692   9.131  0.0554  0.1102  0.1012
  155SAPE  C31817342   5.031   0.833   8.969 -0.2603 -0.0010 -0.1748
  155SAPE  H18X17343   4.940   0.805   8.911 -0.2307 -0.2750 -0.0895
  155SAPE  H18Y17344   5.119   0.777   8.932  1.5236  2.2060  0.4947
  155SAPE  H18Z17345   5.045   0.942   8.957 -0.5117 -0.0597 -1.1083
  156SAPE     N17346   4.979   4.693  10.659  0.1691 -0.6854  0.4065
  156SAPE   HN117347   5.070   4.738  10.679 -0.4157  0.4925  0.5484
  156SAPE   HN217348   4.919   4.737  10.732 -0.5483  1.9917 -1.6134
  156SAPE   HN317349   4.977   4.590  10.672 -1.3329 -0.6367  0.8150
  156SAPE   C1217350   4.940   4.728  10.517 -0.2181 -0.0917  0.6368
  156SAPE  H12A17351   4.912   4.835  10.507 -0.7421 -0.4461 -3.4997
  156SAPE  H12B17352   4.856   4.660  10.492 -1.9703  1.9242  0.8250
  156SAPE   C1117353   5.058   4.681  10.427  0.5128  0.1413  0.5255
  156SAPE  H11A17354   5.041   4.696  10.319  1.1826  0.5877  0.4778
  156SAPE  H11B17355   5.055   4.571  10.446 -0.0062  0.2339  1.0138
  156SAPE     P17356   5.245   4.869  10.430  0.4689 -0.2038  0.4017
  156SAPE   O1317357   5.149   4.977  10.466 -0.5352  0.4436 -0.5850
  156SAPE   O1417358   5.385   4.889  10.471 -0.1143 -0.1762 -0.0143
  156SAPE   O1217359   5.184   4.725  10.468 -0.1378 -0.2216 -0.4688
  156SAPE   O1117360   5.246   4.847  10.273  0.6833  0.6103  0.3227
  156SAPE    C117361   5.234   4.952  10.185 -0.0990  0.2112  0.7332
  156SAPE    HA17362   5.268   5.045  10.237  1.3875 -1.2267  2.4844
  156SAPE    HB17363   5.316   4.954  10.110  0.7445  2.2449  1.6187
  156SAPE    C217364   5.097   4.962  10.119  0.0069 -0.7791 -0.9737
  156SAPE    HS17365   5.020   4.944  10.198 -1.2349 -1.8483 -2.3614
  156SAPE   O2117366   5.094   4.860  10.016 -0.0828  0.0722 -0.2882
  156SAPE   C2117367   4.978   4.808   9.980 -0.3205 -0.7958  0.6897
  156SAPE   O2217368   4.871   4.832  10.037 -0.2679  0.3231 -0.3806
  156SAPE   C2217369   4.990   4.711   9.868  0.0123  0.2886 -0.0070
  156SAPE   H2R17370   4.984   4.773   9.776 -0.1250 -0.9291 -0.8456
  156SAPE   H2S17371   5.086   4.657   9.877 -1.3637 -2.5131 -1.1436
  156SAPE    C317372   5.065   5.091  10.044 -0.1150 -0.1559  0.1045
  156SAPE    HX17373   5.062   5.171  10.121 -0.7047  0.3285 -0.4174
  156SAPE    HY17374   4.960   5.082  10.010  0.1144  0.3428 -0.7451
  156SAPE   O3117375   5.160   5.110   9.942  0.4131  0.2085  0.5108
  156SAPE   C3117376   5.116   5.096   9.812  0.0098 -1.1620  0.4391
  156SAPE   O3217377   5.004   5.062   9.779  0.5005 -0.2327 -0.0937
  156SAPE   C3217378   5.236   5.143   9.725 -0.5643  0.6849 -0.7100
  156SAPE   H2X17379   5.325   5.098   9.773  0.3415  1.6209 -1.4523
  156SAPE   H2Y17380   5.261   5.252   9.729  0.7177  0.4716 -2.0067
  156SAPE   C2317381   4.898   4.582   9.889  0.0446  0.3859  0.6589
  156SAPE   H3R17382   4.791   4.608   9.899  0.1043  1.7152 -1.5273
  156SAPE   H3S17383   4.925   4.533   9.985 -1.2772 -1.3972  0.1636
  156SAPE   C2417384   4.926   4.487   9.772 -1.8216  0.2699  0.0980
  156SAPE   H4R17385   4.877   4.397   9.816 -1.5712  0.7922  1.5016
  156SAPE   H4S17386   5.034   4.465   9.759 -2.2340 -1.5974 -0.5204
  156SAPE   C2517387   4.864   4.515   9.643 -0.0814  0.5136  0.3659
  156SAPE   H5R17388   4.754   4.514   9.649 -0.0211 -0.2991  1.8281
  156SAPE   C2617389   4.917   4.548   9.517  0.2218 -0.4725 -0.2605
  156SAPE   H6R17390   4.845   4.569   9.437 -0.0943 -2.5223 -0.5702
  156SAPE   C2717391   5.067   4.569   9.484  0.1940 -0.2968 -0.4189
  156SAPE   H7R17392   5.107   4.487   9.421 -0.1775 -1.1043  0.3780
  156SAPE   H7S17393   5.125   4.571   9.579 -0.3875 -2.9685  0.0715
  156SAPE   C2817394   5.087   4.703   9.423  0.3275  0.0262 -1.1003
  156SAPE   H8R17395   5.092   4.791   9.489  0.8389 -0.9386  0.2009
  156SAPE   C2917396   5.091   4.735   9.295 -0.2754  0.0995 -0.4207
  156SAPE   H9R17397   5.106   4.841   9.273 -1.4832  0.6644  1.2370
  156SAPE  C21017398   5.070   4.657   9.173  0.3043 -0.4351 -0.6090
  156SAPE  H10R17399   5.105   4.555   9.200  2.9323  0.5874  0.1147
  156SAPE  H10S17400   5.143   4.693   9.098  1.6955  0.5059  1.1405
  156SAPE  C21117401   4.930   4.651   9.111 -0.1418  0.6617  0.2534
  156SAPE  H11R17402   4.854   4.588   9.161 -3.0529  1.7582 -2.4836
  156SAPE  C21217403   4.891   4.713   9.000  0.3658  0.0270  0.0668
  156SAPE  H12R17404   4.791   4.696   8.958  0.0890 -2.3923  1.5071
  156SAPE  C21317405   4.980   4.808   8.922  0.0578 -0.5494 -0.4448
  156SAPE  H13R17406   5.059   4.755   8.865  1.0580 -0.0051  0.4029
  156SAPE  H13S17407   5.051   4.859   8.990 -0.1348 -1.4937  0.5028
  156SAPE  C21417408   4.902   4.906   8.836  0.1192  0.1210  0.2111
  156SAPE  H14R17409   4.867   4.993   8.894  1.4782 -1.1151  3.0946
  156SAPE  C21517410   4.877   4.893   8.701 -0.4752  0.3188 -1.0843
  156SAPE  H15R17411   4.845   4.989   8.659 -0.6023  1.5989  1.7336
  156SAPE  C21617412   4.921   4.780   8.617  0.7456  0.0617  0.8344
  156SAPE  H16R17413   5.026   4.750   8.637  1.1088  0.3936 -0.4938
  156SAPE  H16S17414   4.926   4.813   8.511  1.4416 -0.9152  0.5454
  156SAPE  C21717415   4.815   4.665   8.623 -0.0589  0.1076 -0.0677
  156SAPE  H17R17416   4.787   4.642   8.728  1.5176 -0.0633  0.3459
  156SAPE  H17S17417   4.866   4.572   8.589  0.3826  0.3748 -0.1464
  156SAPE  C21817418   4.674   4.692   8.557 -0.6734  0.2223  0.1582
  156SAPE  H18R17419   4.696   4.706   8.449  1.2545 -0.9344  0.3527
  156SAPE  H18S17420   4.621   4.785   8.583 -0.1157  0.9749 -1.2834
  156SAPE  C21917421   4.580   4.575   8.582  0.2010 -0.6394  0.8068
  156SAPE  H19R17422   4.536   4.605   8.680  0.7851  1.9123  0.3532
  156SAPE  H19S17423   4.630   4.476   8.586 -2.4571 -2.0914  0.1388
  156SAPE  C22017424   4.474   4.560   8.476 -0.0523  0.4385 -0.9892
  156SAPE  H20R17425   4.418   4.465   8.484  0.9268 -0.0482  0.5583
  156SAPE  H20S17426   4.528   4.563   8.378  1.2573 -1.4093 -0.3865
  156SAPE  H20T17427   4.398   4.641   8.474  0.8249  1.3104 -3.0472
  156SAPE   C3317428   5.231   5.094   9.581 -0.2194 -0.0143 -0.1885
  156SAPE   H3X17429   5.152   5.134   9.514  0.6270 -1.5138 -2.1956
  156SAPE   H3Y17430   5.216   4.986   9.599  1.5509 -0.0540  1.3713
  156SAPE   C3417431   5.364   5.122   9.512 -0.0746 -0.2688 -0.5228
  156SAPE   H4X17432   5.436   5.091   9.591 -2.3914  0.2669  1.9568
  156SAPE   H4Y17433   5.389   5.230   9.498  0.1992 -0.4758 -1.6842
  156SAPE   C3517434   5.400   5.061   9.374 -0.5792 -0.5029  0.1005
  156SAPE   H5X17435   5.389   4.951   9.379  0.0355 -0.5779 -0.0568
  156SAPE   H5Y17436   5.501   5.083   9.333 -1.2178 -1.4188 -2.1217
  156SAPE   C3617437   5.312   5.110   9.254  0.4689  0.0311  0.1714
  156SAPE   H6X17438   5.337   5.216   9.235 -2.0736  0.5703 -0.4762
  156SAPE   H6Y17439   5.210   5.097   9.296  0.4567 -1.7803 -0.3246
  156SAPE   C3717440   5.333   5.027   9.128  0.2404 -0.2250 -0.0773
  156SAPE   H7X17441   5.258   5.066   9.056 -0.4551  0.7610  1.1456
  156SAPE   H7Y17442   5.314   4.918   9.131  2.7278 -0.8934 -3.1090
  156SAPE   C3817443   5.477   5.051   9.079 -0.2478 -0.1987 -0.4090
  156SAPE   H8X17444   5.547   4.987   9.137 -0.2559 -0.1733 -0.3714
  156SAPE   H8Y17445   5.501   5.158   9.098  0.2359 -0.1890 -1.0243
  156SAPE   C3917446   5.504   5.031   8.924  0.0678 -0.4883 -1.1650
  156SAPE   H9X17447   5.611   5.005   8.910  0.4429  0.3176  0.0485
  156SAPE   H9Y17448   5.473   5.126   8.874  0.1933  0.6049  0.7653
  156SAPE  C31017449   5.421   4.922   8.851  0.2522  0.7787  0.8192
  156SAPE  H10X17450   5.441   4.933   8.742  0.7032 -0.3102  0.7820
  156SAPE  H10Y17451   5.310   4.928   8.858 -0.3649 -3.0103 -2.2621
  156SAPE  C31117452   5.453   4.781   8.892 -0.1128  1.1135 -0.3671
  156SAPE  H11X17453   5.495   4.771   8.994  4.8993  1.5214 -2.0699
  156SAPE  H11Y17454   5.539   4.742   8.833 -0.1592  0.5454 -0.0660
  156SAPE  C31217455   5.350   4.673   8.860  0.2781  0.4804  0.2994
  156SAPE  H12X17456   5.253   4.700   8.905 -1.5939 -4.3582 -0.2514
  156SAPE  H12Y17457   5.380   4.575   8.902 -0.2324 -0.8085 -2.1819
  156SAPE  C31317458   5.340   4.647   8.706  0.4256 -0.2021  0.6931
  156SAPE  H13X17459   5.441   4.630   8.662 -0.3148  1.7031 -1.9728
  156SAPE  H13Y17460   5.313   4.741   8.653  1.7620 -1.3918 -2.2888
  156SAPE  C31417461   5.242   4.535   8.676 -0.1453  0.5293 -0.2796
  156SAPE  H14X17462   5.144   4.574   8.710 -1.7944 -2.0683 -1.7335
  156SAPE  H14Y17463   5.273   4.441   8.728  0.8547  0.2561 -1.3257
  156SAPE  C31517464   5.215   4.513   8.524 -1.0343  0.4410 -0.2695
  156SAPE  H15X17465   5.303   4.469   8.471  0.1214  1.0458  1.0879
  156SAPE  H15Y17466   5.194   4.608   8.470 -1.2193  1.5332  1.6167
  156SAPE  C31617467   5.095   4.420   8.494 -0.9824 -0.4114 -0.1904
  156SAPE  H16X17468   5.020   4.437   8.575 -0.1261 -2.5361  1.1373
  156SAPE  H16Y17469   5.127   4.314   8.497  0.7547 -0.1152 -3.8312
  156SAPE  C31717470   5.033   4.444   8.352  0.2843  0.9119 -0.7793
  156SAPE  H17X17471   5.005   4.550   8.337  0.6684  0.8202 -2.4043
  156SAPE  H17Y17472   4.941   4.381   8.350 -0.6865  2.1673  1.1112
  156SAPE  C31817473   5.132   4.418   8.239  0.9207  0.0341  0.3013
  156SAPE  H18X17474   5.208   4.498   8.245  1.6746 -0.7588  3.8586
  156SAPE  H18Y17475   5.090   4.441   8.139  0.2225  1.3009  0.8549
  156SAPE  H18Z17476   5.184   4.320   8.238  1.0705  0.1124  0.4211
  157SAPE     N17477   3.069   4.066  10.546  0.2934 -0.0172  0.3336
  157SAPE   HN117478   3.142   4.138  10.531 -1.4314  1.2418 -3.0781
  157SAPE   HN217479   2.982   4.120  10.531  1.3050  1.7523  0.5823
  157SAPE   HN317480   3.062   4.037  10.645 -0.2377  0.4811  0.4467
  157SAPE   C1217481   3.106   3.947  10.464 -0.4572  0.6078 -0.7522
  157SAPE  H12A17482   3.098   3.986  10.360  2.3713  0.0727 -1.2547
  157SAPE  H12B17483   3.023   3.875  10.480 -0.8446  1.3523  0.7847
  157SAPE   C1117484   3.252   3.903  10.495 -0.1538 -0.0274  0.4679
  157SAPE  H11A17485   3.317   3.989  10.467 -0.9045  1.0556  1.9510
  157SAPE  H11B17486   3.274   3.812  10.435 -1.0029 -1.1298  1.7768
  157SAPE     P17487   3.400   3.815  10.692  0.1456 -0.0098  0.3845
  157SAPE   O1317488   3.503   3.920  10.704  0.1445  0.3652  0.0619
  157SAPE   O1417489   3.372   3.742  10.814 -0.0480  0.0356 -0.9408
  157SAPE   O1217490   3.263   3.878  10.636 -0.6677  0.4441  1.0344
  157SAPE   O1117491   3.448   3.717  10.572  1.0095  0.2611  0.4856
  157SAPE    C117492   3.387   3.586  10.555  0.4503 -0.6577  0.4007
  157SAPE    HA17493   3.425   3.518  10.635 -0.3854  0.3396  1.6723
  157SAPE    HB17494   3.277   3.594  10.563  0.3493 -1.0804 -0.3975
  157SAPE    C217495   3.415   3.518  10.420 -0.2739 -0.0870  0.4737
  157SAPE    HS17496   3.524   3.495  10.414 -0.2604 -0.1036  0.7889
  157SAPE   O2117497   3.366   3.597  10.305  0.4280  0.2912  0.1848
  157SAPE   C2117498   3.458   3.629  10.214 -0.6636  0.1091 -0.2791
  157SAPE   O2217499   3.578   3.596  10.224  0.1852  0.5082  0.1699
  157SAPE   C2217500   3.393   3.709  10.098  0.2774  0.3142 -0.2757
  157SAPE   H2R17501   3.343   3.798  10.142 -1.6173 -1.5527  1.5578
  157SAPE   H2S17502   3.469   3.753  10.029  0.9400  2.8376  1.9134
  157SAPE    C317503   3.328   3.389  10.413 -0.2504 -0.5829  0.4579
  157SAPE    HX17504   3.222   3.418  10.428 -0.6287 -2.4340  1.8399
  157SAPE    HY17505   3.351   3.320  10.497 -0.6680 -1.5772 -0.2220
  157SAPE   O3117506   3.352   3.325  10.283 -0.0885 -0.0636 -0.2797
  157SAPE   C3117507   3.443   3.234  10.286 -0.5385 -0.1804  0.6139
  157SAPE   O3217508   3.506   3.198  10.383  0.1950  0.3051  0.3873
  157SAPE   C3217509   3.481   3.202  10.141  0.4640 -0.4625  0.0108
  157SAPE   H2X17510   3.591   3.209  10.129  0.1847  1.0470 -2.1250
  157SAPE   H2Y17511   3.441   3.280  10.074 -0.1089 -0.4224  0.3934
  157SAPE   C2317512   3.288   3.627  10.013  0.2323  0.1598 -0.9747
  157SAPE   H3R17513   3.228   3.706   9.965 -2.6576 -1.4602 -0.2505
  157SAPE   H3S17514   3.218   3.579  10.084  2.7966 -2.0578  0.2730
  157SAPE   C2417515   3.354   3.518   9.920  0.3911  0.0174 -0.6610
  157SAPE   H4R17516   3.274   3.457   9.872  1.1504 -0.0378 -1.8924
  157SAPE   H4S17517   3.425   3.449   9.969 -0.2930 -0.1230  0.1562
  157SAPE   C2517518   3.429   3.597   9.812 -0.5528  0.1821 -0.2444
  157SAPE   H5R17519   3.529   3.630   9.845 -1.5855  1.5931  1.6634
  157SAPE   C2617520   3.382   3.617   9.685 -0.5407 -0.3321 -0.8275
  157SAPE   H6R17521   3.446   3.655   9.604 -0.3413 -1.7433 -1.3598
  157SAPE   C2717522   3.249   3.578   9.640 -0.6136  0.2395 -0.6929
  157SAPE   H7R17523   3.179   3.583   9.726  1.1652  1.3517  0.7601
  157SAPE   H7S17524   3.253   3.472   9.606  2.9568  0.0687 -0.1920
  157SAPE   C2817525   3.224   3.681   9.536 -0.3335 -0.1004  0.3530
  157SAPE   H8R17526   3.178   3.773   9.575  0.1240  1.2522 -2.0957
  157SAPE   C2917527   3.251   3.666   9.407 -0.2854 -0.2845  0.5622
  157SAPE   H9R17528   3.223   3.753   9.346  0.7472 -1.3643 -1.5759
  157SAPE  C21017529   3.306   3.549   9.332  0.1648  0.5050 -0.1952
  157SAPE  H10R17530   3.279   3.544   9.224  3.5709  0.3094 -1.1497
  157SAPE  H10S17531   3.277   3.453   9.380 -0.0995  0.3371 -0.6827
  157SAPE  C21117532   3.456   3.548   9.324  0.8017  0.5990 -0.7224
  157SAPE  H11R17533   3.503   3.502   9.412 -0.4739  3.2512  1.4873
  157SAPE  C21217534   3.527   3.592   9.224  0.2168 -0.2640 -0.1118
  157SAPE  H12R17535   3.636   3.585   9.232  0.2700  0.8491  0.3958
  157SAPE  C21317536   3.472   3.658   9.099  0.0761 -0.5725 -0.1885
  157SAPE  H13R17537   3.537   3.744   9.074  0.3906 -0.0316  2.2528
  157SAPE  H13S17538   3.376   3.712   9.115  0.1935  0.0427 -1.4713
  157SAPE  C21417539   3.451   3.583   8.977 -0.1588  0.0461 -0.0346
  157SAPE  H14R17540   3.452   3.473   8.980  1.5246 -0.0146 -1.5122
  157SAPE  C21517541   3.447   3.633   8.851  0.1311  0.2683  0.4118
  157SAPE  H15R17542   3.446   3.561   8.768 -1.4222 -0.3671  0.9470
  157SAPE  C21617543   3.458   3.775   8.802 -0.3291  0.1450 -0.7322
  157SAPE  H16R17544   3.567   3.792   8.783 -0.5916  0.2791 -2.2464
  157SAPE  H16S17545   3.414   3.846   8.874  0.0562  0.1016 -0.4507
  157SAPE  C21717546   3.409   3.813   8.658  0.3654 -0.5966  0.2575
  157SAPE  H17R17547   3.439   3.729   8.592  0.1201  0.4384 -1.2263
  157SAPE  H17S17548   3.473   3.899   8.627  0.0313  0.1782  1.6206
  157SAPE  C21817549   3.262   3.843   8.648  0.2121 -0.2739  0.2572
  157SAPE  H18R17550   3.231   3.886   8.550 -1.8049 -0.5724  0.7134
  157SAPE  H18S17551   3.241   3.914   8.731 -0.6201 -1.0320  0.7042
  157SAPE  C21917552   3.187   3.716   8.654 -0.1663 -0.6916  0.1903
  157SAPE  H19R17553   3.182   3.677   8.758  0.9283  2.7129  1.6822
  157SAPE  H19S17554   3.242   3.636   8.600 -0.5682 -0.0401 -1.2104
  157SAPE  C22017555   3.040   3.725   8.592  0.3094  0.1940  0.1788
  157SAPE  H20R17556   3.011   3.636   8.532  0.8104 -0.2433  0.5853
  157SAPE  H20S17557   3.032   3.806   8.517  2.0389  1.1512  0.9744
  157SAPE  H20T17558   2.964   3.750   8.670 -0.0952  0.5898 -0.3347
  157SAPE   C3317559   3.426   3.069  10.086  0.5565 -0.0467  0.2833
  157SAPE   H3X17560   3.317   3.069  10.105  0.6263  1.1230  0.7548
  157SAPE   H3Y17561   3.469   2.984  10.144 -0.3893 -1.6304 -1.2327
  157SAPE   C3417562   3.461   3.051   9.938 -0.1508  0.4677  0.1696
  157SAPE   H4X17563   3.405   3.126   9.879  0.5569  0.1708 -0.9056
  157SAPE   H4Y17564   3.420   2.951   9.909 -0.9502  0.9506 -0.3999
  157SAPE   C3517565   3.610   3.075   9.902 -1.1528  0.0181  1.0568
  157SAPE   H5X17566   3.674   3.031   9.981 -0.8976 -0.2993  0.6776
  157SAPE   H5Y17567   3.639   3.182   9.888 -1.3338 -0.1520 -1.0040
  157SAPE   C3617568   3.646   3.022   9.761  0.1846 -0.1630 -0.3711
  157SAPE   H6X17569   3.613   2.916   9.748  1.5459 -0.4311 -2.0634
  157SAPE   H6Y17570   3.756   3.016   9.752  0.4759  0.6703  1.9129
  157SAPE   C3717571   3.590   3.108   9.648  0.3837 -0.3768 -0.5030
  157SAPE   H7X17572   3.612   3.215   9.670 -1.7838 -0.3571  2.1350
  157SAPE   H7Y17573   3.480   3.094   9.643  0.2164  0.7412 -0.3555
  157SAPE   C3817574   3.648   3.061   9.514  0.1018  0.0068  0.0302
  157SAPE   H8X17575   3.617   2.958   9.487 -0.2727  0.0702  0.2174
  157SAPE   H8Y17576   3.758   3.054   9.529  0.0231 -0.9407  0.2301
  157SAPE   C3917577   3.603   3.146   9.392 -0.2879  0.1814 -0.3823
  157SAPE   H9X17578   3.627   3.252   9.414 -1.4010  0.8273 -2.0412
  157SAPE   H9Y17579   3.495   3.149   9.368 -0.0093  0.9220 -1.6800
  157SAPE  C31017580   3.669   3.110   9.262 -0.9150  0.0446  0.1504
  157SAPE  H10X17581   3.648   3.009   9.219  1.4603 -1.2141  1.6694
  157SAPE  H10Y17582   3.777   3.109   9.289 -0.8917  1.3098  0.1522
  157SAPE  C31117583   3.640   3.207   9.149  0.3729  0.0575  0.5069
  157SAPE  H11X17584   3.667   3.310   9.182 -1.7409  0.9250 -0.3160
  157SAPE  H11Y17585   3.534   3.195   9.118  0.2557  0.4294  0.7481
  157SAPE  C31217586   3.717   3.184   9.019  0.6222  0.3545 -0.2684
  157SAPE  H12X17587   3.726   3.075   9.002 -0.1433 -0.0659  1.8126
  157SAPE  H12Y17588   3.818   3.228   9.034  0.6431  0.5448 -0.9301
  157SAPE  C31317589   3.667   3.252   8.891  0.0836  0.0447  0.4195
  157SAPE  H13X17590   3.741   3.258   8.807 -1.2180 -0.3611 -0.8031
  157SAPE  H13Y17591   3.655   3.362   8.904  1.4102  0.3553 -0.7218
  157SAPE  C31417592   3.542   3.194   8.828  0.6968 -0.1549 -0.9595
  157SAPE  H14X17593   3.512   3.271   8.754 -0.6103  0.4981  0.2111
  157SAPE  H14Y17594   3.461   3.182   8.902 -1.9595  1.4559 -3.3930
  157SAPE  C31517595   3.566   3.064   8.756  0.3884  0.5930  0.3696
  157SAPE  H15X17596   3.628   2.989   8.809  0.0397  0.0373  0.0000
  157SAPE  H15Y17597   3.633   3.068   8.667 -2.6287 -2.1699 -2.3208
  157SAPE  C31617598   3.437   3.001   8.719  0.1158 -0.1659 -0.5252
  157SAPE  H16X17599   3.362   3.029   8.796  2.0210  0.8468  1.0453
  157SAPE  H16Y17600   3.454   2.891   8.721  1.0055 -0.0196  0.7349
  157SAPE  C31717601   3.373   3.038   8.582 -0.0923  0.3490 -0.0402
  157SAPE  H17X17602   3.434   2.993   8.500  1.4449 -2.3449  2.3745
  157SAPE  H17Y17603   3.373   3.145   8.551 -1.4185 -0.2217 -2.2285
  157SAPE  C31817604   3.225   3.006   8.567 -0.3123  0.0364  0.0726
  157SAPE  H18X17605   3.228   2.897   8.546  1.1307 -0.0610  0.6768
  157SAPE  H18Y17606   3.172   3.049   8.479 -0.9469 -4.4329 -2.0020
  157SAPE  H18Z17607   3.165   3.042   8.654  0.9972 -0.6381  1.2772
  158SAPE     N17608   3.468   4.990  10.406  0.2822  0.1158 -0.0430
  158SAPE   HN117609   3.391   5.050  10.372  0.1116 -1.1448 -2.0901
  158SAPE   HN217610   3.486   4.913  10.338  0.6882  0.5110 -0.3912
  158SAPE   HN317611   3.427   4.934  10.483  1.1141 -0.9171 -0.3144
  158SAPE   C1217612   3.600   5.058  10.452 -0.1423  0.3544 -0.0837
  158SAPE  H12A17613   3.564   5.149  10.505  1.4333  0.2076  1.3349
  158SAPE  H12B17614   3.647   5.096  10.360 -0.3210  0.5796 -0.0828
  158SAPE   C1117615   3.673   4.970  10.551 -0.5654 -0.6117 -0.0467
  158SAPE  H11A17616   3.708   4.880  10.496  3.3111  0.5871  0.2037
  158SAPE  H11B17617   3.600   4.933  10.626 -2.0004 -2.2217 -2.1064
  158SAPE     P17618   3.915   5.050  10.546  0.0755  0.2043  0.0425
  158SAPE   O1317619   4.000   5.160  10.605  0.6359  0.5736  0.2840
  158SAPE   O1417620   3.970   4.910  10.555  0.0124  0.0897  0.1600
  158SAPE   O1217621   3.774   5.048  10.612 -0.2707  0.3676 -0.6846
  158SAPE   O1117622   3.888   5.082  10.390  0.2705  0.1903  0.2397
  158SAPE    C117623   3.986   5.131  10.303  0.0456  0.2430 -0.3430
  158SAPE    HA17624   4.087   5.100  10.337 -0.5169 -0.0177  1.1714
  158SAPE    HB17625   3.965   5.082  10.205 -1.9248 -4.7600  2.2151
  158SAPE    C217626   3.975   5.281  10.293  0.1502 -0.6256  0.1274
  158SAPE    HS17627   3.973   5.315  10.399  1.9654  0.8423 -0.2533
  158SAPE   O2117628   3.851   5.311  10.229  0.3608 -0.6086 -0.2195
  158SAPE   C2117629   3.791   5.425  10.258  0.2871 -0.1698  0.0469
  158SAPE   O2217630   3.813   5.505  10.350 -0.0482 -0.1613 -0.3806
  158SAPE   C2217631   3.676   5.451  10.167  0.6582  1.0301  0.0506
  158SAPE   H2R17632   3.676   5.361  10.102  1.1680  0.4776  0.7904
  158SAPE   H2S17633   3.586   5.437  10.230  0.2079  0.4663 -0.7070
  158SAPE    C317634   4.100   5.348  10.237 -1.0145 -0.1192 -0.1545
  158SAPE    HX17635   4.124   5.304  10.138  0.9022 -0.5880  0.4802
  158SAPE    HY17636   4.178   5.317  10.309 -0.0481 -0.2735 -1.2343
  158SAPE   O3117637   4.087   5.494  10.236 -0.2544 -0.0303 -0.2030
  158SAPE   C3117638   4.194   5.568  10.191  0.3815  0.1318  0.3650
  158SAPE   O3217639   4.302   5.520  10.159 -0.5285  0.3718  0.2183
  158SAPE   C3217640   4.157   5.715  10.187  0.2315  0.3472  0.0389
  158SAPE   H2X17641   4.176   5.742  10.293  0.6621 -1.7893  0.5530
  158SAPE   H2Y17642   4.051   5.724  10.157  0.2522  1.1097  0.1661
  158SAPE   C2317643   3.664   5.586  10.095 -0.0580 -0.0942 -0.2326
  158SAPE   H3R17644   3.646   5.660  10.177 -1.9760 -0.5383 -0.2102
  158SAPE   H3S17645   3.572   5.582  10.033 -0.2031  1.2197 -0.1420
  158SAPE   C2417646   3.780   5.631  10.011 -0.0827  0.5940 -0.5200
  158SAPE   H4R17647   3.874   5.636  10.069 -0.0601 -0.3572 -0.4464
  158SAPE   H4S17648   3.767   5.735   9.976 -0.0881  0.8787  0.3076
  158SAPE   C2517649   3.821   5.544   9.896  0.6264 -0.2571  0.2302
  158SAPE   H5R17650   3.854   5.445   9.928 -0.4566 -0.3557  1.1218
  158SAPE   C2617651   3.830   5.571   9.763 -0.4485 -0.3283  0.4626
  158SAPE   H6R17652   3.869   5.490   9.699  0.4732  3.3807 -4.1937
  158SAPE   C2717653   3.809   5.697   9.688 -0.0496  0.3545  0.4135
  158SAPE   H7R17654   3.905   5.731   9.643  0.7249 -0.5247  1.3637
  158SAPE   H7S17655   3.774   5.773   9.761 -0.8079 -2.4133  3.1284
  158SAPE   C2817656   3.705   5.679   9.575 -0.4081 -0.4917 -0.7525
  158SAPE   H8R17657   3.614   5.640   9.622 -0.3469  2.3172  2.0221
  158SAPE   C2917658   3.715   5.708   9.443  0.2216 -0.0580  0.0171
  158SAPE   H9R17659   3.634   5.671   9.379 -1.7676  2.3396  0.9789
  158SAPE  C21017660   3.836   5.768   9.373 -0.5441  0.9532 -0.1073
  158SAPE  H10R17661   3.889   5.692   9.312  1.7833  0.1515  2.7056
  158SAPE  H10S17662   3.921   5.810   9.431  2.4046 -1.4097 -2.4170
  158SAPE  C21117663   3.783   5.862   9.265  0.5086 -0.1856  0.6053
  158SAPE  H11R17664   3.757   5.961   9.305 -3.3223 -1.5035  1.7991
  158SAPE  C21217665   3.750   5.847   9.135 -0.6202 -0.1168 -0.7544
  158SAPE  H12R17666   3.697   5.931   9.087  0.1129 -0.1310 -1.6271
  158SAPE  C21317667   3.769   5.717   9.069  0.7647  0.3337  0.3497
  158SAPE  H13R17668   3.790   5.632   9.137  0.6628 -0.6297 -0.7893
  158SAPE  H13S17669   3.851   5.727   8.994  1.5803 -0.7169  1.0700
  158SAPE  C21417670   3.640   5.683   8.998 -0.4183  0.0036  0.2685
  158SAPE  H14R17671   3.546   5.716   9.045 -0.8785  1.4161 -1.4962
  158SAPE  C21517672   3.623   5.615   8.881  0.4250 -0.6410 -0.3334
  158SAPE  H15R17673   3.529   5.595   8.828  0.3840 -1.6527  0.1096
  158SAPE  C21617674   3.735   5.554   8.802 -0.6769  0.2444  0.1391
  158SAPE  H16R17675   3.749   5.450   8.838 -0.9373  0.1241 -0.1006
  158SAPE  H16S17676   3.837   5.592   8.824 -0.2315  0.0349 -1.4398
  158SAPE  C21717677   3.733   5.547   8.650 -0.2986  1.0746 -0.1720
  158SAPE  H17R17678   3.754   5.646   8.604  1.4005  0.0323 -1.8056
  158SAPE  H17S17679   3.635   5.510   8.614  0.2064 -1.4067  0.7406
  158SAPE  C21817680   3.850   5.456   8.594 -0.1465  0.4220  0.1068
  158SAPE  H18R17681   3.935   5.526   8.613 -0.3029  0.7963 -0.5446
  158SAPE  H18S17682   3.854   5.449   8.483  1.7865 -1.2244  0.1961
  158SAPE  C21917683   3.884   5.319   8.662 -0.2963 -0.2726 -0.3366
  158SAPE  H19R17684   3.787   5.267   8.683 -1.2507  0.3130 -2.9360
  158SAPE  H19S17685   3.927   5.331   8.763 -1.5308  0.5954  0.1087
  158SAPE  C22017686   3.972   5.231   8.570  0.0007  0.1241 -0.1743
  158SAPE  H20R17687   3.910   5.212   8.479 -0.5423 -2.7472  0.7237
  158SAPE  H20S17688   3.996   5.137   8.623  1.5710 -0.0601 -1.1465
  158SAPE  H20T17689   4.070   5.280   8.547 -0.4636  0.9109 -0.5270
  158SAPE   C3317690   4.235   5.786  10.084 -0.6244 -0.3748  0.7978
  158SAPE   H3X17691   4.345   5.779  10.081 -0.5626 -0.3884  2.4134
  158SAPE   H3Y17692   4.206   5.893  10.097 -2.3688 -0.4270 -1.8357
  158SAPE   C3417693   4.180   5.766   9.940 -0.1350 -0.6106  0.0952
  158SAPE   H4X17694   4.199   5.863   9.890  0.6443 -2.0652 -2.6105
  158SAPE   H4Y17695   4.070   5.752   9.942 -0.0721 -1.1246  0.3057
  158SAPE   C3517696   4.242   5.648   9.857  0.2667 -0.0313  0.4223
  158SAPE   H5X17697   4.180   5.558   9.874 -1.3869  0.8576 -0.6396
  158SAPE   H5Y17698   4.345   5.626   9.892  0.3913 -0.0572  0.0432
  158SAPE   C3617699   4.232   5.691   9.709 -0.3548  0.4313  0.2759
  158SAPE   H6X17700   4.209   5.799   9.707 -0.7222  0.4772  3.1879
  158SAPE   H6Y17701   4.154   5.632   9.655  0.3947 -0.5276  0.2061
  158SAPE   C3717702   4.365   5.649   9.644  0.2543 -0.8225 -0.3354
  158SAPE   H7X17703   4.378   5.539   9.642  0.5969 -0.7771 -0.9292
  158SAPE   H7Y17704   4.455   5.701   9.684 -0.4717 -0.7803  1.3278
  158SAPE   C3817705   4.358   5.686   9.498 -0.5527  0.6695 -0.3649
  158SAPE   H8X17706   4.365   5.797   9.489  0.9233  0.7198  0.9164
  158SAPE   H8Y17707   4.270   5.646   9.444 -0.3584  0.5196 -0.5715
  158SAPE   C3917708   4.476   5.625   9.425 -0.0818  0.2619  0.0961
  158SAPE   H9X17709   4.452   5.517   9.417  0.5511  0.2071 -1.4802
  158SAPE   H9Y17710   4.580   5.643   9.460 -0.0616  0.4475 -0.0592
  158SAPE  C31017711   4.487   5.678   9.276 -0.4536 -0.0530 -0.6409
  158SAPE  H10X17712   4.497   5.789   9.272 -1.3291  0.0947  0.6820
  158SAPE  H10Y17713   4.393   5.651   9.222 -0.0340 -0.1600 -1.3294
  158SAPE  C31117714   4.606   5.622   9.201  0.3890 -0.0463 -0.8564
  158SAPE  H11X17715   4.573   5.518   9.183 -0.7146  0.1690 -0.1769
  158SAPE  H11Y17716   4.690   5.625   9.273 -1.6494  2.8839  1.6986
  158SAPE  C31217717   4.619   5.700   9.066  0.0937  0.1019  0.0653
  158SAPE  H12X17718   4.656   5.802   9.092  1.4582 -0.1920 -0.6320
  158SAPE  H12Y17719   4.520   5.695   9.016  0.7764  1.0576 -1.4456
  158SAPE  C31317720   4.734   5.639   8.981  0.0068 -0.3960  0.1178
  158SAPE  H13X17721   4.706   5.536   8.950  0.1917 -0.4664  0.1828
  158SAPE  H13Y17722   4.826   5.633   9.043 -0.1030  4.0693  1.0256
  158SAPE  C31417723   4.766   5.728   8.859 -0.0453  0.3508 -0.2771
  158SAPE  H14X17724   4.788   5.825   8.910  0.5008  1.4204 -2.4392
  158SAPE  H14Y17725   4.688   5.738   8.781  1.8806 -1.1252 -2.5064
  158SAPE  C31517726   4.888   5.690   8.785 -0.2364  0.3853 -0.0065
  158SAPE  H15X17727   4.873   5.589   8.740 -1.7379  0.9967 -0.9467
  158SAPE  H15Y17728   4.976   5.693   8.853  2.9193  1.4602 -3.7854
  158SAPE  C31617729   4.918   5.797   8.669 -0.6012  0.5069 -0.0275
  158SAPE  H16X17730   4.943   5.897   8.711  1.2349 -0.1707  0.6009
  158SAPE  H16Y17731   4.827   5.795   8.606 -0.9512 -2.7783  0.4233
  158SAPE  C31717732   5.034   5.747   8.581 -0.2185  0.2023  0.2504
  158SAPE  H17X17733   5.009   5.643   8.551  0.9479 -0.1899  0.5619
  158SAPE  H17Y17734   5.128   5.739   8.641 -0.8283 -1.5439  1.0332
  158SAPE  C31817735   5.060   5.826   8.453 -0.3232  0.3537 -0.4399
  158SAPE  H18X17736   4.975   5.833   8.382 -2.0916  0.8650  1.6271
  158SAPE  H18Y17737   5.146   5.784   8.396 -0.3780  0.3132 -0.4926
  158SAPE  H18Z17738   5.091   5.929   8.482  1.5188 -0.2449 -0.1544
  159SAPE     N17739   2.554   1.480   6.372  0.0541  0.7153  0.5038
  159SAPE   HN117740   2.558   1.582   6.354 -0.4663  0.6152 -0.2321
  159SAPE   HN217741   2.644   1.440   6.336 -0.2518  0.7696 -0.3612
  159SAPE   HN317742   2.480   1.436   6.313  0.6507 -0.0714  0.3242
  159SAPE   C1217743   2.543   1.476   6.524 -0.4086 -0.0198  0.0999
  159SAPE  H12A17744   2.560   1.370   6.556  2.2811 -0.0651 -1.1906
  159SAPE  H12B17745   2.446   1.518   6.556 -0.0961  1.4461 -0.7719
  159SAPE   C1117746   2.648   1.562   6.598 -0.2161 -0.2585  0.0275
  159SAPE  H11A17747   2.625   1.546   6.705 -1.4116  2.0617  0.1688
  159SAPE  H11B17748   2.631   1.669   6.576 -2.2375 -0.9678 -2.4393
  159SAPE     P17749   2.871   1.600   6.478  0.0797  0.0156 -0.1976
  159SAPE   O1317750   2.804   1.605   6.345 -0.1931 -0.4315 -0.3633
  159SAPE   O1417751   2.895   1.721   6.560 -0.5890 -0.7130  0.3523
  159SAPE   O1217752   2.779   1.514   6.568  0.2770  0.1661  0.0174
  159SAPE   O1117753   3.006   1.520   6.467 -0.2050  0.2251  0.1208
  159SAPE    C117754   3.018   1.379   6.457  0.1801  0.5793 -0.2216
  159SAPE    HA17755   2.924   1.332   6.493  0.7249 -0.2372  0.1713
  159SAPE    HB17756   3.032   1.356   6.350 -0.8537  1.5248 -0.5776
  159SAPE    C217757   3.139   1.322   6.534  0.0911  0.4280 -0.3321
  159SAPE    HS17758   3.113   1.216   6.553  2.2816 -0.0932 -0.0619
  159SAPE   O2117759   3.152   1.404   6.652  0.3395 -0.0972 -0.3919
  159SAPE   C2117760   3.056   1.379   6.740 -0.0696  0.5573 -0.1376
  159SAPE   O2217761   2.994   1.270   6.744 -0.1398  0.3011  0.2120
  159SAPE   C2217762   3.029   1.497   6.834 -0.2730 -0.1539 -0.2500
  159SAPE   H2R17763   3.095   1.577   6.793 -0.0312 -1.4121 -2.4894
  159SAPE   H2S17764   2.925   1.523   6.806  0.0123  1.1825 -0.1152
  159SAPE    C317765   3.269   1.312   6.450  0.3214 -0.3021 -0.2853
  159SAPE    HX17766   3.285   1.416   6.414  1.5672 -0.2684  0.3073
  159SAPE    HY17767   3.256   1.249   6.359  1.4378 -0.1261 -0.5785
  159SAPE   O3117768   3.377   1.267   6.533 -0.4093  0.6694  0.5389
  159SAPE   C3117769   3.375   1.144   6.574  0.5944 -0.3793 -0.3869
  159SAPE   O3217770   3.294   1.063   6.538 -0.3931  0.3249 -0.4212
  159SAPE   C3217771   3.497   1.126   6.673 -0.1371 -0.1826  0.6843
  159SAPE   H2X17772   3.548   1.224   6.681 -2.5811  1.2355 -0.3564
  159SAPE   H2Y17773   3.562   1.046   6.630 -1.6399 -1.4729  0.7139
  159SAPE   C2317774   3.071   1.476   6.981  0.1292  0.4148  0.0095
  159SAPE   H3R17775   2.989   1.418   7.028  0.6455  0.6818  1.2715
  159SAPE   H3S17776   3.059   1.577   7.024  0.8678  0.3968  0.2810
  159SAPE   C2417777   3.203   1.400   7.016  0.3581  0.5272 -0.2248
  159SAPE   H4R17778   3.291   1.454   6.974  0.6476 -0.0081 -0.3309
  159SAPE   H4S17779   3.196   1.298   6.970 -1.9226 -0.5289  2.2453
  159SAPE   C2517780   3.213   1.399   7.171 -0.3509  0.3498 -0.2499
  159SAPE   H5R17781   3.117   1.366   7.213 -1.1088  1.9435 -0.6288
  159SAPE   C2617782   3.320   1.437   7.245  0.5836  0.2179 -0.3462
  159SAPE   H6R17783   3.306   1.419   7.353 -0.4840  1.3374 -0.2796
  159SAPE   C2717784   3.451   1.490   7.187  0.5201 -0.0762 -0.2742
  159SAPE   H7R17785   3.473   1.441   7.089 -1.1916 -0.1529 -0.6481
  159SAPE   H7S17786   3.529   1.439   7.248 -1.4293 -1.7689  0.9630
  159SAPE   C2817787   3.465   1.641   7.171  0.3584 -0.4860 -0.3514
  159SAPE   H8R17788   3.379   1.681   7.116  0.5605  1.0238  0.3810
  159SAPE   C2917789   3.557   1.715   7.227 -0.7465 -0.4119 -0.9482
  159SAPE   H9R17790   3.556   1.825   7.220 -1.7520 -0.4146 -0.9447
  159SAPE  C21017791   3.662   1.661   7.314  0.9074  0.2059 -0.3316
  159SAPE  H10R17792   3.746   1.620   7.254 -0.9175 -1.9119 -1.5709
  159SAPE  H10S17793   3.618   1.571   7.362 -2.6853  0.4833 -2.7708
  159SAPE  C21117794   3.704   1.761   7.420  0.3954 -0.1216 -0.3717
  159SAPE  H11R17795   3.796   1.817   7.401  0.5493 -0.5286 -0.8271
  159SAPE  C21217796   3.643   1.776   7.540  0.1218  0.4099  0.7835
  159SAPE  H12R17797   3.677   1.853   7.611 -0.0962 -1.8636  3.5580
  159SAPE  C21317798   3.524   1.697   7.586 -0.0307  0.2300 -0.3281
  159SAPE  H13R17799   3.468   1.654   7.501  0.3862 -3.0700  0.9089
  159SAPE  H13S17800   3.458   1.777   7.625  0.3822  0.2006  0.4617
  159SAPE  C21417801   3.561   1.599   7.696  0.5795  0.4113  0.2838
  159SAPE  H14R17802   3.656   1.619   7.749 -0.2185  1.2242  1.4689
  159SAPE  C21517803   3.480   1.494   7.739 -0.8849 -0.3588 -0.9496
  159SAPE  H15R17804   3.516   1.418   7.809 -0.1779  0.3370 -0.5327
  159SAPE  C21617805   3.352   1.475   7.674  0.1635  0.1921  0.1476
  159SAPE  H16R17806   3.344   1.386   7.607 -0.6593  0.0188  0.4717
  159SAPE  H16S17807   3.311   1.552   7.605 -1.4913 -1.3972 -0.7333
  159SAPE  C21717808   3.237   1.463   7.775  1.0707  0.5727  0.2610
  159SAPE  H17R17809   3.141   1.467   7.719  0.4851 -1.4813  1.0616
  159SAPE  H17S17810   3.235   1.543   7.852 -0.6285 -0.2112  1.0751
  159SAPE  C21817811   3.246   1.330   7.840  0.2616  0.4859 -0.0613
  159SAPE  H18R17812   3.347   1.295   7.868 -0.4164 -0.7925  0.9432
  159SAPE  H18S17813   3.195   1.253   7.777 -2.7667  2.0549  0.2655
  159SAPE  C21917814   3.166   1.333   7.978 -0.3680  0.1996  0.9307
  159SAPE  H19R17815   3.213   1.410   8.044 -1.1355  0.4887  1.1477
  159SAPE  H19S17816   3.177   1.237   8.031  2.4735 -0.2836 -0.3254
  159SAPE  C22017817   3.016   1.364   7.960 -0.3544  0.6381 -0.2122
  159SAPE  H20R17818   2.971   1.398   8.056 -0.6744 -3.3515  1.2635
  159SAPE  H20S17819   2.966   1.271   7.926  0.7037  0.3377 -0.9866
  159SAPE  H20T17820   2.992   1.441   7.884 -1.5331  0.1177 -0.3933
  159SAPE   C3317821   3.433   1.098   6.807 -0.3631 -0.2443  0.5422
  159SAPE   H3X17822   3.370   1.007   6.807  1.1749 -1.3555  0.3691
  159SAPE   H3Y17823   3.355   1.171   6.838 -0.3228 -0.3545  0.9175
  159SAPE   C3417824   3.529   1.078   6.926 -0.1015 -0.3318  0.6146
  159SAPE   H4X17825   3.616   1.146   6.918 -0.4587  0.2412  1.4852
  159SAPE   H4Y17826   3.564   0.973   6.914 -1.4795 -0.8107  0.5278
  159SAPE   C3517827   3.459   1.088   7.061  0.0925  0.2919 -0.0811
  159SAPE   H5X17828   3.385   1.005   7.062 -0.4926  0.8159  0.6286
  159SAPE   H5Y17829   3.410   1.187   7.070  0.9423  0.6067  1.3831
  159SAPE   C3617830   3.568   1.078   7.169 -1.0390  0.0778 -0.1596
  159SAPE   H6X17831   3.635   1.164   7.149 -1.9050  0.9489  0.5987
  159SAPE   H6Y17832   3.616   0.980   7.148  0.4521  0.2392  2.2426
  159SAPE   C3717833   3.497   1.063   7.307  0.1991  0.8674  0.4292
  159SAPE   H7X17834   3.409   1.003   7.276  0.9215  1.2009 -2.5449
  159SAPE   H7Y17835   3.455   1.152   7.358 -0.4931 -0.7005  2.7807
  159SAPE   C3817836   3.586   1.001   7.416  0.0347 -0.1712  0.5027
  159SAPE   H8X17837   3.689   1.041   7.417  0.5868 -1.5488  1.1812
  159SAPE   H8Y17838   3.585   0.891   7.401  1.0150 -0.7015  3.7528
  159SAPE   C3917839   3.523   1.015   7.558 -0.2993  0.6443  0.9946
  159SAPE   H9X17840   3.495   1.122   7.572  2.4049  1.7880 -1.2631
  159SAPE   H9Y17841   3.600   0.990   7.635  3.1515  0.2855 -2.2928
  159SAPE  C31017842   3.409   0.916   7.585  1.2443  0.7640 -0.4009
  159SAPE  H10X17843   3.432   0.807   7.583 -1.7076  0.0474 -3.2252
  159SAPE  H10Y17844   3.338   0.938   7.503  0.0872 -1.4549 -0.0617
  159SAPE  C31117845   3.353   0.948   7.725 -0.0809 -0.2098  0.3269
  159SAPE  H11X17846   3.294   1.039   7.704 -1.2461 -0.8818  0.6321
  159SAPE  H11Y17847   3.413   0.980   7.813 -3.1909  1.2624  2.0848
  159SAPE  C31217848   3.256   0.846   7.783  0.6365  0.6002 -0.3002
  159SAPE  H12X17849   3.301   0.758   7.835  0.4771  0.6500 -0.0718
  159SAPE  H12Y17850   3.202   0.810   7.692  0.6661 -1.0706  0.2961
  159SAPE  C31317851   3.168   0.910   7.894 -0.8807  0.2075  0.2721
  159SAPE  H13X17852   3.072   0.853   7.891  0.9654 -3.3585 -4.8223
  159SAPE  H13Y17853   3.164   1.019   7.873  2.5062  0.5634  0.8956
  159SAPE  C31417854   3.216   0.896   8.041 -0.2706  0.4407  0.5736
  159SAPE  H14X17855   3.321   0.932   8.046 -0.1569 -0.0568  3.5488
  159SAPE  H14Y17856   3.228   0.789   8.071  1.4589  1.0593  2.3380
  159SAPE  C31517857   3.124   0.975   8.138 -0.3867 -0.4021  0.3393
  159SAPE  H15X17858   3.034   0.926   8.181 -2.9568  1.9215 -1.9782
  159SAPE  H15Y17859   3.077   1.059   8.083  0.2604 -0.8007 -0.8733
  159SAPE  C31617860   3.193   1.033   8.269  0.0052 -0.3142 -0.1480
  159SAPE  H16X17861   3.271   1.110   8.250  0.0235 -0.3371 -0.1652
  159SAPE  H16Y17862   3.248   0.946   8.311  0.5567  0.2057  0.2167
  159SAPE  C31717863   3.078   1.077   8.365 -0.1724  0.0021  0.8100
  159SAPE  H17X17864   3.112   1.057   8.469 -2.3541  0.1466  1.6083
  159SAPE  H17Y17865   2.985   1.016   8.363 -0.5045  0.5168  0.2547
  159SAPE  C31817866   3.034   1.225   8.350  0.7534  0.2373  0.5898
  159SAPE  H18X17867   3.117   1.299   8.352 -0.9697  2.2543  1.2024
  159SAPE  H18Y17868   2.980   1.260   8.440 -0.4957  1.0889 -0.4475
  159SAPE  H18Z17869   2.971   1.242   8.259  1.7052  0.6203 -0.0109
  160SAPE     N17870   1.123   2.670   6.202  0.6047 -0.2916 -0.0404
  160SAPE   HN117871   1.197   2.706   6.139  1.1107 -0.2739  0.5599
  160SAPE   HN217872   1.172   2.641   6.289  0.0398 -0.8818  0.0886
  160SAPE   HN317873   1.086   2.588   6.150  0.6098 -1.3075  1.4879
  160SAPE   C1217874   1.008   2.768   6.216 -0.3499 -0.0840  0.2444
  160SAPE  H12A17875   0.926   2.721   6.275 -1.5982  0.4059 -1.0408
  160SAPE  H12B17876   0.959   2.774   6.117  2.0669 -2.7350 -1.2701
  160SAPE   C1117877   1.062   2.903   6.277  0.1216 -0.0335 -0.2892
  160SAPE  H11A17878   0.986   2.983   6.288  1.7362  1.2464  2.7765
  160SAPE  H11B17879   1.146   2.936   6.212  1.0378 -2.5089 -0.4664
  160SAPE     P17880   1.039   2.897   6.542  0.3861  0.0703  0.3431
  160SAPE   O1317881   0.897   2.884   6.507  0.0782  0.2019  0.2446
  160SAPE   O1417882   1.085   2.798   6.643  0.2690 -0.8698 -0.1135
  160SAPE   O1217883   1.121   2.870   6.408 -0.1495  0.1353  0.2980
  160SAPE   O1117884   1.066   3.046   6.578  0.5279  0.4250 -0.3585
  160SAPE    C117885   1.193   3.106   6.549 -0.1547 -0.2217 -0.0309
  160SAPE    HA17886   1.251   3.067   6.463  0.5577  2.0504 -0.6550
  160SAPE    HB17887   1.183   3.216   6.536 -0.4012 -0.0585  1.3240
  160SAPE    C217888   1.290   3.109   6.672 -0.0762  0.1334  0.5799
  160SAPE    HS17889   1.285   3.011   6.723 -0.1123  0.3779  1.0466
  160SAPE   O2117890   1.251   3.219   6.761 -0.0223 -0.2664 -0.2304
  160SAPE   C2117891   1.188   3.176   6.868 -0.7556  0.7531  0.8915
  160SAPE   O2217892   1.199   3.060   6.914  0.0088  0.0390  0.0226
  160SAPE   C2217893   1.087   3.281   6.907  0.1962 -0.5507  0.5132
  160SAPE   H2R17894   1.152   3.363   6.945  2.7207 -1.3809 -1.6594
  160SAPE   H2S17895   1.037   3.316   6.815  0.4785 -1.6478 -0.0753
  160SAPE    C317896   1.446   3.127   6.634  0.0340 -0.2975 -0.1074
  160SAPE    HX17897   1.443   3.208   6.558  0.0089 -1.6177 -1.5843
  160SAPE    HY17898   1.493   3.047   6.573 -2.3125  0.4093 -3.1164
  160SAPE   O3117899   1.524   3.161   6.748 -0.8729 -0.4438  0.0761
  160SAPE   C3117900   1.540   3.066   6.836  0.3491 -1.0826  0.3340
  160SAPE   O3217901   1.497   2.951   6.833  0.2087  0.5601 -0.0444
  160SAPE   C3217902   1.622   3.120   6.949 -0.3240 -0.7146  0.3132
  160SAPE   H2X17903   1.573   3.215   6.980  0.4902 -0.7250  1.7425
  160SAPE   H2Y17904   1.723   3.132   6.905 -1.2877  1.2433 -1.5548
  160SAPE   C2317905   0.966   3.238   7.004 -0.1120  0.0359 -0.1134
  160SAPE   H3R17906   1.017   3.189   7.090 -1.5807 -1.6670 -0.1447
  160SAPE   H3S17907   0.906   3.159   6.954 -0.6734  0.4533 -0.1127
  160SAPE   C2417908   0.868   3.341   7.065 -0.0040 -0.0250 -0.2214
  160SAPE   H4R17909   0.805   3.294   7.144  0.3746  0.7237  0.5442
  160SAPE   H4S17910   0.800   3.383   6.988 -0.1094 -0.2095 -0.2295
  160SAPE   C2517911   0.952   3.451   7.120 -0.1601  0.4491  0.2484
  160SAPE   H5R17912   0.971   3.546   7.067  1.8329  0.3168  0.6525
  160SAPE   C2617913   0.997   3.448   7.248  0.8865  0.9946  0.1095
  160SAPE   H6R17914   1.052   3.535   7.287 -4.1464  3.7681  1.8887
  160SAPE   C2717915   0.968   3.338   7.343  0.5219 -0.7144 -0.4262
  160SAPE   H7R17916   0.966   3.237   7.296  0.5604 -1.1416  0.4617
  160SAPE   H7S17917   0.870   3.355   7.393  0.0606 -1.1922 -1.1475
  160SAPE   C2817918   1.082   3.344   7.446  0.4593 -0.0758 -0.7702
  160SAPE   H8R17919   1.171   3.295   7.405  0.6278 -0.1816 -0.2796
  160SAPE   C2917920   1.077   3.395   7.574 -0.3280 -0.0271 -0.0440
  160SAPE   H9R17921   1.164   3.388   7.641 -0.4235  3.0656  0.5439
  160SAPE  C21017922   0.959   3.454   7.638  0.6555 -0.5632 -0.0525
  160SAPE  H10R17923   0.885   3.479   7.560  0.6530  0.4283  0.2540
  160SAPE  H10S17924   0.986   3.547   7.692 -2.0073  0.5382 -0.5020
  160SAPE  C21117925   0.896   3.360   7.736  0.1315  0.1658  0.8637
  160SAPE  H11R17926   0.817   3.298   7.692  0.4322  0.1191  0.3849
  160SAPE  C21217927   0.917   3.348   7.865 -0.6124  0.0089 -0.3486
  160SAPE  H12R17928   0.858   3.273   7.920 -1.5833  1.9027  1.3132
  160SAPE  C21317929   1.024   3.429   7.938  0.1944  0.1326 -0.1443
  160SAPE  H13R17930   0.980   3.516   7.992  0.3926  0.2151 -0.1148
  160SAPE  H13S17931   1.094   3.480   7.867 -2.4225  0.7354 -2.4671
  160SAPE  C21417932   1.118   3.340   8.020  0.4663  0.1799  0.0699
  160SAPE  H14R17933   1.213   3.310   7.972 -0.3062  1.8362 -2.6900
  160SAPE  C21517934   1.115   3.315   8.150  0.5031 -0.0580 -0.5475
  160SAPE  H15R17935   1.190   3.248   8.194 -0.6402  0.9356  3.3743
  160SAPE  C21617936   1.013   3.367   8.244  0.4009  0.6431  0.0635
  160SAPE  H16R17937   0.929   3.295   8.253  1.2934 -0.4903 -0.3098
  160SAPE  H16S17938   0.979   3.465   8.206  0.9398 -0.2595 -3.0000
  160SAPE  C21717939   1.059   3.390   8.382  0.1751 -0.1965 -0.8083
  160SAPE  H17R17940   1.167   3.411   8.394 -0.4316  2.6341  0.5790
  160SAPE  H17S17941   1.042   3.295   8.437 -3.1211  1.5744  1.6196
  160SAPE  C21817942   0.972   3.485   8.473 -0.4439 -0.2441  1.2894
  160SAPE  H18R17943   0.870   3.442   8.480 -0.5916 -0.5382 -1.5792
  160SAPE  H18S17944   0.953   3.590   8.441  1.2690 -0.3076 -0.0438
  160SAPE  C21917945   1.031   3.489   8.613  0.3058  0.1287 -0.5486
  160SAPE  H19R17946   1.021   3.382   8.642 -2.4793  0.9673  2.2640
  160SAPE  H19S17947   0.953   3.527   8.683 -1.4008 -4.0299  0.1242
  160SAPE  C22017948   1.172   3.552   8.626  0.1080 -0.9140 -0.0336
  160SAPE  H20R17949   1.164   3.650   8.574  0.4609 -0.0888  1.4132
  160SAPE  H20S17950   1.252   3.486   8.587  0.5848 -0.6270  0.4370
  160SAPE  H20T17951   1.196   3.558   8.734  0.1542 -0.0230 -0.0836
  160SAPE   C3317952   1.635   3.021   7.064  0.0134  0.3230  0.4800
  160SAPE   H3X17953   1.682   2.929   7.023  0.7411  0.7579  0.3029
  160SAPE   H3Y17954   1.531   3.008   7.099 -1.3365  3.1290 -2.0012
  160SAPE   C3417955   1.734   3.062   7.166  0.4492  0.0963  0.5169
  160SAPE   H4X17956   1.707   3.159   7.212  0.4491 -0.5027  1.8136
  160SAPE   H4Y17957   1.837   3.071   7.123  0.0463 -0.6639 -0.6685
  160SAPE   C3517958   1.737   2.951   7.272  0.7981 -1.0720 -0.6842
  160SAPE   H5X17959   1.730   2.851   7.224 -0.5253 -0.5803 -1.5976
  160SAPE   H5Y17960   1.640   2.961   7.325  1.8451 -1.1750  1.3152
  160SAPE   C3617961   1.867   2.956   7.357  0.1995 -0.2285  0.1098
  160SAPE   H6X17962   1.952   2.963   7.286 -0.1316  1.6532 -0.1667
  160SAPE   H6Y17963   1.859   2.862   7.415 -0.7718  0.3158  0.8942
  160SAPE   C3717964   1.871   3.075   7.452  0.1681  0.2565  0.7706
  160SAPE   H7X17965   1.866   3.171   7.398  2.8704 -0.6331 -1.3028
  160SAPE   H7Y17966   1.977   3.072   7.487  0.2099 -0.2985  0.6134
  160SAPE   C3817967   1.763   3.082   7.566  0.1177 -0.3101  0.0388
  160SAPE   H8X17968   1.665   3.055   7.521  0.3609  0.6585 -1.0974
  160SAPE   H8Y17969   1.753   3.184   7.608 -0.7017  0.4624 -1.9097
  160SAPE   C3917970   1.795   2.992   7.684  0.4179  0.3208  0.3001
  160SAPE   H9X17971   1.819   2.895   7.636  1.2034  0.0785  1.1544
  160SAPE   H9Y17972   1.697   2.984   7.735 -0.3989  3.4670 -0.5232
  160SAPE  C31017973   1.914   3.032   7.767 -0.0049  0.5164 -0.5447
  160SAPE  H10X17974   2.002   3.071   7.710 -1.2232  0.9280 -2.2047
  160SAPE  H10Y17975   1.952   2.948   7.829  0.4775  2.3423  1.7975
  160SAPE  C31117976   1.888   3.140   7.874 -0.5265 -0.5627  0.2970
  160SAPE  H11X17977   1.806   3.099   7.937  1.3561 -0.1846  3.1485
  160SAPE  H11Y17978   1.852   3.238   7.836 -1.5851 -0.5115  1.3633
  160SAPE  C31217979   2.021   3.169   7.953  0.8319  0.3395 -0.0378
  160SAPE  H12X17980   2.084   3.246   7.905 -0.5965  0.6366 -1.5348
  160SAPE  H12Y17981   2.078   3.073   7.951 -2.5763 -1.9154  1.2849
  160SAPE  C31317982   1.994   3.199   8.101 -0.2242 -0.3712 -0.2159
  160SAPE  H13X17983   1.954   3.106   8.147  0.5103  0.3221  1.9429
  160SAPE  H13Y17984   1.923   3.283   8.114  0.0411 -0.3586  1.2988
  160SAPE  C31417985   2.131   3.221   8.175 -0.4743  0.0454 -0.0411
  160SAPE  H14X17986   2.173   3.308   8.119 -1.0721  1.1573  1.1693
  160SAPE  H14Y17987   2.206   3.143   8.150  1.4526  1.9262 -0.4275
  160SAPE  C31517988   2.118   3.249   8.328 -0.0778  0.2313  0.1003
  160SAPE  H15X17989   2.086   3.164   8.393  2.1259  0.9203  2.2363
  160SAPE  H15Y17990   2.041   3.328   8.339 -1.3225 -0.6450 -1.7878
  160SAPE  C31617991   2.259   3.288   8.391  0.7445  0.1789  0.4409
  160SAPE  H16X17992   2.270   3.382   8.332 -0.9472  0.8817  1.1854
  160SAPE  H16Y17993   2.335   3.216   8.353 -1.8742 -2.6594  0.1403
  160SAPE  C31717994   2.265   3.303   8.543 -0.1053 -0.3856 -0.2033
  160SAPE  H17X17995   2.194   3.384   8.570  0.2257 -0.0173 -0.4207
  160SAPE  H17Y17996   2.358   3.359   8.569 -1.8946  2.6404  0.0669
  160SAPE  C31817997   2.249   3.182   8.644 -0.5400 -0.8836 -0.1020
  160SAPE  H18X17998   2.270   3.225   8.744 -0.9489 -1.4479  0.2313
  160SAPE  H18Y17999   2.327   3.105   8.627 -1.8825 -1.9362 -1.9757
  160SAPE  H18Z18000   2.149   3.134   8.638 -0.3199 -1.2419 -1.2886
  161SAPE     N18001   4.164   2.280   6.065  0.1913  0.0537  0.1654
  161SAPE   HN118002   4.132   2.283   5.966  1.2785 -1.5910 -0.2810
  161SAPE   HN218003   4.127   2.366   6.110  2.1151  0.6283  0.7678
  161SAPE   HN318004   4.268   2.284   6.068  0.3017 -0.7121 -1.3105
  161SAPE   C1218005   4.114   2.146   6.127 -0.0012  0.1510 -0.2883
  161SAPE  H12A18006   4.169   2.127   6.222  1.5487 -0.9128 -1.3589
  161SAPE  H12B18007   4.156   2.062   6.068  0.6277 -0.0815  0.4676
  161SAPE   C1118008   3.960   2.138   6.133 -0.5382 -0.2402 -0.4433
  161SAPE  H11A18009   3.925   2.047   6.185 -2.8951  0.5274 -0.5627
  161SAPE  H11B18010   3.920   2.147   6.029 -1.2884  2.5516  0.0021
  161SAPE     P18011   3.755   2.256   6.269 -0.0564 -0.1676 -0.3642
  161SAPE   O1318012   3.704   2.394   6.298  0.0130  1.0778  0.3250
  161SAPE   O1418013   3.668   2.170   6.190  0.3954  0.1983 -0.2604
  161SAPE   O1218014   3.902   2.254   6.205  0.4162 -0.2327 -0.7880
  161SAPE   O1118015   3.777   2.186   6.409 -0.4721  0.6524  0.1937
  161SAPE    C118016   3.899   2.191   6.488  0.4280 -0.0115  1.1624
  161SAPE    HA18017   3.975   2.110   6.476  2.8228  1.5201  4.2878
  161SAPE    HB18018   3.962   2.281   6.470  2.3191 -1.3934  0.5084
  161SAPE    C218019   3.855   2.214   6.634 -0.8772  0.6522 -0.3328
  161SAPE    HS18020   3.953   2.230   6.685 -0.2835 -0.8746 -0.9328
  161SAPE   O2118021   3.799   2.095   6.689  0.0578 -0.2578 -0.1331
  161SAPE   C2118022   3.868   1.985   6.699 -0.2992 -0.0773  0.3971
  161SAPE   O2218023   3.988   1.979   6.671  0.4706 -0.2880  0.6375
  161SAPE   C2218024   3.788   1.864   6.749  0.6274  0.2639 -0.6880
  161SAPE   H2R18025   3.699   1.855   6.683  0.3052  0.7943 -0.3384
  161SAPE   H2S18026   3.858   1.781   6.726  2.4674  1.7137 -0.5674
  161SAPE    C318027   3.759   2.338   6.651 -1.2652  1.0281 -0.4178
  161SAPE    HX18028   3.666   2.308   6.598  0.0124 -1.5479 -1.3912
  161SAPE    HY18029   3.803   2.423   6.595 -2.0226  0.5882 -1.7267
  161SAPE   O3118030   3.742   2.372   6.787  0.1797  0.3764 -0.5036
  161SAPE   C3118031   3.840   2.443   6.845  0.3682 -0.3368  0.5282
  161SAPE   O3218032   3.940   2.488   6.790 -0.1596  0.2956  0.2158
  161SAPE   C3218033   3.785   2.478   6.978  0.3623 -0.1179 -0.4507
  161SAPE   H2X18034   3.856   2.452   7.059 -0.1878  0.8998  0.3864
  161SAPE   H2Y18035   3.708   2.403   7.006  0.4148  0.2328  0.6963
  161SAPE   C2318036   3.738   1.881   6.896 -0.2044  0.1860  0.2185
  161SAPE   H3R18037   3.652   1.813   6.915 -0.2701  0.0790 -0.4562
  161SAPE   H3S18038   3.700   1.983   6.917 -0.0023 -0.0868  2.0512
  161SAPE   C2418039   3.843   1.842   6.999  0.1300  0.3902 -0.3104
  161SAPE   H4R18040   3.883   1.740   6.978  3.3171  0.9704  2.2600
  161SAPE   H4S18041   3.807   1.843   7.105 -0.6025  1.5913 -0.5506
  161SAPE   C2518042   3.967   1.928   6.996 -0.1325  0.1894 -0.0924
  161SAPE   H5R18043   4.057   1.897   6.941 -0.3186  0.1226 -0.3657
  161SAPE   C2618044   3.989   2.039   7.072 -0.0963 -0.1215 -0.5411
  161SAPE   H6R18045   4.081   2.096   7.049  0.2620 -1.3868 -2.4557
  161SAPE   C2718046   3.879   2.104   7.155 -0.2829  0.4869 -0.3414
  161SAPE   H7R18047   3.780   2.053   7.152 -1.1122  2.0093  0.1585
  161SAPE   H7S18048   3.887   2.202   7.103  0.7593  1.4068  1.4962
  161SAPE   C2818049   3.927   2.131   7.295 -0.5217  0.3811  0.7011
  161SAPE   H8R18050   4.029   2.094   7.315 -0.8616 -1.3650 -0.5454
  161SAPE   C2918051   3.848   2.172   7.394  0.6058  0.3503 -0.6869
  161SAPE   H9R18052   3.899   2.194   7.489 -0.1561 -2.8579  0.6122
  161SAPE  C21018053   3.697   2.214   7.379 -0.5489  0.0516 -0.1814
  161SAPE  H10R18054   3.661   2.226   7.275 -0.1714 -1.7279 -0.5490
  161SAPE  H10S18055   3.683   2.318   7.417 -1.6741 -0.6206  1.3523
  161SAPE  C21118056   3.616   2.125   7.473 -0.4520  0.0094 -0.0809
  161SAPE  H11R18057   3.602   2.027   7.426 -0.1612 -0.0411 -0.0633
  161SAPE  C21218058   3.585   2.140   7.605 -0.1640 -0.4011  0.1856
  161SAPE  H12R18059   3.527   2.055   7.644 -0.1098 -0.5128  0.0226
  161SAPE  C21318060   3.610   2.251   7.705  0.5648 -0.6422  0.4912
  161SAPE  H13R18061   3.523   2.241   7.773 -0.2250 -1.9205 -0.6388
  161SAPE  H13S18062   3.602   2.353   7.661  1.1204 -0.2036  1.4008
  161SAPE  C21418063   3.744   2.226   7.774 -0.0112  0.9493 -0.1830
  161SAPE  H14R18064   3.832   2.273   7.728  1.0311 -0.0935  0.6911
  161SAPE  C21518065   3.757   2.157   7.888  0.4166  0.6848  0.0573
  161SAPE  H15R18066   3.859   2.154   7.927  0.3896  1.6332  0.2392
  161SAPE  C21618067   3.666   2.078   7.977  0.3441 -0.0804 -0.4083
  161SAPE  H16R18068   3.571   2.045   7.931 -0.6857  1.2293  0.6774
  161SAPE  H16S18069   3.635   2.145   8.060 -0.4714 -1.8594  0.7893
  161SAPE  C21718070   3.740   1.953   8.031 -0.4904  0.5740  0.3658
  161SAPE  H17R18071   3.692   1.918   8.125  0.4494 -1.1396  0.2334
  161SAPE  H17S18072   3.848   1.972   8.045 -0.1862  0.6314 -1.6713
  161SAPE  C21818073   3.726   1.833   7.931 -0.2176 -0.7285 -0.4909
  161SAPE  H18R18074   3.762   1.871   7.834  1.7635  3.4821  1.6295
  161SAPE  H18S18075   3.619   1.802   7.927 -0.7427  1.1224 -1.6901
  161SAPE  C21918076   3.822   1.722   7.967  0.7354 -0.2399  0.6835
  161SAPE  H19R18077   3.914   1.762   8.014  2.0172 -1.6808 -0.5174
  161SAPE  H19S18078   3.853   1.676   7.871 -0.9934  2.0987 -1.1411
  161SAPE  C22018079   3.764   1.612   8.058 -0.0456  0.3005  0.0866
  161SAPE  H20R18080   3.697   1.655   8.135 -0.9445  1.7467 -1.4368
  161SAPE  H20S18081   3.846   1.555   8.105 -1.0648  1.7511  4.0014
  161SAPE  H20T18082   3.699   1.545   7.997 -4.9660  2.5082  2.2873
  161SAPE   C3318083   3.718   2.619   6.977 -0.6098 -0.6346  0.0790
  161SAPE   H3X18084   3.691   2.651   6.874  0.6071  2.0322  0.5189
  161SAPE   H3Y18085   3.796   2.693   7.004  1.1353 -2.1577 -0.5912
  161SAPE   C3418086   3.603   2.638   7.075  0.4934  0.5220  0.3090
  161SAPE   H4X18087   3.511   2.579   7.055  0.0196  0.6606  1.8966
  161SAPE   H4Y18088   3.577   2.746   7.075 -0.4548  0.2982  0.2831
  161SAPE   C3518089   3.662   2.616   7.218  0.3746  0.8809  0.0789
  161SAPE   H5X18090   3.768   2.648   7.230  0.8333 -0.6511  0.2668
  161SAPE   H5Y18091   3.655   2.508   7.242  1.8286  0.5628 -0.7840
  161SAPE   C3618092   3.562   2.683   7.328  0.4036  0.5536  0.8265
  161SAPE   H6X18093   3.464   2.631   7.319  0.4641  0.3277  1.4299
  161SAPE   H6Y18094   3.542   2.789   7.303  0.7184  1.1108  2.7830
  161SAPE   C3718095   3.617   2.670   7.469 -0.2903  0.3921 -0.4610
  161SAPE   H7X18096   3.702   2.740   7.479  0.3095 -0.2735 -0.8032
  161SAPE   H7Y18097   3.649   2.565   7.488  0.0950  0.8783  1.8401
  161SAPE   C3818098   3.510   2.711   7.580 -0.3376 -0.1789 -0.2115
  161SAPE   H8X18099   3.417   2.650   7.588 -0.7616  0.5418  0.5410
  161SAPE   H8Y18100   3.466   2.807   7.548 -1.3232 -0.4663  0.2294
  161SAPE   C3918101   3.572   2.738   7.720  0.7376  0.3260 -0.3237
  161SAPE   H9X18102   3.655   2.810   7.706  0.1117  0.6642 -2.6980
  161SAPE   H9Y18103   3.611   2.645   7.768 -3.8923  0.1286  3.8076
  161SAPE  C31018104   3.467   2.791   7.820  0.2673  0.4332 -0.8507
  161SAPE  H10X18105   3.390   2.713   7.843 -1.0835  2.3860  1.7119
  161SAPE  H10Y18106   3.414   2.881   7.781 -0.5547  0.1547 -0.4124
  161SAPE  C31118107   3.512   2.825   7.966 -0.4726 -0.0423 -0.0852
  161SAPE  H11X18108   3.534   2.731   8.021  0.2621  0.7529  1.0386
  161SAPE  H11Y18109   3.428   2.872   8.020  0.5902 -0.4096  2.0055
  161SAPE  C31218110   3.641   2.912   7.967 -0.1534  0.4636  0.2049
  161SAPE  H12X18111   3.626   3.011   7.921  0.9237 -0.3466 -2.0493
  161SAPE  H12Y18112   3.724   2.861   7.914  1.4214  2.0559  1.0540
  161SAPE  C31318113   3.698   2.940   8.108 -0.1084 -0.1999  0.3689
  161SAPE  H13X18114   3.626   2.999   8.169 -2.4982 -1.6404 -0.8774
  161SAPE  H13Y18115   3.783   3.010   8.101  0.1181 -0.1773  2.6219
  161SAPE  C31418116   3.761   2.816   8.184  0.3448  0.4241  0.4153
  161SAPE  H14X18117   3.864   2.814   8.142  0.3653  0.4369  0.4639
  161SAPE  H14Y18118   3.715   2.722   8.147 -2.4646  0.7077  2.8049
  161SAPE  C31518119   3.745   2.823   8.335  0.1517  0.2940 -0.4900
  161SAPE  H15X18120   3.794   2.919   8.362 -2.9166  2.2856 -1.4980
  161SAPE  H15Y18121   3.803   2.740   8.380  0.1917 -1.4147 -3.3974
  161SAPE  C31618122   3.603   2.825   8.389  0.4225 -0.0276 -0.6864
  161SAPE  H16X18123   3.539   2.904   8.344 -0.4659 -0.0960  0.4184
  161SAPE  H16Y18124   3.599   2.855   8.495  1.4689 -0.7343 -0.4383
  161SAPE  C31718125   3.544   2.681   8.391  0.5386  0.4438 -0.2570
  161SAPE  H17X18126   3.626   2.617   8.427  1.2063  0.2668 -1.9814
  161SAPE  H17Y18127   3.527   2.648   8.286  1.6927  1.6097 -0.8407
  161SAPE  C31818128   3.420   2.666   8.485 -1.1998 -0.4952  0.1379
  161SAPE  H18X18129   3.383   2.561   8.485 -0.8908 -0.6082 -0.2669
  161SAPE  H18Y18130   3.340   2.723   8.433 -1.0431  0.4276  0.8812
  161SAPE  H18Z18131   3.447   2.703   8.586 -2.5381  0.5506  0.1402
  162SAPE     N18132   1.226   4.277   6.131 -0.2430 -0.1867  0.2743
  162SAPE   HN118133   1.165   4.202   6.093  1.0972  0.1421 -2.8277
  162SAPE   HN218134   1.212   4.360   6.070 -1.9261 -1.4752 -1.1787
  162SAPE   HN318135   1.324   4.244   6.143  0.1879  0.5187 -1.1203
  162SAPE   C1218136   1.179   4.304   6.277 -0.3634  0.6092 -0.2555
  162SAPE  H12A18137   1.075   4.341   6.266 -0.9652 -0.4228  1.4415
  162SAPE  H12B18138   1.241   4.378   6.331 -0.4881 -0.9251  2.1892
  162SAPE   C1118139   1.181   4.172   6.355  0.0638  0.0367  0.0918
  162SAPE  H11A18140   1.163   4.190   6.463  2.2096 -1.3556  0.7483
  162SAPE  H11B18141   1.276   4.114   6.357 -0.3974 -0.7202  0.1795
  162SAPE     P18142   1.037   3.953   6.378 -0.0503 -0.2866 -0.1397
  162SAPE   O1318143   0.889   3.940   6.377 -0.5890 -0.0327 -0.2546
  162SAPE   O1418144   1.113   3.849   6.306  0.5932 -0.2300 -0.1573
  162SAPE   O1218145   1.079   4.090   6.305  0.1301 -0.7169  0.3593
  162SAPE   O1118146   1.090   3.962   6.522 -0.1988 -0.0576 -0.1465
  162SAPE    C118147   1.219   3.906   6.560  0.0724  0.0733 -0.4898
  162SAPE    HA18148   1.203   3.797   6.573  1.4544 -0.0707  0.1904
  162SAPE    HB18149   1.297   3.919   6.481  0.4192 -0.2510 -0.2087
  162SAPE    C218150   1.272   3.947   6.702  0.4944 -0.1809 -0.4195
  162SAPE    HS18151   1.350   3.874   6.732  1.6628  0.7001 -1.2115
  162SAPE   O2118152   1.165   3.958   6.794 -0.0600  0.2092  0.2506
  162SAPE   C2118153   1.124   3.843   6.847  0.1439  0.6260 -0.3858
  162SAPE   O2218154   1.190   3.738   6.835 -0.3362 -0.4851  0.3206
  162SAPE   C2218155   0.996   3.863   6.926  0.1120  0.3205 -0.5427
  162SAPE   H2R18156   1.013   3.863   7.036  2.7742 -3.9920 -0.7253
  162SAPE   H2S18157   0.964   3.969   6.912  1.1149  1.0661  2.1077
  162SAPE    C318158   1.347   4.085   6.694 -0.2944 -0.4433  0.4156
  162SAPE    HX18159   1.261   4.155   6.684 -0.6465 -0.8774  0.3673
  162SAPE    HY18160   1.415   4.094   6.607 -1.9059  2.0908 -0.7227
  162SAPE   O3118161   1.417   4.095   6.819  0.0531 -0.0756 -0.3574
  162SAPE   C3118162   1.481   4.207   6.830  0.6669 -0.2153  0.1693
  162SAPE   O3218163   1.484   4.294   6.741 -0.1166  0.2440  0.0903
  162SAPE   C3218164   1.563   4.219   6.963  0.1363 -0.6421 -0.2860
  162SAPE   H2X18165   1.579   4.324   6.994  3.2632 -0.7722 -1.1417
  162SAPE   H2Y18166   1.660   4.175   6.933  0.1383 -0.9719  0.1871
  162SAPE   C2318167   0.889   3.767   6.893  1.1195  0.9331 -0.2040
  162SAPE   H3R18168   0.908   3.659   6.907 -2.2414  0.4188  1.4520
  162SAPE   H3S18169   0.859   3.770   6.786  0.5755 -0.3154 -0.1076
  162SAPE   C2418170   0.761   3.802   6.965  0.1531 -0.4656  0.2044
  162SAPE   H4R18171   0.739   3.911   6.951 -2.7675 -0.8026  1.5003
  162SAPE   H4S18172   0.779   3.809   7.074  1.5074 -1.1147  0.0397
  162SAPE   C2518173   0.644   3.726   6.916  0.7227  0.5469  0.1938
  162SAPE   H5R18174   0.637   3.732   6.806  2.0315 -1.3843 -0.0340
  162SAPE   C2618175   0.569   3.642   6.989  0.8117  0.2264 -0.4171
  162SAPE   H6R18176   0.482   3.592   6.944 -0.2736 -0.8557  2.6541
  162SAPE   C2718177   0.590   3.601   7.138  1.1044  0.2859  0.1667
  162SAPE   H7R18178   0.667   3.656   7.197  0.9305 -0.7784  1.4261
  162SAPE   H7S18179   0.614   3.492   7.134 -3.8056 -1.0092 -0.2569
  162SAPE   C2818180   0.457   3.600   7.216  0.5309  0.7558 -0.0864
  162SAPE   H8R18181   0.371   3.630   7.154 -0.9987 -1.9797  0.5707
  162SAPE   C2918182   0.439   3.565   7.339 -0.5518 -0.2380  0.1225
  162SAPE   H9R18183   0.342   3.551   7.388  0.0208 -1.4015  0.9380
  162SAPE  C21018184   0.556   3.522   7.427 -0.1672 -0.2474  0.5763
  162SAPE  H10R18185   0.654   3.510   7.375 -0.8941  1.6476 -1.3339
  162SAPE  H10S18186   0.528   3.425   7.475 -1.5437 -0.1987 -0.0901
  162SAPE  C21118187   0.582   3.630   7.521 -0.7738  0.0775  0.7071
  162SAPE  H11R18188   0.594   3.727   7.472 -1.5611 -0.1011  0.1374
  162SAPE  C21218189   0.586   3.627   7.654  0.4401 -0.2467  0.9733
  162SAPE  H12R18190   0.602   3.729   7.693 -0.1761  1.2888 -2.4826
  162SAPE  C21318191   0.569   3.510   7.751 -0.7903  0.1433 -0.4542
  162SAPE  H13R18192   0.669   3.477   7.787 -1.2300 -1.6538 -0.7877
  162SAPE  H13S18193   0.529   3.414   7.712  0.4037 -0.2737 -0.7168
  162SAPE  C21418194   0.486   3.549   7.875  0.9481 -0.0287 -0.3734
  162SAPE  H14R18195   0.400   3.616   7.858 -1.3747 -2.5366  0.6963
  162SAPE  C21518196   0.513   3.497   8.002 -0.5748 -0.2702 -0.0644
  162SAPE  H15R18197   0.462   3.541   8.090 -0.7961 -0.7690  0.0601
  162SAPE  C21618198   0.620   3.400   8.048  0.0301 -0.3245 -0.2662
  162SAPE  H16R18199   0.716   3.456   8.052  0.2628 -0.7864  1.3525
  162SAPE  H16S18200   0.637   3.333   7.961  2.3147 -1.7959  1.2152
  162SAPE  C21718201   0.589   3.320   8.180  0.0475 -0.0899  0.5633
  162SAPE  H17R18202   0.684   3.267   8.205  0.6270  0.7916  0.2858
  162SAPE  H17S18203   0.510   3.242   8.173  2.4975 -2.5873 -1.6263
  162SAPE  C21818204   0.543   3.408   8.302 -0.0386 -0.5405 -0.0107
  162SAPE  H18R18205   0.448   3.456   8.271  1.0732  2.8528  1.3791
  162SAPE  H18S18206   0.613   3.494   8.300 -0.3631 -0.2386  1.2044
  162SAPE  C21918207   0.542   3.339   8.436 -0.4528  0.8665 -0.8826
  162SAPE  H19R18208   0.536   3.410   8.521  1.4645  0.6718 -0.5364
  162SAPE  H19S18209   0.643   3.294   8.435 -0.5840  0.5177 -2.6804
  162SAPE  C22018210   0.434   3.229   8.462 -0.8716  0.1258 -0.1407
  162SAPE  H20R18211   0.424   3.205   8.570  2.0813  0.4589  0.2806
  162SAPE  H20S18212   0.449   3.139   8.398 -4.1026  1.2397 -2.7606
  162SAPE  H20T18213   0.337   3.270   8.428 -1.3516 -1.1431 -0.3474
  162SAPE   C3318214   1.508   4.149   7.091 -0.3912  0.2025  0.7881
  162SAPE   H3X18215   1.568   4.184   7.178  0.2028 -0.0526  0.4821
  162SAPE   H3Y18216   1.522   4.039   7.080  0.1791  0.4777 -1.7355
  162SAPE   C3418217   1.361   4.183   7.115 -0.6015  0.5876  0.4894
  162SAPE   H4X18218   1.300   4.111   7.055 -0.7274 -0.1025  1.4134
  162SAPE   H4Y18219   1.349   4.288   7.083 -0.5163  0.8471  1.2933
  162SAPE   C3518220   1.332   4.166   7.259 -0.3280  0.3589 -0.5012
  162SAPE   H5X18221   1.405   4.226   7.316 -1.2017  0.9848 -0.0199
  162SAPE   H5Y18222   1.341   4.059   7.289 -1.9781  0.1035 -0.8021
  162SAPE   C3618223   1.195   4.206   7.311 -0.5342  0.8931  0.0528
  162SAPE   H6X18224   1.119   4.138   7.266 -0.1590 -1.0981  2.2219
  162SAPE   H6Y18225   1.178   4.308   7.273 -0.6291  1.6612  2.0376
  162SAPE   C3718226   1.192   4.205   7.463  0.1690 -0.2580  0.0044
  162SAPE   H7X18227   1.284   4.261   7.490 -2.0629  2.9407  1.6845
  162SAPE   H7Y18228   1.188   4.103   7.506  3.7901 -0.5361  0.0119
  162SAPE   C3818229   1.070   4.284   7.523  0.7315  0.2762 -0.5406
  162SAPE   H8X18230   0.971   4.236   7.510 -1.7371  3.5681  3.6406
  162SAPE   H8Y18231   1.058   4.384   7.475  0.2592  0.4872  0.0147
  162SAPE   C3918232   1.090   4.304   7.673 -0.4576 -0.1413  0.0888
  162SAPE   H9X18233   1.198   4.324   7.694  0.2426 -2.6043 -0.7776
  162SAPE   H9Y18234   1.074   4.213   7.735 -0.2007 -0.0568  0.2851
  162SAPE  C31018235   1.005   4.418   7.742  0.4307  0.2092 -0.1516
  162SAPE  H10X18236   0.899   4.394   7.717 -0.2917  1.7424  1.1982
  162SAPE  H10Y18237   1.033   4.513   7.691  0.7881  0.0441 -0.2643
  162SAPE  C31118238   1.034   4.425   7.892  0.2039  0.5522 -0.4581
  162SAPE  H11X18239   1.004   4.524   7.932 -2.4211 -0.7479  0.9704
  162SAPE  H11Y18240   1.141   4.407   7.915 -0.2976 -0.9602  0.8726
  162SAPE  C31218241   0.959   4.313   7.972 -0.4280 -0.7589  0.1169
  162SAPE  H12X18242   1.010   4.215   7.962  1.4453  0.3259 -1.9431
  162SAPE  H12Y18243   0.850   4.315   7.948 -0.2414  3.3520 -1.1414
  162SAPE  C31318244   0.974   4.347   8.127 -0.2918 -0.8328 -0.1340
  162SAPE  H13X18245   0.949   4.455   8.130 -1.3961 -0.9841 -2.0806
  162SAPE  H13Y18246   1.083   4.343   8.147 -0.0030  2.1810 -0.5676
  162SAPE  C31418247   0.885   4.273   8.231  0.2289  0.5184  0.4848
  162SAPE  H14X18248   0.909   4.165   8.245  1.4169  0.7120  0.0810
  162SAPE  H14Y18249   0.783   4.278   8.186 -0.4170  1.5338  1.9838
  162SAPE  C31518250   0.899   4.330   8.366  0.5855 -0.1858 -0.3222
  162SAPE  H15X18251   0.808   4.308   8.426  1.1556  3.0945  2.0181
  162SAPE  H15Y18252   0.905   4.441   8.358 -1.4806  0.4528  4.0379
  162SAPE  C31618253   1.035   4.295   8.432 -0.0734  0.4690  0.1372
  162SAPE  H16X18254   1.111   4.281   8.353  0.4195  0.3210  0.6344
  162SAPE  H16Y18255   1.033   4.204   8.495 -1.8371  1.1162  1.0925
  162SAPE  C31718256   1.094   4.408   8.516 -0.4684  0.0444  0.1509
  162SAPE  H17X18257   1.042   4.440   8.609  0.5939 -0.1006  0.8057
  162SAPE  H17Y18258   1.104   4.499   8.452  2.8703 -0.1624  0.2306
  162SAPE  C31818259   1.231   4.364   8.569  0.7852 -0.6174  0.0255
  162SAPE  H18X18260   1.260   4.398   8.671  1.7934  2.6691 -1.2296
  162SAPE  H18Y18261   1.321   4.379   8.506  1.0666 -0.9531  0.3459
  162SAPE  H18Z18262   1.220   4.256   8.593  0.6169 -0.1752  2.1532
  163SAPE     N18263   1.001   2.544   6.652  0.3636 -0.3833  0.0657
  163SAPE   HN118264   1.049   2.635   6.634 -1.0547  0.0694 -1.6253
  163SAPE   HN218265   1.057   2.457   6.638 -0.8911 -1.3445  0.7583
  163SAPE   HN318266   0.924   2.553   6.584  0.1465  0.4029  0.4104
  163SAPE   C1218267   0.930   2.531   6.778  0.0771 -0.0895 -0.7389
  163SAPE  H12A18268   1.005   2.521   6.861  1.3433 -1.7360 -2.0056
  163SAPE  H12B18269   0.869   2.439   6.768  1.0596 -0.8282 -0.2027
  163SAPE   C1118270   0.850   2.648   6.808  0.6451 -0.1610  0.8363
  163SAPE  H11A18271   0.918   2.735   6.808  0.9361 -0.3860  1.3094
  163SAPE  H11B18272   0.807   2.642   6.911 -2.0997  3.4543  0.1165
  163SAPE     P18273   0.619   2.739   6.758 -0.1225  0.0717 -0.2352
  163SAPE   O1318274   0.655   2.865   6.823 -0.7188  0.7160 -0.4764
  163SAPE   O1418275   0.528   2.747   6.642  0.3460  0.9403  0.5294
  163SAPE   O1218276   0.737   2.645   6.711  0.0856  0.0027 -0.2730
  163SAPE   O1118277   0.550   2.657   6.863 -0.9205 -0.2315 -0.6290
  163SAPE    C118278   0.500   2.528   6.838  0.7332  0.6716  0.0588
  163SAPE    HA18279   0.432   2.531   6.750  2.8426 -0.9057 -1.7442
  163SAPE    HB18280   0.581   2.460   6.804 -0.2393 -0.1284 -0.7453
  163SAPE    C218281   0.429   2.469   6.966  0.0496  0.1814  0.0273
  163SAPE    HS18282   0.333   2.524   6.980 -0.7259 -1.3304  0.8761
  163SAPE   O2118283   0.502   2.486   7.088 -0.2558  0.2197  0.1082
  163SAPE   C2118284   0.632   2.464   7.095  0.4746  0.7082  0.0904
  163SAPE   O2218285   0.706   2.418   7.008  0.0365  0.5672 -0.2170
  163SAPE   C2218286   0.678   2.514   7.234  0.6856  0.0745 -0.7076
  163SAPE   H2R18287   0.787   2.532   7.227  0.6824  0.2422 -0.3141
  163SAPE   H2S18288   0.632   2.614   7.251 -2.7241 -1.1780 -1.6578
  163SAPE    C318289   0.390   2.323   6.939  0.1757  0.2626  0.6674
  163SAPE    HX18290   0.483   2.271   6.908  0.6441  2.3116 -1.7528
  163SAPE    HY18291   0.341   2.325   6.840 -1.1997  0.1583  1.3262
  163SAPE   O3118292   0.312   2.250   7.036  0.0769  0.0196 -0.0043
  163SAPE   C3118293   0.386   2.182   7.131  0.2006 -0.6894  0.1455
  163SAPE   O3218294   0.507   2.174   7.130 -0.2011  0.1155  0.9399
  163SAPE   C3218295   0.300   2.130   7.243 -0.3144  0.4213  0.3433
  163SAPE   H2X18296   0.339   2.028   7.268  0.0443  0.8858  1.7583
  163SAPE   H2Y18297   0.202   2.106   7.197 -0.3973  1.3151  0.0388
  163SAPE   C2318298   0.645   2.415   7.344 -0.4257  0.2867 -0.5746
  163SAPE   H3R18299   0.617   2.316   7.300  1.8137 -0.8557  0.4315
  163SAPE   H3S18300   0.557   2.460   7.396 -0.0291 -1.3855  1.6759
  163SAPE   C2418301   0.746   2.398   7.454 -0.1096 -0.6033 -0.0822
  163SAPE   H4R18302   0.842   2.375   7.403  0.5018  0.3818  0.5963
  163SAPE   H4S18303   0.721   2.316   7.525  1.4431  1.3791  2.9928
  163SAPE   C2518304   0.771   2.529   7.526 -0.5483  0.2430 -0.1027
  163SAPE   H5R18305   0.776   2.621   7.467  0.7615 -0.4417 -1.1145
  163SAPE   C2618306   0.791   2.545   7.655  0.5381 -0.0208  0.4288
  163SAPE   H6R18307   0.804   2.650   7.685  0.1301  0.7040 -1.7000
  163SAPE   C2718308   0.800   2.444   7.763  0.5046  0.0718  0.2741
  163SAPE   H7R18309   0.883   2.474   7.830  0.6442 -0.0491  0.1572
  163SAPE   H7S18310   0.814   2.340   7.726 -0.1697  0.3541 -0.8445
  163SAPE   C2818311   0.661   2.427   7.825  0.6433 -0.7361  0.1050
  163SAPE   H8R18312   0.580   2.413   7.752 -1.0893  0.0683  1.7598
  163SAPE   C2918313   0.636   2.429   7.961 -0.2825 -0.5398  0.0356
  163SAPE   H9R18314   0.529   2.419   7.987 -0.3293  2.0880  1.1350
  163SAPE  C21018315   0.723   2.446   8.082 -0.1007 -0.3574  0.5067
  163SAPE  H10R18316   0.778   2.541   8.068 -1.5873  0.6759  1.4004
  163SAPE  H10S18317   0.791   2.358   8.087 -0.7706 -0.8733  0.8087
  163SAPE  C21118318   0.634   2.443   8.203 -0.3383 -0.7739  0.1313
  163SAPE  H11R18319   0.588   2.541   8.222  0.1557 -0.9558  2.5677
  163SAPE  C21218320   0.605   2.349   8.299  0.9006 -0.3421  0.4013
  163SAPE  H12R18321   0.536   2.377   8.380  3.1619  0.1321  2.2705
  163SAPE  C21318322   0.644   2.208   8.318 -0.8628 -0.9654  0.2236
  163SAPE  H13R18323   0.744   2.201   8.269 -0.6593  0.9370  0.3039
  163SAPE  H13S18324   0.565   2.148   8.268 -1.0800 -1.1215  0.7483
  163SAPE  C21418325   0.646   2.170   8.468  0.1191 -0.5345 -0.5075
  163SAPE  H14R18326   0.722   2.226   8.525  0.9421 -1.5147 -0.6295
  163SAPE  C21518327   0.561   2.084   8.537  1.2884  0.2108 -0.5159
  163SAPE  H15R18328   0.572   2.099   8.646 -2.4774  2.2169 -0.2622
  163SAPE  C21618329   0.442   1.993   8.486 -0.8215 -0.1357  0.1521
  163SAPE  H16R18330   0.420   2.010   8.379  0.4584 -1.3823 -0.3363
  163SAPE  H16S18331   0.353   2.012   8.551  0.8144  2.1694  1.8746
  163SAPE  C21718332   0.486   1.842   8.514  0.2486  0.5576 -0.3482
  163SAPE  H17R18333   0.502   1.816   8.621  0.0132 -0.2356 -0.5010
  163SAPE  H17S18334   0.580   1.819   8.460  0.1149 -2.0521  0.3615
  163SAPE  C21818335   0.388   1.731   8.459  0.3017  0.1663  0.2505
  163SAPE  H18R18336   0.283   1.746   8.492 -0.7744  0.3265 -2.8926
  163SAPE  H18S18337   0.416   1.637   8.511 -0.6217  1.3292  3.0326
  163SAPE  C21918338   0.392   1.711   8.306  0.6193  0.0112 -0.6764
  163SAPE  H19R18339   0.497   1.691   8.274  1.4745  0.1599  1.8329
  163SAPE  H19S18340   0.369   1.805   8.251  1.9719  0.7608 -0.0098
  163SAPE  C22018341   0.302   1.600   8.254 -0.2812  0.1344  0.9680
  163SAPE  H20R18342   0.199   1.614   8.295  0.2047 -0.3300  2.3828
  163SAPE  H20S18343   0.335   1.497   8.277  0.5633 -0.2177 -1.5315
  163SAPE  H20T18344   0.292   1.612   8.144 -0.5240 -1.5183  0.7884
  163SAPE   C3318345   0.307   2.222   7.360 -0.1156  0.2476  0.4524
  163SAPE   H3X18346   0.256   2.317   7.335 -1.9746 -0.6043  0.8641
  163SAPE   H3Y18347   0.414   2.248   7.375  0.3677 -1.3160 -0.0063
  163SAPE   C3418348   0.263   2.173   7.494  0.1638  0.1542 -0.1612
  163SAPE   H4X18349   0.312   2.075   7.513  5.1551  2.0129 -2.0412
  163SAPE   H4Y18350   0.155   2.150   7.505  0.1552 -0.5322 -1.4290
  163SAPE   C3518351   0.304   2.270   7.611  0.4054 -1.0777 -0.1508
  163SAPE   H5X18352   0.243   2.362   7.598  1.6734  0.0609  1.3668
  163SAPE   H5Y18353   0.406   2.312   7.592  0.0948 -0.1691  0.1124
  163SAPE   C3618354   0.278   2.212   7.748 -0.2246 -0.2640  0.1622
  163SAPE   H6X18355   0.188   2.147   7.752 -0.8469  0.3570 -2.0514
  163SAPE   H6Y18356   0.247   2.302   7.806  0.3342  0.5668 -0.7871
  163SAPE   C3718357   0.388   2.133   7.808 -1.3865  0.1689 -0.4134
  163SAPE   H7X18358   0.486   2.185   7.811  0.0215 -1.8355 -4.3893
  163SAPE   H7Y18359   0.404   2.043   7.744  0.1832 -0.2354  0.4904
  163SAPE   C3818360   0.361   2.079   7.947 -0.1319  0.1479  0.6689
  163SAPE   H8X18361   0.253   2.063   7.968 -0.6295 -1.2841 -2.4246
  163SAPE   H8Y18362   0.412   2.146   8.020 -0.1757  0.6710  0.2210
  163SAPE   C3918363   0.418   1.936   7.979  0.0145  0.9384 -0.1807
  163SAPE   H9X18364   0.428   1.880   7.883  0.7885 -1.3167  1.1198
  163SAPE   H9Y18365   0.376   1.874   8.062 -0.4150 -0.3333 -1.3100
  163SAPE  C31018366   0.560   1.952   8.034 -0.1674  0.2565 -0.0983
  163SAPE  H10X18367   0.561   1.976   8.143 -1.7820  1.1399 -0.2438
  163SAPE  H10Y18368   0.615   2.035   7.985  0.1810  2.1329  3.1384
  163SAPE  C31118369   0.654   1.835   8.001 -0.1999  1.4581 -0.3616
  163SAPE  H11X18370   0.634   1.817   7.893 -0.0500  1.8082 -0.4467
  163SAPE  H11Y18371   0.625   1.748   8.064  1.0764  1.3709  0.1228
  163SAPE  C31218372   0.804   1.865   8.016  0.1084 -0.2276 -0.3103
  163SAPE  H12X18373   0.829   1.955   7.956  2.0790 -0.0898  0.6333
  163SAPE  H12Y18374   0.859   1.784   7.964  0.0907  0.4564 -1.4149
  163SAPE  C31318375   0.836   1.866   8.165  0.5142 -0.4912 -0.1737
  163SAPE  H13X18376   0.795   1.773   8.210 -2.1834  0.7705  0.1667
  163SAPE  H13Y18377   0.787   1.950   8.218  2.6545  0.0647  1.0450
  163SAPE  C31418378   0.987   1.879   8.180  0.6921 -0.2816  0.1286
  163SAPE  H14X18379   1.017   1.979   8.141  0.0607 -0.3208 -0.4670
  163SAPE  H14Y18380   1.044   1.800   8.126  0.6349  0.1601 -0.5859
  163SAPE  C31518381   1.029   1.864   8.328 -0.5434  0.3133 -0.2304
  163SAPE  H15X18382   1.137   1.837   8.321 -0.5148  0.3386  0.1090
  163SAPE  H15Y18383   0.965   1.788   8.377  1.1606 -0.6914  0.5252
  163SAPE  C31618384   1.015   1.996   8.405 -0.8945  0.4023  0.2812
  163SAPE  H16X18385   0.930   2.056   8.367 -1.4952 -0.2483  0.5780
  163SAPE  H16Y18386   1.104   2.057   8.375 -0.3215 -0.2606  0.6039
  163SAPE  C31718387   1.001   1.971   8.559  0.1934  0.3224  0.0617
  163SAPE  H17X18388   0.924   1.891   8.565 -1.0861  1.4546 -0.7665
  163SAPE  H17Y18389   0.960   2.066   8.600 -1.6940 -0.1835 -0.5493
  163SAPE  C31818390   1.125   1.934   8.629  0.1866 -0.7668 -0.6719
  163SAPE  H18X18391   1.099   1.919   8.736  0.6444 -2.3042 -0.7615
  163SAPE  H18Y18392   1.205   2.012   8.625  0.5196 -0.7827  2.4796
  163SAPE  H18Z18393   1.177   1.843   8.593  0.4132 -0.5031 -1.0193
  164SAPE     N18394   4.215   4.850   5.611 -0.3516 -0.0015  0.4178
  164SAPE   HN118395   4.146   4.816   5.541  0.4251 -1.8090  0.4663
  164SAPE   HN218396   4.166   4.863   5.702  0.2212  0.3743  0.6784
  164SAPE   HN318397   4.254   4.944   5.589 -1.8980  0.6915  0.4327
  164SAPE   C1218398   4.333   4.767   5.622  0.1508  0.0641  0.0428
  164SAPE  H12A18399   4.398   4.791   5.536 -2.7537  2.8357 -1.6052
  164SAPE  H12B18400   4.313   4.657   5.616  1.0430 -0.0499 -0.9845
  164SAPE   C1118401   4.415   4.794   5.755 -0.0192  0.1535  0.5887
  164SAPE  H11A18402   4.514   4.744   5.746  0.5610  1.5845 -2.0805
  164SAPE  H11B18403   4.363   4.750   5.843  0.7106  1.5321  1.7578
  164SAPE     P18404   4.523   4.992   5.888 -0.0997 -0.1920 -0.2236
  164SAPE   O1318405   4.649   4.916   5.881  0.0447 -0.5340  0.0083
  164SAPE   O1418406   4.535   5.139   5.886  0.4123  0.6926  0.5064
  164SAPE   O1218407   4.436   4.933   5.768  0.3163 -0.0399  0.8002
  164SAPE   O1118408   4.447   4.945   6.019 -0.1704  0.2014  0.3634
  164SAPE    C118409   4.314   4.992   6.035 -0.1197  0.2139 -0.3682
  164SAPE    HA18410   4.283   5.081   5.975 -2.7224  0.1858  0.8054
  164SAPE    HB18411   4.245   4.911   6.004  0.9556 -1.4353  1.3945
  164SAPE    C218412   4.268   5.011   6.187 -0.1026 -0.0009  0.8527
  164SAPE    HS18413   4.169   5.060   6.178 -0.4606 -1.0580 -3.2373
  164SAPE   O2118414   4.368   5.092   6.254  0.3378 -0.0346 -0.2621
  164SAPE   C2118415   4.396   5.223   6.214 -0.1751  0.4663  0.1902
  164SAPE   O2218416   4.357   5.277   6.117  0.6776 -0.2813 -0.2661
  164SAPE   C2218417   4.489   5.284   6.314  0.1325 -0.0401 -0.2866
  164SAPE   H2R18418   4.592   5.266   6.277  1.0726  1.3807  1.4987
  164SAPE   H2S18419   4.471   5.392   6.294  0.4218 -0.4669 -3.3150
  164SAPE    C318420   4.250   4.873   6.250  0.2983  0.8018 -0.1371
  164SAPE    HX18421   4.347   4.824   6.226 -1.5211 -1.6300 -3.2771
  164SAPE    HY18422   4.170   4.814   6.202  1.1536 -0.2685 -0.2937
  164SAPE   O3118423   4.226   4.878   6.391 -0.9158 -0.4183 -0.3211
  164SAPE   C3118424   4.103   4.904   6.427 -0.1304  0.0608  0.3278
  164SAPE   O3218425   4.001   4.911   6.358  0.4141 -0.0335  0.3390
  164SAPE   C3218426   4.096   4.910   6.581 -0.1933 -0.2003  0.5298
  164SAPE   H2X18427   4.060   4.813   6.621  1.2328 -0.1844  1.9742
  164SAPE   H2Y18428   4.032   4.998   6.604  0.5250  0.8261 -1.2056
  164SAPE   C2318429   4.468   5.244   6.468 -0.2133 -0.7942  0.1048
  164SAPE   H3R18430   4.463   5.133   6.475  2.1663 -0.9709 -0.1942
  164SAPE   H3S18431   4.368   5.285   6.493 -0.9218 -1.7901 -1.0131
  164SAPE   C2418432   4.581   5.294   6.560 -0.6092  0.3408 -0.3665
  164SAPE   H4R18433   4.623   5.395   6.540 -1.4694  0.7397 -0.2293
  164SAPE   H4S18434   4.668   5.226   6.553 -0.6944  0.0636  1.0136
  164SAPE   C2518435   4.524   5.288   6.697  0.4807  0.7514 -0.2570
  164SAPE   H5R18436   4.426   5.239   6.704 -0.2076  2.1529  0.3474
  164SAPE   C2618437   4.579   5.344   6.808  0.4933 -0.1168 -0.5416
  164SAPE   H6R18438   4.535   5.331   6.908 -0.1013 -1.4666 -0.9652
  164SAPE   C2718439   4.709   5.419   6.806  0.7248 -0.1779 -0.2094
  164SAPE   H7R18440   4.685   5.524   6.834 -0.7447  0.0085 -1.9967
  164SAPE   H7S18441   4.765   5.424   6.710  1.4856  0.6735  0.2675
  164SAPE   C2818442   4.811   5.365   6.905  0.3572  0.8007  0.4933
  164SAPE   H8R18443   4.885   5.294   6.866  0.4765  1.4965 -0.5771
  164SAPE   C2918444   4.823   5.422   7.033  0.0925  0.4644  0.7697
  164SAPE   H9R18445   4.913   5.387   7.087 -1.7310 -0.5156  3.3597
  164SAPE  C21018446   4.735   5.523   7.100 -0.2348  0.8873  0.9938
  164SAPE  H10R18447   4.648   5.465   7.138  0.5580 -1.9001 -1.1026
  164SAPE  H10S18448   4.692   5.592   7.025 -1.9972  0.7743  1.8499
  164SAPE  C21118449   4.797   5.604   7.207  0.4684 -0.8356  0.0747
  164SAPE  H11R18450   4.856   5.691   7.176 -0.0114  0.0894  1.6428
  164SAPE  C21218451   4.813   5.575   7.335 -0.2327 -0.5471  0.3118
  164SAPE  H12R18452   4.864   5.644   7.405 -1.7471  1.6368 -0.6552
  164SAPE  C21318453   4.768   5.442   7.389  0.5268 -0.0247  0.1585
  164SAPE  H13R18454   4.772   5.369   7.306 -1.3133 -0.8609  0.7539
  164SAPE  H13S18455   4.659   5.440   7.415  0.3947  0.2789 -0.3617
  164SAPE  C21418456   4.841   5.376   7.508 -0.3581 -0.3410 -0.1451
  164SAPE  H14R18457   4.859   5.268   7.499 -0.9227 -0.4709  0.1689
  164SAPE  C21518458   4.872   5.436   7.627 -0.1130 -0.7035  0.8194
  164SAPE  H15R18459   4.924   5.380   7.706 -2.6865 -1.6541  1.9433
  164SAPE  C21618460   4.835   5.579   7.660 -0.1982  0.2239 -0.2914
  164SAPE  H16R18461   4.730   5.604   7.634  0.3969  0.6225 -2.5090
  164SAPE  H16S18462   4.904   5.646   7.604  1.7504 -1.2134  0.2484
  164SAPE  C21718463   4.853   5.620   7.808 -0.5362  0.3786 -0.2942
  164SAPE  H17R18464   4.789   5.555   7.871 -0.1439  0.3450  0.0784
  164SAPE  H17S18465   4.827   5.728   7.816 -2.7947  0.0575 -2.0896
  164SAPE  C21818466   4.995   5.597   7.861  0.2020 -0.0611 -0.3516
  164SAPE  H18R18467   5.060   5.656   7.793 -0.2216  1.3522  0.4343
  164SAPE  H18S18468   5.028   5.492   7.849  0.1682  0.1996 -3.4635
  164SAPE  C21918469   5.018   5.668   7.994  0.6719  0.4503  0.3862
  164SAPE  H19R18470   5.006   5.778   7.985 -1.8569  0.1531 -0.6164
  164SAPE  H19S18471   5.121   5.636   8.023  1.0769 -0.0481 -1.4553
  164SAPE  C22018472   4.919   5.629   8.100 -0.0251  0.1886  0.5868
  164SAPE  H20R18473   4.926   5.685   8.196 -2.3780  0.1947  0.8037
  164SAPE  H20S18474   4.918   5.520   8.121  1.0737  0.0212 -0.1670
  164SAPE  H20T18475   4.817   5.657   8.067  0.2311 -0.0829 -0.4854
  164SAPE   C3318476   4.232   4.938   6.654 -0.2078  0.3888 -0.1308
  164SAPE   H3X18477   4.270   5.034   6.613  3.0130 -0.9926 -0.7069
  164SAPE   H3Y18478   4.306   4.857   6.634  2.7260  2.9814 -0.4721
  164SAPE   C3418479   4.211   4.945   6.808 -0.3304 -1.0175  0.0505
  164SAPE   H4X18480   4.308   4.946   6.861  0.6494 -2.0004 -1.6436
  164SAPE   H4Y18481   4.153   4.856   6.843 -0.7689 -2.2144 -3.3236
  164SAPE   C3518482   4.114   5.067   6.850  0.3591  0.3311  0.5430
  164SAPE   H5X18483   4.011   5.029   6.834  0.4982  0.2587 -0.1801
  164SAPE   H5Y18484   4.136   5.143   6.773 -0.6829 -2.3594 -2.6155
  164SAPE   C3618485   4.133   5.112   7.002 -0.1167  0.3413  0.3593
  164SAPE   H6X18486   4.146   5.024   7.068 -2.3671  1.1941  2.0808
  164SAPE   H6Y18487   4.042   5.170   7.029  0.0463  0.7272  0.0941
  164SAPE   C3718488   4.262   5.197   7.024 -0.3329  0.4827 -0.7812
  164SAPE   H7X18489   4.267   5.290   6.963  2.0153  1.9594  1.4515
  164SAPE   H7Y18490   4.355   5.140   7.008 -0.5638 -0.1038 -0.0889
  164SAPE   C3818491   4.252   5.236   7.171  0.1479  0.8763 -0.0535
  164SAPE   H8X18492   4.149   5.256   7.206  0.6457  1.4405  1.1698
  164SAPE   H8Y18493   4.308   5.331   7.181  1.0711  0.1800  2.0161
  164SAPE   C3918494   4.317   5.135   7.272  0.3084 -0.1296 -0.2153
  164SAPE   H9X18495   4.427   5.120   7.259  0.5710 -1.0728  2.4791
  164SAPE   H9Y18496   4.261   5.039   7.274 -2.5146  1.4199  1.6125
  164SAPE  C31018497   4.319   5.186   7.422 -0.5401  0.0968  0.2195
  164SAPE  H10X18498   4.347   5.095   7.479 -1.0093 -1.8231 -2.4253
  164SAPE  H10Y18499   4.213   5.206   7.449 -0.2559  0.6704  0.9416
  164SAPE  C31118500   4.401   5.316   7.443  0.2805  0.1231 -0.5275
  164SAPE  H11X18501   4.376   5.381   7.356 -2.6330 -1.7162 -1.2225
  164SAPE  H11Y18502   4.510   5.299   7.452  0.2000 -0.0404  0.2018
  164SAPE  C31218503   4.350   5.390   7.565 -1.0356 -0.2024  0.0353
  164SAPE  H12X18504   4.240   5.379   7.569 -0.9795 -1.5556 -1.2833
  164SAPE  H12Y18505   4.363   5.500   7.561  4.2766 -0.4335  2.2198
  164SAPE  C31318506   4.397   5.332   7.702  0.2622  0.1074  0.8256
  164SAPE  H13X18507   4.395   5.222   7.689  0.7147  0.2720 -0.9095
  164SAPE  H13Y18508   4.321   5.361   7.778 -1.8361 -2.4279 -0.1264
  164SAPE  C31418509   4.529   5.390   7.760  0.6477  0.0970 -0.9910
  164SAPE  H14X18510   4.548   5.500   7.753 -0.6511  0.3558 -0.7683
  164SAPE  H14Y18511   4.609   5.340   7.703  0.3355 -2.4636  0.6682
  164SAPE  C31518512   4.557   5.349   7.903 -0.1357 -0.2939  0.1957
  164SAPE  H15X18513   4.668   5.353   7.916  0.0383  1.1326 -1.3437
  164SAPE  H15Y18514   4.517   5.247   7.919  2.3705 -1.2777  0.7513
  164SAPE  C31618515   4.492   5.451   7.993  0.5053  0.1030  0.7205
  164SAPE  H16X18516   4.383   5.452   7.967  0.2539  0.3281  1.7506
  164SAPE  H16Y18517   4.530   5.553   7.968 -2.2140  0.7765 -1.1993
  164SAPE  C31718518   4.513   5.416   8.141 -0.7798 -0.0771  0.3992
  164SAPE  H17X18519   4.499   5.308   8.158  1.1694 -0.5387 -0.6529
  164SAPE  H17Y18520   4.441   5.476   8.201  0.4344 -0.4537  2.2949
  164SAPE  C31818521   4.651   5.452   8.205  0.3023  0.2230  0.3144
  164SAPE  H18X18522   4.643   5.442   8.315 -1.0162  0.2999  0.2445
  164SAPE  H18Y18523   4.660   5.562   8.189 -0.3819  0.3658  0.8765
  164SAPE  H18Z18524   4.732   5.395   8.153  1.3299  2.8581 -1.1851
  165SAPE     N18525   4.419   2.930   6.193 -0.2677  0.0788 -0.5671
  165SAPE   HN118526   4.426   2.847   6.131 -1.4048 -0.9944  0.6656
  165SAPE   HN218527   4.339   2.986   6.156 -1.0856 -1.6289 -1.5094
  165SAPE   HN318528   4.508   2.983   6.195 -1.0138  1.3629  0.5748
  165SAPE   C1218529   4.405   2.886   6.333  0.0180  1.0971 -0.0689
  165SAPE  H12A18530   4.423   2.964   6.409 -0.6602 -0.5697  1.8791
  165SAPE  H12B18531   4.480   2.806   6.348 -1.5192 -0.2564  0.8085
  165SAPE   C1118532   4.271   2.825   6.366  0.1324  0.2681 -0.0101
  165SAPE  H11A18533   4.187   2.888   6.331  1.2374  1.6615 -0.2196
  165SAPE  H11B18534   4.289   2.816   6.476  1.6254 -2.3425 -0.3726
  165SAPE     P18535   4.126   2.617   6.346  0.3086 -0.0393 -0.3835
  165SAPE   O1318536   4.013   2.713   6.364 -0.1688  0.0974  0.3792
  165SAPE   O1418537   4.117   2.519   6.233  0.8953 -0.5887  0.3443
  165SAPE   O1218538   4.258   2.697   6.313 -0.5041  0.0032 -0.7796
  165SAPE   O1118539   4.160   2.535   6.477 -0.0496  0.5982 -0.4493
  165SAPE    C118540   4.295   2.496   6.494 -0.4085 -0.2871 -0.1815
  165SAPE    HA18541   4.328   2.438   6.406 -2.0334 -0.0053 -1.0095
  165SAPE    HB18542   4.351   2.589   6.521 -1.5137  0.6733 -1.1027
  165SAPE    C218543   4.321   2.396   6.614  0.1975  0.0083  0.1839
  165SAPE    HS18544   4.249   2.313   6.597 -1.0356  0.8346  1.1345
  165SAPE   O2118545   4.280   2.463   6.733  0.1475  0.3124 -0.5225
  165SAPE   C2118546   4.255   2.383   6.840  0.5326 -0.4212  0.0918
  165SAPE   O2218547   4.266   2.263   6.856 -0.6108 -0.3162  0.2818
  165SAPE   C2218548   4.240   2.467   6.959 -0.6499  0.7440  0.4432
  165SAPE   H2R18549   4.336   2.515   6.990 -0.2325  0.7242 -0.7622
  165SAPE   H2S18550   4.162   2.543   6.941 -0.3400  0.9007 -0.2907
  165SAPE    C318551   4.465   2.348   6.623  0.5014 -0.0522 -0.2001
  165SAPE    HX18552   4.488   2.291   6.531  0.1982 -0.5384  0.0222
  165SAPE    HY18553   4.467   2.269   6.701 -0.3075 -0.3422 -0.4722
  165SAPE   O3118554   4.556   2.453   6.649 -0.6292  0.8283  0.6654
  165SAPE   C3118555   4.616   2.511   6.547  0.1226 -0.0498  0.3114
  165SAPE   O3218556   4.613   2.473   6.430  0.4116  0.3443 -0.6607
  165SAPE   C3218557   4.685   2.636   6.599  0.1427  0.1501  0.2714
  165SAPE   H2X18558   4.608   2.703   6.643  0.0503 -0.1244  0.5259
  165SAPE   H2Y18559   4.747   2.682   6.519  0.1107  0.9067  0.6667
  165SAPE   C2318560   4.193   2.381   7.090 -0.3663 -0.3080 -0.0963
  165SAPE   H3R18561   4.285   2.339   7.135  0.2492  1.6984  0.6598
  165SAPE   H3S18562   4.113   2.308   7.067 -0.2126 -0.5879  0.2520
  165SAPE   C2418563   4.152   2.467   7.221  0.0022  0.5163 -0.0843
  165SAPE   H4R18564   4.144   2.398   7.308 -1.8547  0.1572 -0.4939
  165SAPE   H4S18565   4.043   2.485   7.208  0.2376  2.1970  0.0752
  165SAPE   C2518566   4.225   2.597   7.250 -0.2424 -0.1634  0.0424
  165SAPE   H5R18567   4.176   2.688   7.211 -0.4464  0.4567  1.6806
  165SAPE   C2618568   4.346   2.601   7.315  1.0635  0.3399  0.3032
  165SAPE   H6R18569   4.376   2.704   7.338 -3.4818  2.2922 -1.2841
  165SAPE   C2718570   4.414   2.478   7.361 -0.4454  0.0368  0.1335
  165SAPE   H7R18571   4.503   2.466   7.295 -0.2829 -0.0284  0.3623
  165SAPE   H7S18572   4.352   2.390   7.332 -1.1027  0.0497  1.4236
  165SAPE   C2818573   4.459   2.472   7.506 -0.0132  0.6232  0.1590
  165SAPE   H8R18574   4.545   2.538   7.526  0.1931  0.8570 -1.3880
  165SAPE   C2918575   4.386   2.428   7.611  0.2384  0.0377  0.1060
  165SAPE   H9R18576   4.435   2.438   7.709  1.4553  2.6415 -0.6930
  165SAPE  C21018577   4.254   2.366   7.594  0.2589  0.2622  0.6518
  165SAPE  H10R18578   4.252   2.283   7.667  1.3412  0.2080  0.6261
  165SAPE  H10S18579   4.231   2.326   7.493 -1.9047  2.1590  0.2905
  165SAPE  C21118580   4.141   2.460   7.607  0.2298 -0.0445 -0.0672
  165SAPE  H11R18581   4.132   2.536   7.527 -2.6404 -0.1112  0.0812
  165SAPE  C21218582   4.055   2.482   7.708  0.0266 -0.2216  0.5443
  165SAPE  H12R18583   3.985   2.565   7.689  2.3817  1.7891  0.2371
  165SAPE  C21318584   4.055   2.420   7.841 -0.5881  0.2485 -0.1081
  165SAPE  H13R18585   4.155   2.425   7.888 -0.3009  1.6239 -0.8285
  165SAPE  H13S18586   4.021   2.314   7.849  2.1421 -0.6443  0.6505
  165SAPE  C21418587   3.948   2.485   7.931  0.3940  0.1860  0.3475
  165SAPE  H14R18588   3.849   2.494   7.885  0.3533 -0.7742  0.2098
  165SAPE  C21518589   3.959   2.530   8.059  0.5063 -0.7709 -0.0687
  165SAPE  H15R18590   3.867   2.572   8.103 -1.2361 -1.2740 -2.9495
  165SAPE  C21618591   4.086   2.512   8.126 -0.0092 -0.0793 -0.1421
  165SAPE  H16R18592   4.157   2.594   8.102 -1.0946  0.7880 -0.4534
  165SAPE  H16S18593   4.133   2.415   8.099  2.3219  0.9059  0.1158
  165SAPE  C21718594   4.089   2.507   8.278  0.0377 -0.5569 -0.1490
  165SAPE  H17R18595   4.044   2.408   8.297 -0.9300 -0.5682 -2.2246
  165SAPE  H17S18596   4.029   2.582   8.333  2.6282  0.6327  1.2353
  165SAPE  C21818597   4.232   2.511   8.335 -0.1944  0.5550 -0.4321
  165SAPE  H18R18598   4.278   2.595   8.279  1.0381 -1.0011 -1.8624
  165SAPE  H18S18599   4.284   2.418   8.303 -0.5611  0.4335 -0.6926
  165SAPE  C21918600   4.238   2.529   8.487 -0.5760  0.3133  0.4728
  165SAPE  H19R18601   4.178   2.617   8.518 -0.7737  0.1287  0.6182
  165SAPE  H19S18602   4.339   2.550   8.529 -0.6602  1.8211 -0.0347
  165SAPE  C22018603   4.198   2.408   8.570 -0.0581 -0.8870  0.3842
  165SAPE  H20R18604   4.098   2.375   8.533 -0.9004  0.0316  1.7819
  165SAPE  H20S18605   4.195   2.426   8.679 -1.3355 -2.0991  0.5931
  165SAPE  H20T18606   4.258   2.318   8.545  0.0940 -0.5396 -0.5577
  165SAPE   C3318607   4.791   2.604   6.716 -0.1719  0.3767 -0.1527
  165SAPE   H3X18608   4.865   2.535   6.670 -1.1537 -1.6083  1.0844
  165SAPE   H3Y18609   4.747   2.538   6.794 -0.7664  2.5546  1.4303
  165SAPE   C3418610   4.863   2.725   6.784 -0.1383  0.6026  0.2488
  165SAPE   H4X18611   4.782   2.776   6.839 -0.0307  1.2781 -0.2101
  165SAPE   H4Y18612   4.910   2.791   6.708  1.0546 -0.8901 -0.3782
  165SAPE   C3518613   4.959   2.680   6.895  0.2253 -0.6502  0.4744
  165SAPE   H5X18614   5.018   2.761   6.943  2.6577 -1.7925 -0.4206
  165SAPE   H5Y18615   5.031   2.617   6.839  0.6798 -0.4577  0.8357
  165SAPE   C3618616   4.901   2.590   7.009  0.0550 -0.6928  0.6075
  165SAPE   H6X18617   4.976   2.570   7.088  1.1447  1.0261  0.0614
  165SAPE   H6Y18618   4.873   2.496   6.956  2.3429  0.3021 -2.7435
  165SAPE   C3718619   4.784   2.655   7.086  0.6363  0.2558  0.0986
  165SAPE   H7X18620   4.699   2.672   7.016  1.4988  1.7023 -0.6476
  165SAPE   H7Y18621   4.817   2.755   7.121 -0.7390  0.2182  1.6319
  165SAPE   C3818622   4.743   2.588   7.220 -0.4891  0.1163  0.4305
  165SAPE   H8X18623   4.695   2.488   7.208  0.2152 -0.0248 -1.5521
  165SAPE   H8Y18624   4.661   2.654   7.256 -0.4984 -0.1844  0.9651
  165SAPE   C3918625   4.866   2.575   7.320  0.1773 -0.4419  0.0486
  165SAPE   H9X18626   4.923   2.670   7.323  1.7467 -1.3471  0.3328
  165SAPE   H9Y18627   4.943   2.498   7.297  2.3918  1.8224 -0.5313
  165SAPE  C31018628   4.817   2.562   7.467 -0.8333  0.5329 -0.4330
  165SAPE  H10X18629   4.770   2.463   7.481  0.7573 -0.3726 -1.1336
  165SAPE  H10Y18630   4.751   2.650   7.483  1.2803  1.9829  0.8985
  165SAPE  C31118631   4.925   2.578   7.581  1.2509  0.1004  0.0966
  165SAPE  H11X18632   4.995   2.664   7.585 -0.9125  1.9211  2.1377
  165SAPE  H11Y18633   4.994   2.491   7.576  1.9597  0.6203  0.5850
  165SAPE  C31218634   4.860   2.585   7.716  0.0833 -0.4737 -0.7335
  165SAPE  H12X18635   4.788   2.502   7.725  2.1718 -2.5516 -1.9852
  165SAPE  H12Y18636   4.814   2.685   7.731 -0.3379 -0.6208 -1.0493
  165SAPE  C31318637   4.974   2.566   7.829  0.1829 -0.1183 -0.2856
  165SAPE  H13X18638   5.054   2.642   7.820  0.2083  0.2359  2.2116
  165SAPE  H13Y18639   5.012   2.464   7.809 -2.7408 -1.1987 -0.9195
  165SAPE  C31418640   4.915   2.581   7.972  0.2657  0.3866  0.2263
  165SAPE  H14X18641   4.828   2.515   7.991  0.3583  0.6787  1.8170
  165SAPE  H14Y18642   4.879   2.685   7.990  0.1703  0.2144  1.0750
  165SAPE  C31518643   5.029   2.542   8.072  0.0006 -0.3427  0.4732
  165SAPE  H15X18644   5.119   2.599   8.039  0.5708 -1.0915  0.7129
  165SAPE  H15Y18645   5.043   2.432   8.061 -0.6391 -0.2750 -1.1810
  165SAPE  C31618646   5.001   2.571   8.217 -0.1398 -0.1891  0.4865
  165SAPE  H16X18647   4.907   2.522   8.251  0.0059 -1.7564 -1.2252
  165SAPE  H16Y18648   4.987   2.680   8.234  1.0127 -0.0500  0.6090
  165SAPE  C31718649   5.111   2.504   8.300  0.5792  0.1201 -0.0860
  165SAPE  H17X18650   5.211   2.549   8.282  0.5722  0.3431  0.4185
  165SAPE  H17Y18651   5.126   2.397   8.274  1.3523  0.4592 -1.1284
  165SAPE  C31818652   5.071   2.518   8.447 -0.0671  0.4345 -0.3059
  165SAPE  H18X18653   5.140   2.457   8.508  0.3193  2.2921  1.2309
  165SAPE  H18Y18654   4.965   2.493   8.470  0.6435 -0.6752  2.0867
  165SAPE  H18Z18655   5.082   2.621   8.487  0.1676  0.0557  0.6428
  166SAPE     N18656   3.461   5.581   5.825  0.0641  0.7795  0.7726
  166SAPE   HN118657   3.521   5.496   5.828 -1.6673 -0.6425 -1.3727
  166SAPE   HN218658   3.364   5.562   5.858  1.2013 -2.5601  2.6878
  166SAPE   HN318659   3.446   5.608   5.726  1.5838 -0.3946  0.1763
  166SAPE   C1218660   3.514   5.708   5.891  0.0685  0.1682  0.2759
  166SAPE  H12A18661   3.561   5.674   5.986  3.4471 -1.3286 -1.7293
  166SAPE  H12B18662   3.421   5.766   5.912 -0.0893  0.6236 -1.5213
  166SAPE   C1118663   3.627   5.780   5.807  0.2365 -0.6873  0.2675
  166SAPE  H11A18664   3.651   5.879   5.851 -0.8766  1.0584 -2.7177
  166SAPE  H11B18665   3.576   5.802   5.711 -2.1412  0.1119  1.6346
  166SAPE     P18666   3.885   5.754   5.764  0.4234  0.3372 -0.1759
  166SAPE   O1318667   3.991   5.651   5.740  0.1005  0.6178  0.0135
  166SAPE   O1418668   3.872   5.858   5.660  0.3106 -0.1053  0.3401
  166SAPE   O1218669   3.737   5.696   5.797 -0.3248  0.2325  0.8889
  166SAPE   O1118670   3.906   5.829   5.896  0.1706 -0.0697  0.0889
  166SAPE    C118671   3.910   5.750   6.014 -0.7527  0.2850 -0.1585
  166SAPE    HA18672   3.809   5.710   6.037 -1.8288  2.9934  0.2286
  166SAPE    HB18673   3.983   5.666   6.005 -0.1287  0.9436 -1.4394
  166SAPE    C218674   3.948   5.834   6.143  0.7153 -0.5467  0.1439
  166SAPE    HS18675   4.049   5.877   6.128 -0.3604  1.3898 -2.2485
  166SAPE   O2118676   3.946   5.749   6.263 -0.1953 -0.6064  0.1963
  166SAPE   C2118677   4.028   5.652   6.272  0.1760  0.6599  0.0501
  166SAPE   O2218678   4.134   5.642   6.210  0.5283  0.2159  0.2031
  166SAPE   C2218679   3.982   5.559   6.374 -0.8171  0.0671 -0.4230
  166SAPE   H2R18680   3.959   5.610   6.470  0.2647  1.3917 -0.8299
  166SAPE   H2S18681   3.882   5.520   6.345 -1.9529  0.8261  2.2014
  166SAPE    C318682   3.850   5.954   6.174  0.1340 -0.4808 -0.2302
  166SAPE    HX18683   3.747   5.915   6.188  1.6730 -4.1562  2.4164
  166SAPE    HY18684   3.853   6.021   6.085  0.2330  2.0012  1.5200
  166SAPE   O3118685   3.902   6.034   6.290 -0.2312 -0.2174 -0.5026
  166SAPE   C3118686   3.793   6.099   6.340  0.2691 -0.1522 -0.3261
  166SAPE   O3218687   3.677   6.084   6.306 -0.4025 -0.3940  0.0200
  166SAPE   C3218688   3.839   6.182   6.465  0.3698  0.3833  0.3256
  166SAPE   H2X18689   3.820   6.289   6.443  0.1224 -0.0647 -1.9676
  166SAPE   H2Y18690   3.947   6.168   6.484  0.1013 -1.1474  0.9313
  166SAPE   C2318691   4.076   5.435   6.403  1.0348 -0.9508  0.0163
  166SAPE   H3R18692   4.168   5.469   6.455  1.0537 -1.1405  0.1072
  166SAPE   H3S18693   4.115   5.391   6.309 -1.5941 -1.2895 -0.9879
  166SAPE   C2418694   4.027   5.316   6.484 -0.1169  0.0454  0.7183
  166SAPE   H4R18695   3.984   5.358   6.577 -1.3124  0.8870 -0.1818
  166SAPE   H4S18696   4.116   5.257   6.513  0.4209 -0.7847 -2.2689
  166SAPE   C2518697   3.922   5.231   6.423 -0.3185 -0.1198  0.0470
  166SAPE   H5R18698   3.939   5.201   6.319 -0.0358 -0.8715  0.2992
  166SAPE   C2618699   3.808   5.187   6.490  0.5482 -0.5135 -0.0936
  166SAPE   H6R18700   3.745   5.107   6.448 -2.2207  0.1076  2.5435
  166SAPE   C2718701   3.781   5.210   6.636 -0.3460  0.2054 -0.0739
  166SAPE   H7R18702   3.751   5.317   6.646  0.4358  0.3246  1.2795
  166SAPE   H7S18703   3.872   5.206   6.701 -0.1226 -0.1234 -0.4025
  166SAPE   C2818704   3.658   5.132   6.678  0.1039 -0.0917 -0.8586
  166SAPE   H8R18705   3.595   5.080   6.603  0.3365 -1.0514 -0.4044
  166SAPE   C2918706   3.614   5.115   6.811  0.8661 -0.6512 -0.1005
  166SAPE   H9R18707   3.527   5.050   6.826 -0.2319  0.8635  0.4276
  166SAPE  C21018708   3.682   5.166   6.938 -0.0501  0.2965 -0.0683
  166SAPE  H10R18709   3.675   5.277   6.934 -0.5624  0.2509 -0.6549
  166SAPE  H10S18710   3.791   5.143   6.942  0.0751  0.4829 -1.6863
  166SAPE  C21118711   3.614   5.114   7.063 -0.2477 -0.0628  0.5427
  166SAPE  H11R18712   3.504   5.110   7.063 -0.3326  1.6062  1.0522
  166SAPE  C21218713   3.670   5.103   7.189 -0.3617  0.2799 -0.0259
  166SAPE  H12R18714   3.617   5.053   7.271  0.6382 -0.8914 -0.0660
  166SAPE  C21318715   3.815   5.126   7.220  0.0237 -0.4015 -0.8647
  166SAPE  H13R18716   3.817   5.181   7.317 -1.6642 -2.8031  0.6362
  166SAPE  H13S18717   3.871   5.193   7.150 -0.0975  0.8561  0.1932
  166SAPE  C21418718   3.892   5.000   7.234 -0.0350 -0.4023 -0.4511
  166SAPE  H14R18719   3.917   4.935   7.149  1.3174 -1.0462  0.3968
  166SAPE  C21518720   3.943   4.955   7.355  0.1910 -0.5654 -0.2355
  166SAPE  H15R18721   4.002   4.862   7.363 -0.6316 -1.0584  0.2478
  166SAPE  C21618722   3.923   5.021   7.493  0.0856  0.4332  0.1857
  166SAPE  H16R18723   3.813   5.019   7.509 -0.2650 -1.0655 -1.9147
  166SAPE  H16S18724   3.954   5.128   7.488  1.2868  0.0587 -1.2296
  166SAPE  C21718725   4.008   4.954   7.603  0.5091  0.2333 -1.1182
  166SAPE  H17R18726   4.116   4.954   7.578  0.7362  1.6534 -0.2539
  166SAPE  H17S18727   3.977   4.849   7.624 -0.7759  0.8969  0.5007
  166SAPE  C21818728   4.009   5.027   7.738 -0.1475 -0.2979 -0.3796
  166SAPE  H18R18729   4.056   4.958   7.812 -3.0975 -2.2837 -0.1584
  166SAPE  H18S18730   3.905   5.047   7.771  0.1135  0.5490 -0.0382
  166SAPE  C21918731   4.085   5.162   7.739 -0.5207 -0.2437  1.0207
  166SAPE  H19R18732   4.021   5.233   7.682  1.1378  1.6122  1.3886
  166SAPE  H19S18733   4.174   5.163   7.672 -1.8170  0.0883 -0.7918
  166SAPE  C22018734   4.098   5.226   7.878 -0.2453 -0.2003 -0.1875
  166SAPE  H20R18735   4.131   5.332   7.871 -1.0370  0.1173  0.7481
  166SAPE  H20S18736   4.154   5.157   7.944  0.3780 -0.9847 -1.4875
  166SAPE  H20T18737   4.003   5.241   7.933  0.9808 -0.5561  2.1861
  166SAPE   C3318738   3.756   6.139   6.588 -0.4271  0.5706 -0.2429
  166SAPE   H3X18739   3.660   6.096   6.551  1.4290 -3.8239 -0.5593
  166SAPE   H3Y18740   3.731   6.224   6.654  0.9227 -1.0790  2.5980
  166SAPE   C3418741   3.817   6.065   6.704  0.4043 -0.3139  0.2106
  166SAPE   H4X18742   3.882   6.139   6.755 -0.0589  0.4436 -0.2780
  166SAPE   H4Y18743   3.895   5.995   6.666 -0.7763 -0.7259 -1.6030
  166SAPE   C3518744   3.712   5.994   6.778  0.0530 -0.0658  0.1478
  166SAPE   H5X18745   3.673   5.903   6.728 -2.0175 -1.4912  3.9061
  166SAPE   H5Y18746   3.623   6.061   6.782 -0.8029 -0.9223 -2.4750
  166SAPE   C3618747   3.749   5.934   6.918 -0.2220  0.6480  0.1138
  166SAPE   H6X18748   3.812   6.003   6.979 -1.1462  1.4927  0.1513
  166SAPE   H6Y18749   3.800   5.836   6.915 -0.9323  0.2713  0.2327
  166SAPE   C3718750   3.627   5.909   7.011 -0.4311 -0.5418 -0.7950
  166SAPE   H7X18751   3.558   5.833   6.970 -1.9718  1.7265 -2.6186
  166SAPE   H7Y18752   3.571   6.002   7.034  2.0516  1.1097 -0.9813
  166SAPE   C3818753   3.679   5.874   7.151 -0.3136 -0.1894 -0.0382
  166SAPE   H8X18754   3.742   5.962   7.174  1.9245 -0.8932 -2.9306
  166SAPE   H8Y18755   3.747   5.786   7.147  0.6126  0.5643 -2.8606
  166SAPE   C3918756   3.561   5.872   7.252  0.3061  0.4871  0.0088
  166SAPE   H9X18757   3.482   5.801   7.220 -1.0453  1.2995  1.4258
  166SAPE   H9Y18758   3.533   5.979   7.264  0.6560  0.6271 -0.3675
  166SAPE  C31018759   3.611   5.823   7.390 -1.1606  0.2846  0.1864
  166SAPE  H10X18760   3.682   5.904   7.419 -0.8315  1.2071 -2.8772
  166SAPE  H10Y18761   3.649   5.719   7.381 -1.5236 -0.0198  1.7806
  166SAPE  C31118762   3.511   5.835   7.502 -0.0528 -0.8457  0.2634
  166SAPE  H11X18763   3.435   5.760   7.473 -0.1853 -0.4477 -0.4438
  166SAPE  H11Y18764   3.451   5.928   7.493 -0.7438 -1.2704  0.4486
  166SAPE  C31218765   3.562   5.808   7.637  0.2320  0.4699 -0.4846
  166SAPE  H12X18766   3.642   5.884   7.655  0.1318  0.4751 -0.0411
  166SAPE  H12Y18767   3.610   5.708   7.629  1.2925  0.9749 -0.6372
  166SAPE  C31318768   3.454   5.810   7.748  0.3607 -0.2290  0.2340
  166SAPE  H13X18769   3.374   5.736   7.726  0.9961 -0.2313 -2.3251
  166SAPE  H13Y18770   3.404   5.909   7.753  1.2706  0.2696 -0.2707
  166SAPE  C31418771   3.520   5.763   7.883  0.2976  0.0388  0.5915
  166SAPE  H14X18772   3.620   5.810   7.886 -0.6760  2.2798 -0.2449
  166SAPE  H14Y18773   3.538   5.653   7.880 -1.8826 -0.4016  1.4661
  166SAPE  C31518774   3.440   5.794   8.008  0.5084 -0.1450 -0.4351
  166SAPE  H15X18775   3.343   5.740   7.997  0.4014 -0.5068  1.7931
  166SAPE  H15Y18776   3.402   5.898   7.998 -1.5995 -0.5778  1.9434
  166SAPE  C31618777   3.520   5.782   8.141  0.7880  0.5619 -0.9325
  166SAPE  H16X18778   3.455   5.814   8.225  1.5918  1.6618 -0.6928
  166SAPE  H16Y18779   3.605   5.854   8.138  1.3282 -0.0443 -0.4335
  166SAPE  C31718780   3.557   5.636   8.191  0.4840 -0.0261  0.6995
  166SAPE  H17X18781   3.619   5.590   8.111 -0.0329 -0.3674  0.4870
  166SAPE  H17Y18782   3.465   5.573   8.188  1.6995 -1.9836  2.1172
  166SAPE  C31818783   3.614   5.630   8.330  0.0758  0.0136 -0.7740
  166SAPE  H18X18784   3.553   5.663   8.416  1.4469 -0.1455  0.2934
  166SAPE  H18Y18785   3.703   5.698   8.333  0.4690 -0.5132 -0.3830
  166SAPE  H18Z18786   3.643   5.524   8.347  0.3377  0.1951 -0.0572
  167SAPE     N18787   4.860   5.098   5.884 -0.1541 -0.0714 -0.2664
  167SAPE   HN118788   4.939   5.032   5.892 -0.0227 -0.1640 -2.0053
  167SAPE   HN218789   4.776   5.039   5.870  0.3922 -0.9023 -0.0996
  167SAPE   HN318790   4.885   5.149   5.797 -0.8284 -1.5341 -1.3581
  167SAPE   C1218791   4.856   5.184   6.016  0.3893  0.0831  0.6588
  167SAPE  H12A18792   4.838   5.119   6.104 -0.6241  2.1304  2.0616
  167SAPE  H12B18793   4.756   5.230   6.002 -1.1634 -2.9485  1.0726
  167SAPE   C1118794   4.978   5.275   6.018 -0.0742  0.1898 -0.1922
  167SAPE  H11A18795   4.968   5.350   6.099  1.6446 -0.1239  0.3601
  167SAPE  H11B18796   4.989   5.330   5.922 -0.1552  1.1483  0.3329
  167SAPE     P18797   5.233   5.280   6.081 -0.0827  0.1354 -0.4794
  167SAPE   O1318798   5.324   5.261   5.970 -0.4078 -0.5958 -0.2390
  167SAPE   O1418799   5.197   5.415   6.107 -0.2188 -0.0013 -0.8033
  167SAPE   O1218800   5.100   5.205   6.042 -0.1013  0.1752  0.4267
  167SAPE   O1118801   5.274   5.202   6.212  0.2619  0.7100 -0.0928
  167SAPE    C118802   5.197   5.102   6.278 -0.1596 -0.0830 -0.1033
  167SAPE    HA18803   5.151   5.034   6.203 -0.2370  1.1503 -1.2093
  167SAPE    HB18804   5.263   5.048   6.349  0.0866  0.5136  0.1339
  167SAPE    C218805   5.085   5.166   6.355  0.4402 -0.1444 -0.1387
  167SAPE    HS18806   5.027   5.215   6.273  1.4971  0.8185 -0.3356
  167SAPE   O2118807   5.127   5.257   6.451 -0.5394 -0.6749 -0.1991
  167SAPE   C2118808   5.034   5.362   6.459 -0.3436  1.1649  0.6201
  167SAPE   O2218809   4.938   5.376   6.383  0.8757  0.5014 -0.0268
  167SAPE   C2218810   5.088   5.452   6.574 -0.4517  0.2743 -0.0612
  167SAPE   H2R18811   5.091   5.390   6.666  2.7532 -0.1409 -0.3105
  167SAPE   H2S18812   5.195   5.474   6.551 -0.0732 -1.1635  0.2236
  167SAPE    C318813   4.996   5.058   6.415  0.1423 -0.1366  0.5799
  167SAPE    HX18814   4.952   5.011   6.324 -1.6494  3.4426 -0.6223
  167SAPE    HY18815   4.907   5.109   6.459  0.0395  0.0793  0.1306
  167SAPE   O3118816   5.060   4.976   6.503  0.8069  0.3590  0.1190
  167SAPE   C3118817   5.052   5.006   6.633  0.4337  0.1959 -0.3105
  167SAPE   O3218818   4.992   5.099   6.685  0.6653  0.0326 -0.2212
  167SAPE   C3218819   5.103   4.890   6.713 -0.2664  0.2344 -0.3826
  167SAPE   H2X18820   5.213   4.890   6.697 -0.2951  1.0002 -0.6149
  167SAPE   H2Y18821   5.057   4.798   6.671 -0.2907  0.2953 -0.4898
  167SAPE   C2318822   5.009   5.591   6.579 -0.5748 -0.1123 -0.6979
  167SAPE   H3R18823   4.901   5.572   6.592 -0.8879  0.9263 -1.6645
  167SAPE   H3S18824   5.030   5.644   6.484  3.4856  0.2899  0.2333
  167SAPE   C2418825   5.061   5.705   6.671  0.5369 -0.3598  0.4011
  167SAPE   H4R18826   4.999   5.797   6.661  0.9456 -0.2136 -1.1221
  167SAPE   H4S18827   5.164   5.745   6.654  0.8307 -1.7852 -1.6417
  167SAPE   C2518828   5.052   5.658   6.816 -0.2988  0.2950 -0.5246
  167SAPE   H5R18829   4.953   5.626   6.855  0.4688 -1.5916  0.0031
  167SAPE   C2618830   5.157   5.639   6.894 -0.3575 -0.1120 -1.0824
  167SAPE   H6R18831   5.135   5.630   7.002  0.2480 -0.8840 -1.0160
  167SAPE   C2718832   5.303   5.648   6.864 -0.7520  0.4319 -0.1022
  167SAPE   H7R18833   5.333   5.751   6.835  0.1166  0.0702 -0.5520
  167SAPE   H7S18834   5.325   5.600   6.766 -1.5461  1.9032 -1.0316
  167SAPE   C2818835   5.406   5.615   6.970 -0.0470 -0.3442  1.0296
  167SAPE   H8R18836   5.480   5.543   6.931 -0.7660 -0.4270 -0.2391
  167SAPE   C2918837   5.417   5.668   7.087  0.2802  0.1804 -0.0618
  167SAPE   H9R18838   5.505   5.636   7.144  0.1482 -1.8694 -0.9137
  167SAPE  C21018839   5.327   5.777   7.136 -0.4277 -0.4309  0.8166
  167SAPE  H10R18840   5.242   5.739   7.197 -1.9024  2.7574  1.0046
  167SAPE  H10S18841   5.274   5.825   7.051  1.0960  1.8703  1.0768
  167SAPE  C21118842   5.399   5.890   7.204  0.3942 -0.1479 -0.2747
  167SAPE  H11R18843   5.456   5.958   7.139 -0.6511  0.4690 -0.5576
  167SAPE  C21218844   5.396   5.924   7.342 -0.6930 -0.1776  0.0065
  167SAPE  H12R18845   5.465   5.998   7.386 -1.3810 -0.6945  2.0654
  167SAPE  C21318846   5.325   5.828   7.440  0.0365 -0.2619 -0.2716
  167SAPE  H13R18847   5.226   5.809   7.392  1.3477 -0.8559 -2.9476
  167SAPE  H13S18848   5.309   5.883   7.535 -1.6289  0.7576 -1.0976
  167SAPE  C21418849   5.379   5.690   7.450 -0.3391 -0.3882 -0.5561
  167SAPE  H14R18850   5.451   5.655   7.374 -1.0163 -0.6230 -1.0985
  167SAPE  C21518851   5.370   5.608   7.555 -0.3939  0.4874  0.2424
  167SAPE  H15R18852   5.410   5.508   7.535  0.4780  1.1194 -1.4240
  167SAPE  C21618853   5.297   5.625   7.684  0.2847  0.0911 -0.0529
  167SAPE  H16R18854   5.202   5.567   7.685 -0.1919  0.5937 -3.7472
  167SAPE  H16S18855   5.259   5.729   7.693  1.8063  0.7154 -0.5797
  167SAPE  C21718856   5.374   5.596   7.809  0.0115 -0.1123 -0.4441
  167SAPE  H17R18857   5.460   5.529   7.790  0.8198  0.4053  1.1546
  167SAPE  H17S18858   5.310   5.553   7.890 -0.0399  1.0273  0.1420
  167SAPE  C21818859   5.453   5.723   7.872 -0.2869  0.1039  0.4965
  167SAPE  H18R18860   5.402   5.820   7.855 -0.4731  0.2772  1.8872
  167SAPE  H18S18861   5.545   5.734   7.811 -0.6895 -0.2561 -0.1888
  167SAPE  C21918862   5.494   5.716   8.014 -0.1671  0.6128  0.3412
  167SAPE  H19R18863   5.570   5.635   8.010  0.2841  1.0507 -3.5191
  167SAPE  H19S18864   5.405   5.687   8.076 -1.9242  1.1964 -1.7793
  167SAPE  C22018865   5.538   5.855   8.063 -0.3981  0.5242 -0.4486
  167SAPE  H20R18866   5.600   5.843   8.154  0.2382 -3.1002 -1.2170
  167SAPE  H20S18867   5.447   5.916   8.083 -0.9949 -0.5782  0.3037
  167SAPE  H20T18868   5.612   5.893   7.989  0.1714 -0.6863 -0.5153
  167SAPE   C3318869   5.073   4.911   6.861  0.1812 -0.3956  0.4162
  167SAPE   H3X18870   4.976   4.866   6.891  0.5719 -0.1149  2.2060
  167SAPE   H3Y18871   5.068   5.013   6.904  1.0908 -0.9529  1.8965
  167SAPE   C3418872   5.175   4.847   6.954  0.6504  0.4270  0.3858
  167SAPE   H4X18873   5.266   4.911   6.958 -0.0783  1.6038 -0.8120
  167SAPE   H4Y18874   5.204   4.746   6.919 -0.1972  0.4436 -0.4137
  167SAPE   C3518875   5.124   4.826   7.098  0.1362 -0.6523  0.3298
  167SAPE   H5X18876   5.048   4.744   7.106 -0.2060 -0.4430 -0.6367
  167SAPE   H5Y18877   5.091   4.929   7.121  2.5896  0.1033  0.7016
  167SAPE   C3618878   5.244   4.800   7.196  0.0259  0.5212  0.1424
  167SAPE   H6X18879   5.284   4.903   7.207  1.7655 -0.3513  2.9490
  167SAPE   H6Y18880   5.323   4.741   7.147  0.3794 -0.6273  2.0009
  167SAPE   C3718881   5.197   4.749   7.337  0.0243  0.1385 -0.2628
  167SAPE   H7X18882   5.153   4.647   7.326 -1.8267  0.7219  1.3523
  167SAPE   H7Y18883   5.124   4.820   7.379 -0.5339 -0.1530 -0.7256
  167SAPE   C3818884   5.322   4.745   7.436  0.2792  0.0083 -0.2631
  167SAPE   H8X18885   5.379   4.839   7.419  0.6992 -0.3889 -1.1453
  167SAPE   H8Y18886   5.383   4.657   7.408 -2.6094 -1.4467 -2.5859
  167SAPE   C3918887   5.268   4.729   7.578  0.2657  0.2477 -0.5938
  167SAPE   H9X18888   5.219   4.631   7.593  0.2521  0.2300 -0.7588
  167SAPE   H9Y18889   5.184   4.800   7.599 -0.5710 -0.6154 -0.9691
  167SAPE  C31018890   5.385   4.744   7.682 -0.3796  0.7162 -0.3612
  167SAPE  H10X18891   5.421   4.849   7.677 -1.2505  1.0054 -0.8827
  167SAPE  H10Y18892   5.456   4.661   7.662 -0.7777  0.2546  0.1112
  167SAPE  C31118893   5.333   4.727   7.825 -0.0438 -0.2712 -0.1557
  167SAPE  H11X18894   5.285   4.627   7.831 -0.5490  0.0548  1.9367
  167SAPE  H11Y18895   5.261   4.808   7.849 -0.9457 -1.4415  1.2120
  167SAPE  C31218896   5.445   4.733   7.928 -0.0824 -0.2388 -0.5023
  167SAPE  H12X18897   5.511   4.644   7.918  2.1465  1.0596  1.3995
  167SAPE  H12Y18898   5.393   4.730   8.026  1.9536  2.0324  0.7571
  167SAPE  C31318899   5.528   4.863   7.925  0.6599  0.7375  0.1127
  167SAPE  H13X18900   5.450   4.943   7.929 -1.0667 -0.9350  1.9232
  167SAPE  H13Y18901   5.580   4.882   7.828  3.8835 -0.0922  1.5499
  167SAPE  C31418902   5.635   4.867   8.027  0.6786 -0.4064  0.1831
  167SAPE  H14X18903   5.704   4.952   8.015  1.8078 -1.4967 -1.4591
  167SAPE  H14Y18904   5.691   4.771   8.020 -0.3796 -1.1721  1.5732
  167SAPE  C31518905   5.587   4.882   8.177  0.3902  0.0514  0.3050
  167SAPE  H15X18906   5.533   4.790   8.209 -0.3465  0.8547  1.4385
  167SAPE  H15Y18907   5.529   4.975   8.195 -0.2417 -0.3606  0.4277
  167SAPE  C31618908   5.714   4.906   8.265  0.0293  0.4729 -0.2912
  167SAPE  H16X18909   5.768   4.992   8.222  0.5001  0.4312  0.2099
  167SAPE  H16Y18910   5.783   4.820   8.253 -1.4411 -1.2865  2.5937
  167SAPE  C31718911   5.676   4.950   8.420 -0.6425 -0.3154 -1.1373
  167SAPE  H17X18912   5.618   5.045   8.411 -0.9384  0.1209  3.1002
  167SAPE  H17Y18913   5.771   4.974   8.472 -0.5017 -4.0187  0.6272
  167SAPE  C31818914   5.612   4.837   8.497 -0.3555  0.5017 -0.8916
  167SAPE  H18X18915   5.618   4.879   8.600  4.0121 -2.9241  0.5637
  167SAPE  H18Y18916   5.663   4.739   8.509 -1.4171  0.0223 -0.0823
  167SAPE  H18Z18917   5.510   4.825   8.454 -0.4880 -0.9167 -0.2528
  168SAPE     N18918   1.052   0.820   6.007  0.3436  0.2713 -0.0474
  168SAPE   HN118919   1.145   0.773   6.011  0.2860 -0.2833 -2.8760
  168SAPE   HN218920   1.040   0.873   5.918 -2.8821  0.9087  0.6535
  168SAPE   HN318921   1.049   0.887   6.086 -0.6418  0.6502 -0.3880
  168SAPE   C1218922   0.956   0.708   6.027  0.2363 -0.4172 -0.0009
  168SAPE  H12A18923   1.009   0.616   5.995  1.6961  0.2816  0.3230
  168SAPE  H12B18924   0.868   0.728   5.962  0.7473  2.7976  0.1347
  168SAPE   C1118925   0.924   0.701   6.177  0.0002 -0.0652 -0.2906
  168SAPE  H11A18926   0.836   0.633   6.183 -0.1076  0.0930 -0.0080
  168SAPE  H11B18927   0.895   0.803   6.210  1.8131 -0.1547  1.8217
  168SAPE     P18928   1.046   0.504   6.293 -0.3031  0.0787  0.1337
  168SAPE   O1318929   1.045   0.418   6.166 -0.3977 -0.5303  0.6217
  168SAPE   O1418930   1.163   0.485   6.381 -0.0763  0.4338 -0.3489
  168SAPE   O1218931   1.033   0.654   6.253  0.1139 -0.0956 -0.0247
  168SAPE   O1118932   0.912   0.466   6.366  0.0861  0.2655  0.5271
  168SAPE    C118933   0.897   0.483   6.502  0.4047 -0.6477 -0.9291
  168SAPE    HA18934   0.924   0.587   6.529 -0.3383 -1.1399  2.0867
  168SAPE    HB18935   0.789   0.482   6.528  1.1245  0.8272  2.6645
  168SAPE    C218936   0.962   0.377   6.599 -1.0951  0.4452  0.3824
  168SAPE    HS18937   1.049   0.328   6.551 -1.0076  1.9498 -1.0818
  168SAPE   O2118938   0.867   0.281   6.647 -0.0422  0.6767 -0.3449
  168SAPE   C2118939   0.825   0.180   6.554 -0.0616  0.0312  0.4386
  168SAPE   O2218940   0.886   0.162   6.451  0.3602  0.4948 -0.3789
  168SAPE   C2218941   0.704   0.112   6.610 -0.8800  0.1393 -0.5640
  168SAPE   H2R18942   0.637   0.197   6.633 -0.6295  0.5472 -1.3281
  168SAPE   H2S18943   0.655   0.043   6.538 -0.5299 -2.5173  1.5682
  168SAPE    C318944   1.014   0.454   6.728  0.0190 -0.4368 -0.4506
  168SAPE    HX18945   0.921   0.486   6.780 -2.1787 -2.6929 -2.7522
  168SAPE    HY18946   1.076   0.536   6.686  1.0936 -1.2766 -0.5536
  168SAPE   O3118947   1.086   0.373   6.831 -0.3328 -0.1546 -0.8232
  168SAPE   C3118948   1.117   0.454   6.933  0.7125  0.6163 -0.5154
  168SAPE   O3218949   1.105   0.575   6.931 -0.4438 -0.3476 -0.2322
  168SAPE   C3218950   1.154   0.373   7.054  0.2211 -0.5013  0.7662
  168SAPE   H2X18951   1.259   0.406   7.071 -0.2137  0.0908  2.4814
  168SAPE   H2Y18952   1.160   0.264   7.032 -1.8800 -0.2787 -1.3696
  168SAPE   C2318953   0.737   0.030   6.739 -0.1656 -0.1719  0.2107
  168SAPE   H3R18954   0.802   0.093   6.804  0.5213 -0.3874 -0.2469
  168SAPE   H3S18955   0.803  -0.051   6.702 -1.9420 -1.1811 -0.8882
  168SAPE   C2418956   0.613  -0.028   6.807 -0.1283 -0.3024  0.6292
  168SAPE   H4R18957   0.555  -0.093   6.738 -1.9785  1.1529  0.7276
  168SAPE   H4S18958   0.532   0.046   6.822  0.5812  0.4183  0.9788
  168SAPE   C2518959   0.652  -0.121   6.923 -0.0239 -0.4396 -0.2909
  168SAPE   H5R18960   0.751  -0.167   6.911  0.3071  0.2552 -0.2871
  168SAPE   C2618961   0.585  -0.152   7.040 -0.1922  0.1689 -0.0973
  168SAPE   H6R18962   0.625  -0.219   7.118  0.1339  0.2028 -0.2361
  168SAPE   C2718963   0.448  -0.100   7.073 -0.2619  0.2017  0.6987
  168SAPE   H7R18964   0.385  -0.078   6.984 -0.7250 -0.5350  0.8330
  168SAPE   H7S18965   0.458  -0.010   7.138 -1.2998 -0.9866  2.5939
  168SAPE   C2818966   0.379  -0.198   7.166 -0.4108  0.4209  0.3616
  168SAPE   H8R18967   0.328  -0.282   7.117 -0.4338  0.1461  0.8433
  168SAPE   C2918968   0.390  -0.204   7.299 -0.8832  0.0190  0.7623
  168SAPE   H9R18969   0.342  -0.294   7.342 -0.2386 -0.9216 -0.4325
  168SAPE  C21018970   0.458  -0.116   7.405  0.4736 -0.3074  0.3024
  168SAPE  H10R18971   0.385  -0.035   7.426  0.8575  0.1470 -0.0820
  168SAPE  H10S18972   0.543  -0.061   7.359 -0.9670  0.7838 -1.1699
  168SAPE  C21118973   0.484  -0.189   7.537 -1.1566  0.4819  0.2928
  168SAPE  H11R18974   0.427  -0.283   7.541  1.0076 -1.1079 -2.4402
  168SAPE  C21218975   0.553  -0.148   7.643 -0.1952  0.8677  0.9006
  168SAPE  H12R18976   0.574  -0.221   7.723  0.0716 -0.7548 -0.5995
  168SAPE  C21318977   0.619  -0.006   7.641 -0.4645  0.1448 -0.6284
  168SAPE  H13R18978   0.640   0.013   7.534  0.8531  1.1295 -0.2208
  168SAPE  H13S18979   0.717  -0.005   7.694 -0.6500 -2.4784 -0.0824
  168SAPE  C21418980   0.519   0.098   7.691 -0.2488  0.5070 -0.0089
  168SAPE  H14R18981   0.472   0.144   7.603  0.5511  0.2992 -0.5579
  168SAPE  C21518982   0.495   0.132   7.817  0.6133 -0.3010  0.5931
  168SAPE  H15R18983   0.428   0.216   7.838  2.1060  1.1678 -0.3350
  168SAPE  C21618984   0.563   0.076   7.941 -0.0524 -0.0858  0.3285
  168SAPE  H16R18985   0.620  -0.017   7.918 -0.3514 -0.8525  2.4886
  168SAPE  H16S18986   0.480   0.046   8.008 -0.2365 -2.0969 -0.7115
  168SAPE  C21718987   0.646   0.189   7.997  0.4592 -0.2352  0.0242
  168SAPE  H17R18988   0.577   0.272   8.023 -0.5780 -0.8098 -0.8508
  168SAPE  H17S18989   0.720   0.230   7.925  1.5924 -0.4291  1.0340
  168SAPE  C21818990   0.711   0.151   8.124 -0.4618 -0.0645 -0.0416
  168SAPE  H18R18991   0.791   0.075   8.114 -0.6237 -0.1662 -0.5497
  168SAPE  H18S18992   0.640   0.103   8.195  0.4517 -1.0864  0.2159
  168SAPE  C21918993   0.782   0.271   8.182  0.2489 -0.7320 -0.7263
  168SAPE  H19R18994   0.708   0.349   8.209  4.0427  3.2474 -0.5819
  168SAPE  H19S18995   0.856   0.308   8.108  0.3501  2.2805  0.7089
  168SAPE  C22018996   0.849   0.230   8.309  0.3478 -0.0346 -0.0853
  168SAPE  H20R18997   0.930   0.160   8.280  0.7474 -0.0321  0.9853
  168SAPE  H20S18998   0.783   0.177   8.380  0.9379  1.3836  1.5958
  168SAPE  H20T18999   0.890   0.317   8.364 -0.5032 -0.5788  1.4595
  168SAPE   C3319000   1.075   0.411   7.175 -0.5633 -0.0242 -0.0351
  168SAPE   H3X19001   1.072   0.520   7.197  1.0061 -0.0980  0.7268
  168SAPE   H3Y19002   1.140   0.373   7.257  1.1109  0.6593 -0.9818
  168SAPE   C3419003   0.932   0.348   7.183  0.2362 -0.3457  0.1649
  168SAPE   H4X19004   0.935   0.238   7.166 -0.8531 -0.7893  2.4130
  168SAPE   H4Y19005   0.879   0.382   7.091  0.6631 -1.5797 -0.5625
  168SAPE   C3519006   0.872   0.388   7.315  1.1120 -0.4952  0.1285
  168SAPE   H5X19007   0.902   0.488   7.350  0.5540 -0.7807  1.5029
  168SAPE   H5Y19008   0.910   0.325   7.398 -0.9605  0.8870  2.2426
  168SAPE   C3619009   0.724   0.379   7.319  0.0465  0.5511  0.5044
  168SAPE   H6X19010   0.706   0.270   7.329 -1.4017  0.6223 -0.9202
  168SAPE   H6Y19011   0.687   0.423   7.224  1.7020  1.1387  0.0969
  168SAPE   C3719012   0.655   0.455   7.429  0.1578 -0.2454  0.3406
  168SAPE   H7X19013   0.545   0.440   7.422  0.1435 -0.8995  1.6728
  168SAPE   H7Y19014   0.673   0.562   7.408  2.6013 -0.6430  0.1483
  168SAPE   C3819015   0.708   0.418   7.572  0.2412  1.1882  0.1815
  168SAPE   H8X19016   0.817   0.426   7.590  0.5830  0.6181 -1.4507
  168SAPE   H8Y19017   0.690   0.311   7.594 -1.7973  0.7997 -2.7070
  168SAPE   C3919018   0.643   0.516   7.678  0.0681 -0.2730 -0.1304
  168SAPE   H9X19019   0.534   0.500   7.664 -0.1631  1.3705 -0.4359
  168SAPE   H9Y19020   0.656   0.621   7.644 -0.9687  0.3798  1.3431
  168SAPE  C31019021   0.686   0.501   7.825  0.0999 -0.5918  0.3448
  168SAPE  H10X19022   0.795   0.524   7.817  0.5623 -2.9290 -0.8912
  168SAPE  H10Y19023   0.670   0.399   7.865 -2.9041 -0.2738  0.1820
  168SAPE  C31119024   0.621   0.604   7.915 -0.1194  0.3398 -0.5062
  168SAPE  H11X19025   0.512   0.583   7.910 -0.4487  1.5190  0.9172
  168SAPE  H11Y19026   0.634   0.702   7.863  0.2162  0.7653  0.3573
  168SAPE  C31219027   0.674   0.599   8.056  0.1258 -0.1805 -0.7513
  168SAPE  H12X19028   0.785   0.590   8.050  0.1408 -1.2979  0.8673
  168SAPE  H12Y19029   0.628   0.511   8.104 -2.0252  1.3690  0.1942
  168SAPE  C31319030   0.638   0.724   8.134 -0.0633 -0.0861  0.2800
  168SAPE  H13X19031   0.529   0.737   8.118  0.4695  1.5269 -2.9582
  168SAPE  H13Y19032   0.691   0.814   8.096 -1.4065  1.6450  2.2642
  168SAPE  C31419033   0.661   0.723   8.283 -0.3053  0.4302 -0.2740
  168SAPE  H14X19034   0.606   0.633   8.319 -1.3999  1.4003  0.5394
  168SAPE  H14Y19035   0.607   0.807   8.331 -2.1920 -0.9657  0.1364
  168SAPE  C31519036   0.809   0.728   8.317  1.0149  0.0509 -0.3321
  168SAPE  H15X19037   0.837   0.829   8.282  1.6109  0.9055  2.4309
  168SAPE  H15Y19038   0.867   0.650   8.263 -1.6718 -0.4149 -2.8242
  168SAPE  C31619039   0.843   0.713   8.468  0.0369  0.8087  0.7111
  168SAPE  H16X19040   0.811   0.619   8.519  3.0494 -0.0213  1.2589
  168SAPE  H16Y19041   0.799   0.792   8.532 -1.0104 -0.3460  1.4823
  168SAPE  C31719042   0.997   0.718   8.487  0.1283 -0.1913  0.2743
  168SAPE  H17X19043   1.045   0.803   8.435 -0.8327 -1.0278 -2.0958
  168SAPE  H17Y19044   1.042   0.635   8.428 -1.4780 -0.1212 -1.1103
  168SAPE  C31819045   1.036   0.716   8.636  0.0855 -0.2778  0.7641
  168SAPE  H18X19046   0.981   0.632   8.684  1.7193 -1.6719  0.3056
  168SAPE  H18Y19047   1.021   0.806   8.698  1.2179 -0.8015  1.8304
  168SAPE  H18Z19048   1.145   0.694   8.636  0.4553  1.2477 -1.1308
  169SAPE     N19049   0.131   2.404   6.276  0.1921 -0.2685  0.4449
  169SAPE   HN119050   0.144   2.480   6.345  0.0843 -0.2631  0.4606
  169SAPE   HN219051   0.103   2.318   6.327 -2.2495  1.7159  2.7563
  169SAPE   HN319052   0.220   2.384   6.227 -0.8356 -1.7974 -0.9292
  169SAPE   C1219053   0.019   2.428   6.173 -0.5563  0.2068  0.1222
  169SAPE  H12A19054   0.002   2.330   6.125  1.4308  0.5237 -1.3538
  169SAPE  H12B19055   0.062   2.497   6.098 -0.0561  0.1032  0.3081
  169SAPE   C1119056  -0.115   2.484   6.229 -0.4194  0.8484  0.0933
  169SAPE  H11A19057  -0.177   2.505   6.140  1.8869  1.2261 -1.5334
  169SAPE  H11B19058  -0.094   2.578   6.284 -0.6239  0.2068  1.3289
  169SAPE     P19059  -0.289   2.413   6.403 -0.2578  0.2660 -0.2348
  169SAPE   O1319060  -0.310   2.556   6.386 -0.6018  0.2655 -0.1888
  169SAPE   O1419061  -0.400   2.321   6.361 -0.8465 -0.0497 -0.4427
  169SAPE   O1219062  -0.164   2.375   6.319  0.1533 -0.2386  0.3501
  169SAPE   O1119063  -0.248   2.376   6.551  0.3859 -0.1613  0.1080
  169SAPE    C119064  -0.221   2.247   6.591 -0.2641  0.1375 -0.0995
  169SAPE    HA19065  -0.183   2.178   6.512  1.7059  1.0989 -0.0426
  169SAPE    HB19066  -0.136   2.251   6.662 -1.6064 -3.5270  1.9939
  169SAPE    C219067  -0.337   2.181   6.671 -0.2365 -0.8118  1.0993
  169SAPE    HS19068  -0.427   2.190   6.606  1.0707  1.0582 -0.5580
  169SAPE   O2119069  -0.340   2.257   6.791 -0.4604  0.2561 -1.1222
  169SAPE   C2119070  -0.455   2.254   6.849  0.5100  1.0889  0.1471
  169SAPE   O2219071  -0.560   2.218   6.798  0.4221 -0.0297  0.3423
  169SAPE   C2219072  -0.451   2.299   6.995  0.9750 -0.4280  0.0280
  169SAPE   H2R19073  -0.358   2.270   7.049 -0.3349  1.2080  3.5048
  169SAPE   H2S19074  -0.466   2.409   7.000 -0.4955 -0.5517 -0.9329
  169SAPE    C319075  -0.318   2.028   6.700 -0.2248 -0.7965 -0.8869
  169SAPE    HX19076  -0.217   2.028   6.747 -1.3055  0.4947  1.6507
  169SAPE    HY19077  -0.309   1.972   6.604 -1.5258  0.9221 -2.0701
  169SAPE   O3119078  -0.422   1.971   6.773  0.6481  0.3930  0.5807
  169SAPE   C3119079  -0.391   1.848   6.804 -0.3786 -0.2148  0.0940
  169SAPE   O3219080  -0.279   1.797   6.797 -0.1211  0.5843  0.0474
  169SAPE   C3219081  -0.516   1.765   6.839 -0.5836  0.5576 -0.0035
  169SAPE   H2X19082  -0.543   1.709   6.747  2.7563  1.1030 -1.4928
  169SAPE   H2Y19083  -0.593   1.829   6.886  0.7283  0.6268  2.1859
  169SAPE   C2319084  -0.556   2.228   7.082 -0.7172  0.5148  0.2813
  169SAPE   H3R19085  -0.658   2.244   7.041 -1.6543  1.6499  2.8482
  169SAPE   H3S19086  -0.547   2.289   7.175 -0.0281  3.1765 -1.4319
  169SAPE   C2419087  -0.524   2.073   7.100 -0.2912  0.0610  0.6120
  169SAPE   H4R19088  -0.526   2.032   6.997 -2.6411  1.6662 -0.0461
  169SAPE   H4S19089  -0.609   2.029   7.156 -1.7532 -0.5739 -1.9479
  169SAPE   C2519090  -0.387   2.039   7.147  0.2466 -0.0675 -0.2023
  169SAPE   H5R19091  -0.305   2.038   7.074  0.0547  0.9132 -0.4532
  169SAPE   C2619092  -0.354   2.023   7.279 -0.6811  0.5421  0.7427
  169SAPE   H6R19093  -0.253   1.987   7.305 -0.3007  1.8391  1.1458
  169SAPE   C2719094  -0.436   2.033   7.403 -0.2811  0.0981  0.2470
  169SAPE   H7R19095  -0.391   1.977   7.488  1.1897 -0.3455 -0.7800
  169SAPE   H7S19096  -0.530   1.979   7.381 -1.0898  1.4811  0.1303
  169SAPE   C2819097  -0.484   2.170   7.446  0.4480 -0.1519 -0.0338
  169SAPE   H8R19098  -0.474   2.250   7.371  3.4205  0.0348  0.4365
  169SAPE   C2919099  -0.532   2.197   7.575 -0.4615 -0.8496  0.0509
  169SAPE   H9R19100  -0.551   2.300   7.611 -1.5409 -0.5980 -1.1690
  169SAPE  C21019101  -0.553   2.100   7.684  0.0725  0.0777  0.1507
  169SAPE  H10R19102  -0.542   2.157   7.779  1.4055 -0.2494  0.2155
  169SAPE  H10S19103  -0.482   2.015   7.680  0.4646  0.4020  0.1039
  169SAPE  C21119104  -0.696   2.054   7.673 -0.2386 -0.5238 -0.2033
  169SAPE  H11R19105  -0.722   2.007   7.577 -1.1923 -0.3245 -0.0529
  169SAPE  C21219106  -0.783   2.064   7.764  0.8828 -0.0316 -0.5331
  169SAPE  H12R19107  -0.887   2.039   7.740  0.4648  0.7540  0.3676
  169SAPE  C21319108  -0.766   2.114   7.905  0.0126  0.4952 -0.0729
  169SAPE  H13R19109  -0.725   2.216   7.893  1.9927 -0.0919  1.2812
  169SAPE  H13S19110  -0.693   2.062   7.971 -1.0483 -0.1507  0.6281
  169SAPE  C21419111  -0.895   2.140   7.977 -0.1047 -0.3651 -0.6371
  169SAPE  H14R19112  -0.967   2.208   7.930  0.7434  0.9878 -0.0553
  169SAPE  C21519113  -0.930   2.083   8.098 -0.5493 -0.5544 -0.6073
  169SAPE  H15R19114  -1.021   2.129   8.139 -0.8171  0.4190 -2.2229
  169SAPE  C21619115  -0.859   1.984   8.187 -0.3097  0.4523  0.5780
  169SAPE  H16R19116  -0.857   2.019   8.292 -1.9153 -1.5543  1.3507
  169SAPE  H16S19117  -0.751   1.978   8.164 -0.7558 -1.9385 -1.2284
  169SAPE  C21719118  -0.916   1.846   8.204  0.1188  0.8330  0.1576
  169SAPE  H17R19119  -0.930   1.790   8.109 -1.4533  1.7871 -0.1972
  169SAPE  H17S19120  -1.007   1.871   8.262 -1.0793  0.9366 -1.7106
  169SAPE  C21819121  -0.827   1.768   8.294 -0.3922  0.1403 -0.3518
  169SAPE  H18R19122  -0.803   1.822   8.389  1.9873 -0.4569 -0.5532
  169SAPE  H18S19123  -0.732   1.733   8.250 -0.0282 -1.9292  1.8511
  169SAPE  C21919124  -0.902   1.637   8.340 -0.1213 -0.1358 -0.5541
  169SAPE  H19R19125  -0.940   1.576   8.255 -0.2039 -0.0925 -0.5481
  169SAPE  H19S19126  -0.993   1.663   8.398 -0.7410 -0.5628 -1.3245
  169SAPE  C22019127  -0.824   1.543   8.432 -0.1092  0.1394 -0.0721
  169SAPE  H20R19128  -0.780   1.594   8.520  1.1672 -0.8411 -0.1230
  169SAPE  H20S19129  -0.743   1.497   8.373  0.4061 -1.7215  1.9781
  169SAPE  H20T19130  -0.894   1.459   8.453  0.7163 -0.2145  1.4389
  169SAPE   C3319131  -0.491   1.659   6.953  0.3800  0.3170  0.0101
  169SAPE   H3X19132  -0.405   1.594   6.927 -0.0921 -0.6197  0.7116
  169SAPE   H3Y19133  -0.585   1.600   6.954 -0.0544  0.9565 -1.3800
  169SAPE   C3419134  -0.471   1.712   7.096 -0.2277  0.1233 -0.0122
  169SAPE   H4X19135  -0.555   1.783   7.111 -0.6128 -0.4030  0.3467
  169SAPE   H4Y19136  -0.378   1.773   7.103 -0.9452  1.1548  1.0243
  169SAPE   C3519137  -0.476   1.612   7.209 -0.3785  0.2582 -0.2312
  169SAPE   H5X19138  -0.405   1.527   7.200 -0.0693  0.3721  1.0723
  169SAPE   H5Y19139  -0.576   1.565   7.222  0.8342 -1.6781  3.5446
  169SAPE   C3619140  -0.460   1.674   7.344 -0.2513  0.3620 -0.2565
  169SAPE   H6X19141  -0.539   1.752   7.352  0.0699  0.6966 -0.3409
  169SAPE   H6Y19142  -0.358   1.716   7.351  0.0592 -0.5826  1.3154
  169SAPE   C3719143  -0.477   1.582   7.470  0.0759  0.4768 -0.1199
  169SAPE   H7X19144  -0.412   1.497   7.444  0.7750  1.4562 -1.7073
  169SAPE   H7Y19145  -0.584   1.552   7.467  0.0517  0.2889  1.6480
  169SAPE   C3819146  -0.452   1.654   7.600  0.3399 -0.5043  0.2637
  169SAPE   H8X19147  -0.541   1.719   7.614 -0.1263 -0.6560 -1.6764
  169SAPE   H8Y19148  -0.358   1.714   7.598  0.5397 -0.8014  0.6236
  169SAPE   C3919149  -0.456   1.562   7.723  0.1123  0.3677  0.1118
  169SAPE   H9X19150  -0.367   1.496   7.723  1.2600  1.8828  0.6650
  169SAPE   H9Y19151  -0.550   1.502   7.714 -0.3203  1.1787 -1.1385
  169SAPE  C31019152  -0.456   1.634   7.857 -0.0595  0.2386  0.3572
  169SAPE  H10X19153  -0.545   1.701   7.861 -1.5234 -1.3517 -2.2809
  169SAPE  H10Y19154  -0.362   1.692   7.854  0.7030 -0.9991 -0.4177
  169SAPE  C31119155  -0.462   1.542   7.984  0.1777 -0.6268  0.7356
  169SAPE  H11X19156  -0.376   1.472   7.975 -0.0532 -0.7209 -0.9089
  169SAPE  H11Y19157  -0.547   1.471   7.993  0.8884 -2.0241 -2.4724
  169SAPE  C31219158  -0.446   1.623   8.114  0.4968  0.1081 -0.3070
  169SAPE  H12X19159  -0.543   1.675   8.132  0.5584  1.1108 -2.5176
  169SAPE  H12Y19160  -0.363   1.694   8.095  0.5640 -0.2062 -1.2629
  169SAPE  C31319161  -0.429   1.530   8.236  0.2202  0.2766 -0.2888
  169SAPE  H13X19162  -0.333   1.474   8.234 -0.1447 -0.3527 -0.6521
  169SAPE  H13Y19163  -0.509   1.455   8.254  2.5650 -1.5720  3.7873
  169SAPE  C31419164  -0.430   1.607   8.368 -0.3391 -0.0391  0.3539
  169SAPE  H14X19165  -0.532   1.648   8.387 -1.2953 -1.3721 -1.6050
  169SAPE  H14Y19166  -0.351   1.685   8.361  0.9012 -1.3443 -0.8084
  169SAPE  C31519167  -0.396   1.523   8.502  0.2225 -0.5082  1.3861
  169SAPE  H15X19168  -0.470   1.443   8.528 -1.2044  0.6233  0.9686
  169SAPE  H15Y19169  -0.396   1.605   8.577  1.3477  2.6203 -1.7613
  169SAPE  C31619170  -0.257   1.467   8.504 -0.7294 -0.2310 -0.2260
  169SAPE  H16X19171  -0.196   1.555   8.476  1.0239 -0.2008  3.1081
  169SAPE  H16Y19172  -0.250   1.378   8.438 -0.7108 -2.0203  2.0482
  169SAPE  C31719173  -0.207   1.422   8.641 -0.3258  0.2261 -0.4180
  169SAPE  H17X19174  -0.264   1.473   8.722 -0.3451 -0.7279  0.1921
  169SAPE  H17Y19175  -0.109   1.468   8.666  0.7092 -0.8379 -2.3274
  169SAPE  C31819176  -0.206   1.269   8.665 -0.0653 -0.9521  0.2872
  169SAPE  H18X19177  -0.116   1.215   8.627  0.4115 -1.7816  2.4311
  169SAPE  H18Y19178  -0.298   1.224   8.621 -0.2282 -0.1422 -0.2085
  169SAPE  H18Z19179  -0.219   1.245   8.773 -1.7823 -3.2274 -0.3405
  170SAPE     N19180   0.124   6.343   5.952  0.0455  0.1524 -0.6717
  170SAPE   HN119181   0.194   6.419   5.938  1.1685 -0.0224  2.9223
  170SAPE   HN219182   0.035   6.354   5.900 -0.8088  0.4524  0.7996
  170SAPE   HN319183   0.098   6.364   6.051  1.8653  1.4483 -0.4203
  170SAPE   C1219184   0.190   6.216   5.932  0.2134  0.2948  0.1436
  170SAPE  H12A19185   0.300   6.227   5.940  0.2533 -0.7347  1.4847
  170SAPE  H12B19186   0.157   6.181   5.832 -0.3637  0.6689  0.2015
  170SAPE   C1119187   0.162   6.097   6.033  0.0536  0.2461  0.0046
  170SAPE  H11A19188   0.233   6.013   6.021 -2.5452 -2.1662  0.6205
  170SAPE  H11B19189   0.068   6.039   6.023  0.8501 -0.9397 -1.0076
  170SAPE     P19190   0.317   6.165   6.232 -0.3037  0.1956 -0.1011
  170SAPE   O1319191   0.415   6.062   6.173  1.0611  0.3352 -0.3629
  170SAPE   O1419192   0.361   6.307   6.221 -0.2595  0.1493 -0.1802
  170SAPE   O1219193   0.172   6.145   6.166  0.3249 -0.2641 -0.1826
  170SAPE   O1119194   0.304   6.123   6.382  0.3662  0.3288  0.3610
  170SAPE    C119195   0.234   6.207   6.473  0.5748  0.3080  0.0458
  170SAPE    HA19196   0.146   6.255   6.424  0.6061 -0.1930 -0.5028
  170SAPE    HB19197   0.190   6.151   6.559  0.0597  1.4201  0.5395
  170SAPE    C219198   0.324   6.307   6.547  0.2760 -0.7136 -0.1048
  170SAPE    HS19199   0.344   6.391   6.477 -2.0903  0.0118  0.0122
  170SAPE   O2119200   0.454   6.254   6.587  0.8013  0.1154  0.1069
  170SAPE   C2119201   0.537   6.339   6.632  0.1320 -0.6824  0.0787
  170SAPE   O2219202   0.532   6.459   6.619 -0.0623  0.0429 -0.0103
  170SAPE   C2219203   0.660   6.265   6.691  0.0770  0.4009  0.5179
  170SAPE   H2R19204   0.712   6.218   6.605 -0.7563  0.9447 -0.3019
  170SAPE   H2S19205   0.734   6.340   6.727  0.5296 -0.6526  1.8725
  170SAPE    C319206   0.247   6.374   6.673 -0.6844 -0.3945  0.1966
  170SAPE    HX19207   0.154   6.419   6.631 -0.1928 -0.3180 -0.8428
  170SAPE    HY19208   0.301   6.464   6.708  2.7625 -1.1215 -2.7376
  170SAPE   O3119209   0.218   6.275   6.773 -0.1745 -0.4450 -0.3738
  170SAPE   C3119210   0.192   6.330   6.893 -0.9694  0.7515  0.5254
  170SAPE   O3219211   0.191   6.452   6.913 -0.6706  0.0175 -1.0007
  170SAPE   C3219212   0.176   6.218   6.999  0.3873 -0.0428 -0.0014
  170SAPE   H2X19213   0.274   6.165   7.001  0.7448  0.6090  2.2142
  170SAPE   H2Y19214   0.099   6.149   6.958  1.3510  0.1267 -2.2598
  170SAPE   C2319215   0.632   6.172   6.805  0.0192 -0.1416  0.0748
  170SAPE   H3R19216   0.714   6.098   6.816 -0.4078 -0.4777  1.0856
  170SAPE   H3S19217   0.536   6.118   6.791 -0.7109  0.4943  2.1852
  170SAPE   C2419218   0.606   6.245   6.948  0.1873  0.6455  0.9083
  170SAPE   H4R19219   0.556   6.172   7.014 -0.3910 -1.2677 -1.5108
  170SAPE   H4S19220   0.545   6.334   6.920  0.7135  1.1350  1.2885
  170SAPE   C2519221   0.747   6.293   6.978  0.4433  0.6265  0.1181
  170SAPE   H5R19222   0.801   6.361   6.910  2.6694 -0.3911  0.7648
  170SAPE   C2619223   0.814   6.256   7.089 -0.3366 -0.0203 -0.0379
  170SAPE   H6R19224   0.918   6.288   7.108 -0.7006  0.8362  0.6271
  170SAPE   C2719225   0.764   6.167   7.200 -0.3944 -0.2375 -0.0587
  170SAPE   H7R19226   0.852   6.133   7.258  0.0558  2.1079  0.7130
  170SAPE   H7S19227   0.702   6.085   7.157  0.0757 -0.3441 -0.5404
  170SAPE   C2819228   0.673   6.246   7.293 -0.2741  0.3571  0.0469
  170SAPE   H8R19229   0.613   6.324   7.245 -1.4389  0.3702  1.4458
  170SAPE   C2919230   0.662   6.226   7.428 -0.2879  0.0436 -0.4941
  170SAPE   H9R19231   0.592   6.288   7.485  0.5161 -0.2154  0.8015
  170SAPE  C21019232   0.744   6.131   7.517  0.4969 -0.2242 -0.0239
  170SAPE  H10R19233   0.816   6.066   7.462 -0.5513 -2.4129  1.0670
  170SAPE  H10S19234   0.670   6.070   7.574  0.6832  0.4331  0.9399
  170SAPE  C21119235   0.822   6.215   7.615 -0.1731 -0.3811 -0.7601
  170SAPE  H11R19236   0.864   6.308   7.572 -0.1634  0.1225  0.3163
  170SAPE  C21219237   0.864   6.173   7.740 -0.6236  0.3484 -0.1189
  170SAPE  H12R19238   0.919   6.250   7.796  0.1694  0.2576 -0.7553
  170SAPE  C21319239   0.837   6.042   7.804  0.4079  0.8250 -1.3046
  170SAPE  H13R19240   0.933   5.998   7.841  0.1307  1.1723 -0.1145
  170SAPE  H13S19241   0.790   5.969   7.735  0.6368 -1.6296  0.9483
  170SAPE  C21419242   0.749   6.069   7.923 -1.1503  0.9794 -0.2415
  170SAPE  H14R19243   0.652   6.118   7.908 -1.6880  0.3941  1.0958
  170SAPE  C21519244   0.769   6.023   8.046 -0.4114  0.0624 -0.0977
  170SAPE  H15R19245   0.691   6.044   8.120 -1.3860  0.0723 -1.0982
  170SAPE  C21619246   0.889   5.943   8.098  0.9428  0.1901  0.2784
  170SAPE  H16R19247   0.931   6.002   8.183 -1.9242  2.1342  0.4870
  170SAPE  H16S19248   0.967   5.930   8.021  0.7396 -2.0556  0.3850
  170SAPE  C21719249   0.850   5.803   8.154  0.7742  0.2460  0.4035
  170SAPE  H17R19250   0.933   5.731   8.173  0.5699  0.5351  2.6298
  170SAPE  H17S19251   0.785   5.762   8.074  0.9433  3.3755 -1.4924
  170SAPE  C21819252   0.769   5.785   8.284  0.1180 -0.4044 -0.5669
  170SAPE  H18R19253   0.732   5.681   8.281 -0.5640 -0.5307  4.1539
  170SAPE  H18S19254   0.687   5.860   8.285 -0.0136 -0.3770 -3.8116
  170SAPE  C21919255   0.849   5.803   8.414  0.3066 -0.0761 -1.4415
  170SAPE  H19R19256   0.777   5.801   8.498  1.6463 -2.3459 -0.2510
  170SAPE  H19S19257   0.883   5.908   8.418 -1.2915  0.4654  2.9446
  170SAPE  C22019258   0.956   5.698   8.433  0.6383 -0.3035  0.0928
  170SAPE  H20R19259   0.919   5.595   8.413  0.6494 -0.1477 -0.7736
  170SAPE  H20S19260   1.002   5.702   8.534  1.0441  1.5074 -0.1409
  170SAPE  H20T19261   1.030   5.708   8.350  3.0964  0.8795  2.2744
  170SAPE   C3319262   0.126   6.277   7.131  0.4969 -0.5461  0.3824
  170SAPE   H3X19263   0.042   6.348   7.119  0.1856 -0.8594  0.6755
  170SAPE   H3Y19264   0.211   6.341   7.162  0.5802 -0.2567 -0.4304
  170SAPE   C3419265   0.085   6.185   7.255 -0.3492 -0.0011 -0.2232
  170SAPE   H4X19266   0.170   6.118   7.282 -0.7396  0.5891  2.7669
  170SAPE   H4Y19267  -0.011   6.130   7.247  1.1572 -2.6010 -2.0572
  170SAPE   C3519268   0.076   6.265   7.385 -0.2406  0.0145 -0.4896
  170SAPE   H5X19269  -0.012   6.333   7.377 -2.5456 -2.8681 -1.6936
  170SAPE   H5Y19270   0.167   6.323   7.409 -0.7510  0.2064  1.1517
  170SAPE   C3619271   0.052   6.174   7.508  0.0983 -0.4008  0.0820
  170SAPE   H6X19272   0.103   6.075   7.498  0.0010 -0.7984  2.7069
  170SAPE   H6Y19273  -0.053   6.139   7.508  0.1380 -0.6881 -2.4945
  170SAPE   C3719274   0.097   6.228   7.639  0.3118 -0.0966 -0.1458
  170SAPE   H7X19275   0.068   6.152   7.715 -0.9003  1.0205  0.5590
  170SAPE   H7Y19276   0.045   6.324   7.659 -0.7270 -0.5486 -0.5916
  170SAPE   C3819277   0.246   6.251   7.653  0.6720 -0.4310 -0.1334
  170SAPE   H8X19278   0.279   6.336   7.589  0.0013  0.1480  0.2680
  170SAPE   H8Y19279   0.308   6.168   7.614  3.9072  1.6629  0.1360
  170SAPE   C3919280   0.285   6.296   7.801  0.0292  0.5109 -0.0830
  170SAPE   H9X19281   0.242   6.217   7.866  0.5621  0.3842  0.1278
  170SAPE   H9Y19282   0.240   6.393   7.829  0.7518  0.9459 -0.3909
  170SAPE  C31019283   0.431   6.317   7.831  0.3520  0.2117 -0.1854
  170SAPE  H10X19284   0.482   6.376   7.752  1.5979  0.0315  0.4436
  170SAPE  H10Y19285   0.477   6.215   7.827 -2.3110 -1.0531 -0.8097
  170SAPE  C31119286   0.460   6.384   7.964  0.1183 -0.2705 -0.4562
  170SAPE  H11X19287   0.397   6.339   8.044 -0.3084 -1.1239 -1.2491
  170SAPE  H11Y19288   0.430   6.491   7.964  1.8576  0.2492 -1.0609
  170SAPE  C31219289   0.613   6.378   7.995  0.1627 -0.5200  0.5417
  170SAPE  H12X19290   0.675   6.398   7.905 -0.6060 -1.2341 -0.1625
  170SAPE  H12Y19291   0.638   6.276   8.028  0.3790 -0.7452 -0.2980
  170SAPE  C31319292   0.658   6.487   8.097 -0.1926  0.2784  0.1769
  170SAPE  H13X19293   0.658   6.584   8.042  2.4135 -1.1867 -2.7118
  170SAPE  H13Y19294   0.759   6.471   8.137 -0.7384 -0.9902  1.0943
  170SAPE  C31419295   0.559   6.508   8.220 -0.0956  0.6168  0.3582
  170SAPE  H14X19296   0.524   6.409   8.257 -1.3640  1.0971  0.4835
  170SAPE  H14Y19297   0.467   6.556   8.181 -1.4050 -0.6476  1.7957
  170SAPE  C31519298   0.614   6.591   8.337 -1.0488 -0.1061 -0.1026
  170SAPE  H15X19299   0.632   6.697   8.309 -3.0787  0.8751  1.8747
  170SAPE  H15Y19300   0.695   6.544   8.396 -0.2585  0.1463 -0.9692
  170SAPE  C31619301   0.512   6.615   8.455  0.1002  0.1368  1.2861
  170SAPE  H16X19302   0.564   6.631   8.551 -0.8567 -3.7498  2.6111
  170SAPE  H16Y19303   0.470   6.516   8.483 -0.4224  0.0926  0.3857
  170SAPE  C31719304   0.400   6.717   8.418 -0.5852 -0.0894  0.0664
  170SAPE  H17X19305   0.337   6.672   8.339 -0.6415 -0.8606  0.5453
  170SAPE  H17Y19306   0.441   6.805   8.364 -0.3637 -1.4856 -2.1315
  170SAPE  C31819307   0.307   6.748   8.533  0.0038 -0.0106  0.2307
  170SAPE  H18X19308   0.299   6.663   8.604  0.9790 -0.0805  0.2740
  170SAPE  H18Y19309   0.206   6.784   8.507 -0.4192 -1.6311 -0.4933
  170SAPE  H18Z19310   0.351   6.828   8.595  1.9355 -0.7188 -0.1192
  171SAPE     N19311   1.052   0.108   6.213  0.0090 -0.1917  0.3341
  171SAPE   HN119312   1.074   0.010   6.185  1.2267 -0.0772  0.8378
  171SAPE   HN219313   0.952   0.122   6.240 -0.3748 -0.2935 -0.9619
  171SAPE   HN319314   1.073   0.149   6.120  2.0829  0.0346  0.8657
  171SAPE   C1219315   1.158   0.140   6.318  0.5680 -0.8732  0.4634
  171SAPE  H12A19316   1.152   0.073   6.407 -1.6392 -2.0880 -0.5219
  171SAPE  H12B19317   1.140   0.246   6.346  1.8126  0.0831 -2.0565
  171SAPE   C1119318   1.298   0.119   6.262  0.0217 -0.0542  0.0479
  171SAPE  H11A19319   1.374   0.166   6.329  1.3281  0.8664 -1.9749
  171SAPE  H11B19320   1.297   0.181   6.170  0.3109  0.4539  0.3818
  171SAPE     P19321   1.473  -0.066   6.216 -0.5680  0.4022 -0.0585
  171SAPE   O1319322   1.480  -0.209   6.250  0.3774 -0.1920 -0.5657
  171SAPE   O1419323   1.532  -0.017   6.086 -0.4718  0.0028 -0.8094
  171SAPE   O1219324   1.330  -0.015   6.232 -0.3477  0.3094  0.0987
  171SAPE   O1119325   1.544   0.011   6.335  0.0067 -0.3004 -0.2620
  171SAPE    C119326   1.582  -0.036   6.461 -0.4106  0.2273  0.0046
  171SAPE    HA19327   1.666  -0.109   6.453 -0.9349 -0.2460 -1.5042
  171SAPE    HB19328   1.618   0.050   6.521  0.1207  1.6977 -2.2602
  171SAPE    C219329   1.471  -0.108   6.542 -0.0058 -0.3927 -0.4826
  171SAPE    HS19330   1.397  -0.145   6.468  0.7503 -1.3596 -0.7715
  171SAPE   O2119331   1.411  -0.002   6.628  0.4696 -0.1835  0.3827
  171SAPE   C2119332   1.292  -0.025   6.656  0.6389  0.8462 -0.2729
  171SAPE   O2219333   1.222  -0.118   6.619  0.4693 -0.1407 -0.3026
  171SAPE   C2219334   1.246   0.084   6.753  0.1407 -0.6856 -0.8628
  171SAPE   H2R19335   1.313   0.100   6.840  0.3153  1.6499 -1.3486
  171SAPE   H2S19336   1.222   0.175   6.694 -0.0161  0.2310  0.5685
  171SAPE    C319337   1.533  -0.216   6.632 -0.2791  0.8903 -0.6936
  171SAPE    HX19338   1.570  -0.291   6.559 -0.2969  0.9397 -0.7529
  171SAPE    HY19339   1.454  -0.267   6.692  0.8794 -1.2776 -0.9223
  171SAPE   O3119340   1.643  -0.166   6.705 -0.0683  0.1356 -0.5588
  171SAPE   C3119341   1.621  -0.110   6.821  0.4919  0.0949 -0.4512
  171SAPE   O3219342   1.516  -0.115   6.887 -0.1246 -0.3226 -0.0487
  171SAPE   C3219343   1.750  -0.046   6.879 -0.0185 -0.3316  0.0476
  171SAPE   H2X19344   1.787   0.028   6.805  3.9169 -1.4172  0.7372
  171SAPE   H2Y19345   1.825  -0.127   6.886 -0.6645 -0.8565  1.0419
  171SAPE   C2319346   1.111   0.046   6.812  0.8571  0.0583  0.0024
  171SAPE   H3R19347   1.041   0.026   6.728  0.1417 -0.3272  0.6764
  171SAPE   H3S19348   1.068   0.134   6.864  1.0193 -0.1629  0.5108
  171SAPE   C2419349   1.110  -0.069   6.911 -0.3671  0.2850 -0.0687
  171SAPE   H4R19350   1.149  -0.163   6.866 -0.6881  0.1016  0.0320
  171SAPE   H4S19351   1.003  -0.092   6.928 -0.5205  2.2174  1.9485
  171SAPE   C2519352   1.182  -0.050   7.046 -0.2948  0.0803  0.8941
  171SAPE   H5R19353   1.289  -0.026   7.034 -0.0016 -0.3340  2.5326
  171SAPE   C2619354   1.131  -0.064   7.173  0.5101 -0.1293 -0.6759
  171SAPE   H6R19355   1.200  -0.055   7.258 -0.2408  0.9771 -0.1541
  171SAPE   C2719356   0.995  -0.102   7.217 -0.1272 -0.1938 -0.5102
  171SAPE   H7R19357   0.924  -0.083   7.133 -1.5687  2.0365  1.0939
  171SAPE   H7S19358   0.969  -0.030   7.297 -0.0869 -2.2489  1.4265
  171SAPE   C2819359   0.977  -0.239   7.276 -0.6101  0.0663 -0.4462
  171SAPE   H8R19360   0.996  -0.321   7.205  0.4805 -1.5786  1.5970
  171SAPE   C2919361   0.943  -0.280   7.399 -0.4059 -0.2287 -0.8027
  171SAPE   H9R19362   0.948  -0.386   7.429 -1.0015  0.4508  1.8671
  171SAPE  C21019363   0.896  -0.188   7.512 -0.4830  0.1658 -0.5565
  171SAPE  H10R19364   0.811  -0.240   7.561 -0.6863 -1.0729 -2.1319
  171SAPE  H10S19365   0.849  -0.095   7.473 -2.7228 -1.0399 -0.8695
  171SAPE  C21119366   1.006  -0.161   7.617 -0.0999  0.1882 -0.1562
  171SAPE  H11R19367   1.057  -0.244   7.668 -1.0397  0.9622  2.2295
  171SAPE  C21219368   1.042  -0.038   7.665 -0.2897 -0.2183  0.1261
  171SAPE  H12R19369   1.106  -0.031   7.755 -1.1878  0.1352  0.7518
  171SAPE  C21319370   0.986   0.098   7.624 -0.5310 -0.2347 -0.3218
  171SAPE  H13R19371   0.924   0.129   7.710 -0.0454  0.3023 -0.1636
  171SAPE  H13S19372   0.904   0.096   7.548 -0.4615 -1.1175 -0.3919
  171SAPE  C21419373   1.087   0.204   7.576  0.9481 -0.6806 -0.1538
  171SAPE  H14R19374   1.139   0.188   7.480 -2.1385 -0.1962 -2.0445
  171SAPE  C21519375   1.122   0.323   7.628 -0.0728  0.3882 -0.2329
  171SAPE  H15R19376   1.201   0.386   7.584  2.1509 -0.4815  2.2044
  171SAPE  C21619377   1.068   0.392   7.753  0.0338  0.6431  0.4875
  171SAPE  H16R19378   0.973   0.344   7.785  0.3905 -2.0345 -2.0280
  171SAPE  H16S19379   1.046   0.495   7.720  0.2680  0.6656  0.3993
  171SAPE  C21719380   1.167   0.386   7.863  0.3978 -0.4760 -0.8922
  171SAPE  H17R19381   1.273   0.394   7.831  0.2211 -0.9229 -1.6068
  171SAPE  H17S19382   1.144   0.295   7.922  1.0392  0.0456  0.2092
  171SAPE  C21819383   1.142   0.516   7.948 -0.3547 -0.6966 -0.0189
  171SAPE  H18R19384   1.033   0.527   7.970 -0.3262  0.1736 -0.2861
  171SAPE  H18S19385   1.158   0.614   7.897  0.1707  0.2785  1.9401
  171SAPE  C21919386   1.213   0.537   8.082  0.4731  0.1698  0.0243
  171SAPE  H19R19387   1.199   0.638   8.126  0.8168  0.9428 -1.5639
  171SAPE  H19S19388   1.320   0.534   8.053  0.9254  0.7728  1.5131
  171SAPE  C22019389   1.189   0.424   8.183 -0.1950 -0.1647 -0.4360
  171SAPE  H20R19390   1.084   0.420   8.218  0.2137  1.7288  1.1915
  171SAPE  H20S19391   1.251   0.431   8.275 -1.8835 -0.1611  0.7549
  171SAPE  H20T19392   1.214   0.321   8.151  1.9948 -0.3260  1.5242
  171SAPE   C3319393   1.729   0.031   7.009  0.3721  0.2935  0.5719
  171SAPE   H3X19394   1.654   0.110   6.985  1.0527 -0.2177 -4.3431
  171SAPE   H3Y19395   1.820   0.091   7.032  0.3583  1.2466 -1.5696
  171SAPE   C3419396   1.703  -0.060   7.128 -0.4732  0.6471 -0.5406
  171SAPE   H4X19397   1.768  -0.151   7.127 -0.1558  0.7897  1.9527
  171SAPE   H4Y19398   1.599  -0.099   7.125  0.4024 -1.9292 -0.2779
  171SAPE   C3519399   1.733   0.003   7.263  0.2097  0.1999  0.2540
  171SAPE   H5X19400   1.702   0.109   7.252 -0.8477 -0.1092  0.1010
  171SAPE   H5Y19401   1.843  -0.001   7.279  0.1149 -0.4917  0.7788
  171SAPE   C3619402   1.644  -0.050   7.370  0.0959 -0.4285 -0.3139
  171SAPE   H6X19403   1.652  -0.161   7.379  1.2555 -0.3032  0.3597
  171SAPE   H6Y19404   1.536  -0.025   7.362 -0.0652 -1.3347 -1.3181
  171SAPE   C3719405   1.704  -0.004   7.499  0.7925 -0.4516 -0.7184
  171SAPE   H7X19406   1.737   0.102   7.494 -0.2601 -0.0316  0.7380
  171SAPE   H7Y19407   1.801  -0.053   7.523  1.0071 -0.4924 -1.6042
  171SAPE   C3819408   1.609  -0.038   7.621  0.1809 -0.1121  0.2020
  171SAPE   H8X19409   1.578  -0.145   7.615  0.9903 -0.4474  1.4848
  171SAPE   H8Y19410   1.526   0.036   7.617  0.8973  0.6298 -1.6092
  171SAPE   C3919411   1.684  -0.038   7.749  0.1173  0.0697 -0.0693
  171SAPE   H9X19412   1.755   0.048   7.747 -1.2669  1.2559 -1.4979
  171SAPE   H9Y19413   1.742  -0.132   7.742 -2.2298 -1.3695 -1.1412
  171SAPE  C31019414   1.591  -0.037   7.880 -0.1740  0.3125 -0.0702
  171SAPE  H10X19415   1.655  -0.077   7.962  0.0027 -0.6232 -0.6477
  171SAPE  H10Y19416   1.509  -0.110   7.861  0.8032 -0.5904 -0.9927
  171SAPE  C31119417   1.527   0.097   7.916 -0.2269 -0.2341 -0.3798
  171SAPE  H11X19418   1.527   0.168   7.831 -1.0446  0.1217 -0.0956
  171SAPE  H11Y19419   1.586   0.147   7.996  1.1929  2.2834 -2.8334
  171SAPE  C31219420   1.378   0.086   7.975  0.4810  0.2847  0.0264
  171SAPE  H12X19421   1.328   0.033   7.892 -1.7396  3.4283 -0.8441
  171SAPE  H12Y19422   1.338   0.190   7.983 -0.2146  0.0289 -0.0591
  171SAPE  C31319423   1.371   0.026   8.115  0.6582  0.0780  0.2392
  171SAPE  H13X19424   1.419   0.082   8.198 -0.0294  0.2650  0.5151
  171SAPE  H13Y19425   1.438  -0.063   8.111  2.3003  1.2909 -0.8167
  171SAPE  C31419426   1.231  -0.025   8.156 -0.1207  0.0449 -0.0552
  171SAPE  H14X19427   1.163   0.062   8.172  2.0348  1.3983  2.6268
  171SAPE  H14Y19428   1.245  -0.083   8.249  0.5615 -1.0942 -0.8421
  171SAPE  C31519429   1.167  -0.125   8.055  0.8949 -0.9696 -0.7283
  171SAPE  H15X19430   1.237  -0.205   8.022  1.7544  0.1632 -1.6788
  171SAPE  H15Y19431   1.145  -0.067   7.963  2.4756 -1.6606 -1.5858
  171SAPE  C31619432   1.024  -0.178   8.100  0.2798  0.3674 -0.4203
  171SAPE  H16X19433   0.987  -0.240   8.017 -1.9501 -1.2128  1.6243
  171SAPE  H16Y19434   0.964  -0.084   8.105  0.6414  0.6041 -0.4375
  171SAPE  C31719435   1.018  -0.276   8.230  0.2943 -0.1948  0.1150
  171SAPE  H17X19436   1.118  -0.324   8.239  1.5425  2.3627  0.5651
  171SAPE  H17Y19437   0.943  -0.354   8.202 -0.3382  1.0340 -1.8787
  171SAPE  C31819438   1.002  -0.190   8.358  0.0749  0.0250 -0.7066
  171SAPE  H18X19439   1.100  -0.149   8.390 -0.4129  2.5177 -2.2188
  171SAPE  H18Y19440   0.976  -0.254   8.446  0.4197 -0.3274 -0.8596
  171SAPE  H18Z19441   0.937  -0.101   8.347 -0.3833 -0.3499 -1.0774
  172SAPE     N19442   0.984   5.633   6.228 -0.5692 -0.4172 -0.1230
  172SAPE   HN119443   0.994   5.730   6.265  1.8420 -1.4677  2.3255
  172SAPE   HN219444   1.049   5.621   6.147  2.4881  0.0735  2.0968
  172SAPE   HN319445   0.892   5.600   6.194  0.3153 -2.1891 -0.9135
  172SAPE   C1219446   1.024   5.532   6.333  0.3978  0.0619  0.5467
  172SAPE  H12A19447   1.104   5.580   6.392  1.4362 -0.8783 -0.0715
  172SAPE  H12B19448   1.059   5.440   6.282 -1.8072 -0.0730 -0.9029
  172SAPE   C1119449   0.897   5.482   6.409  0.1456  0.4414 -0.2582
  172SAPE  H11A19450   0.868   5.565   6.477 -0.4937 -0.5052  0.6594
  172SAPE  H11B19451   0.938   5.401   6.473  1.4564  2.1365  1.1421
  172SAPE     P19452   0.756   5.288   6.308 -0.0601  0.1773 -0.3813
  172SAPE   O1319453   0.745   5.257   6.166 -0.2957  0.1357  0.3555
  172SAPE   O1419454   0.854   5.206   6.383 -0.5266  0.6308  0.1315
  172SAPE   O1219455   0.789   5.444   6.321 -0.4509  0.1453  0.1574
  172SAPE   O1119456   0.614   5.261   6.378 -0.4856 -0.4555 -0.4852
  172SAPE    C119457   0.543   5.355   6.451  0.0358  0.3375 -0.2930
  172SAPE    HA19458   0.532   5.449   6.393  1.5092  0.7353  0.0265
  172SAPE    HB19459   0.440   5.315   6.467  0.7431 -1.6003 -0.3913
  172SAPE    C219460   0.585   5.383   6.603  0.2408  0.4945 -0.0672
  172SAPE    HS19461   0.647   5.475   6.611  1.6556 -0.6192  3.6818
  172SAPE   O2119462   0.666   5.276   6.651  0.4072  0.6354  0.0657
  172SAPE   C2119463   0.760   5.299   6.742  0.2889 -0.3316  0.5454
  172SAPE   O2219464   0.794   5.409   6.774  0.3898 -0.0387  0.0869
  172SAPE   C2219465   0.812   5.175   6.796 -0.9333  0.0553  0.5009
  172SAPE   H2R19466   0.832   5.100   6.716 -3.0895 -0.0484  0.0092
  172SAPE   H2S19467   0.905   5.194   6.855  1.0350 -0.7568 -2.1204
  172SAPE    C319468   0.456   5.399   6.693 -0.5610 -0.5709 -0.0010
  172SAPE    HX19469   0.406   5.301   6.684 -2.1687 -0.1375  3.0090
  172SAPE    HY19470   0.397   5.487   6.660  2.2732  2.1574  1.5790
  172SAPE   O3119471   0.497   5.422   6.831  0.0121 -0.8010  0.0502
  172SAPE   C3119472   0.532   5.551   6.857  0.2186  0.3908  0.0686
  172SAPE   O3219473   0.549   5.635   6.774 -0.1035  0.0727  0.7243
  172SAPE   C3219474   0.554   5.586   7.007 -0.3235  0.0897 -0.4255
  172SAPE   H2X19475   0.534   5.493   7.065 -1.4757  1.4205  1.4172
  172SAPE   H2Y19476   0.479   5.665   7.029 -0.1284  0.8240 -2.2311
  172SAPE   C2319477   0.708   5.106   6.886  0.5275 -0.1855 -0.6437
  172SAPE   H3R19478   0.745   5.012   6.930 -3.8325 -1.3042  1.1892
  172SAPE   H3S19479   0.617   5.079   6.827  1.7591 -4.6857 -0.8069
  172SAPE   C2419480   0.670   5.194   7.017  0.0103  0.0158  0.5871
  172SAPE   H4R19481   0.624   5.292   6.992  0.6446 -0.0429 -0.9910
  172SAPE   H4S19482   0.766   5.227   7.061  0.3284 -1.3046  0.9409
  172SAPE   C2519483   0.578   5.118   7.113 -0.0093 -1.1767  1.2271
  172SAPE   H5R19484   0.483   5.095   7.063 -0.2473 -0.6053  1.4162
  172SAPE   C2619485   0.600   5.108   7.248  0.0148 -0.3364 -0.2387
  172SAPE   H6R19486   0.523   5.051   7.303 -1.1233  1.5237  0.1959
  172SAPE   C2719487   0.712   5.171   7.330 -0.3771 -0.0562  0.1088
  172SAPE   H7R19488   0.671   5.182   7.432 -0.1687  0.0870  0.1783
  172SAPE   H7S19489   0.735   5.276   7.302  2.5101 -0.4623  0.6364
  172SAPE   C2819490   0.836   5.086   7.319 -0.0838 -0.1808 -0.3682
  172SAPE   H8R19491   0.884   5.100   7.221 -0.7383 -1.0480 -0.8302
  172SAPE   C2919492   0.896   5.039   7.430  0.8322  0.5279  0.2310
  172SAPE   H9R19493   0.982   4.970   7.424  0.5815  0.0177  1.8611
  172SAPE  C21019494   0.849   5.051   7.569  0.5570 -0.4801 -0.3775
  172SAPE  H10R19495   0.740   5.031   7.560  0.9589 -2.5075 -1.1738
  172SAPE  H10S19496   0.864   5.156   7.600 -2.4243 -0.1044  0.1050
  172SAPE  C21119497   0.903   4.949   7.672  0.6758  0.5635  0.5907
  172SAPE  H11R19498   0.924   4.847   7.638 -1.4302 -0.2560  1.5621
  172SAPE  C21219499   0.931   4.961   7.802  0.7579 -0.1253 -0.3777
  172SAPE  H12R19500   0.980   4.879   7.857 -0.1573  0.3900  1.2756
  172SAPE  C21319501   0.909   5.084   7.884  0.1292  0.6204  0.2194
  172SAPE  H13R19502   0.807   5.076   7.928 -0.2046  0.4263 -0.5729
  172SAPE  H13S19503   0.916   5.175   7.822 -1.3045  1.1562  0.7842
  172SAPE  C21419504   1.021   5.085   7.987  0.5508  0.5888 -0.2279
  172SAPE  H14R19505   1.104   5.155   7.968 -0.9184  2.5681  0.3545
  172SAPE  C21519506   1.022   5.030   8.113  0.6017  0.1078 -0.4814
  172SAPE  H15R19507   1.102   5.050   8.185 -0.8927 -0.3390  1.3959
  172SAPE  C21619508   0.908   4.954   8.174 -0.9208  0.3621 -0.4272
  172SAPE  H16R19509   0.810   4.973   8.124 -0.2106  1.5823 -1.4256
  172SAPE  H16S19510   0.898   4.991   8.278 -1.4452  1.9661 -1.0136
  172SAPE  C21719511   0.925   4.797   8.190 -0.0686 -0.6469 -0.2830
  172SAPE  H17R19512   1.002   4.781   8.268  1.1728  1.2570 -1.0494
  172SAPE  H17S19513   0.954   4.747   8.095 -0.1729 -1.7515  0.2543
  172SAPE  C21819514   0.796   4.731   8.230  0.4748 -0.1113 -0.4255
  172SAPE  H18R19515   0.813   4.629   8.189  0.8633 -0.7108  1.1554
  172SAPE  H18S19516   0.703   4.773   8.186 -0.4673  0.4847  1.9866
  172SAPE  C21919517   0.776   4.725   8.381 -0.0806 -0.4198 -0.3770
  172SAPE  H19R19518   0.772   4.828   8.424  0.7702 -0.3502 -0.4403
  172SAPE  H19S19519   0.862   4.680   8.435 -1.3545  1.2498  3.4149
  172SAPE  C22019520   0.650   4.654   8.423 -0.1656 -0.1178 -1.1065
  172SAPE  H20R19521   0.553   4.696   8.389  1.1180 -0.3606 -5.6631
  172SAPE  H20S19522   0.650   4.656   8.534  0.1510  0.0613 -1.1093
  172SAPE  H20T19523   0.648   4.548   8.390 -1.6818 -0.1987 -0.8191
  172SAPE   C3319524   0.695   5.624   7.043 -0.2314 -0.8808  0.4898
  172SAPE   H3X19525   0.702   5.735   7.034 -1.3524 -0.9641 -2.4959
  172SAPE   H3Y19526   0.754   5.582   6.958 -0.0423 -1.5840  0.9590
  172SAPE   C3419527   0.734   5.567   7.175 -0.5884 -0.3560 -0.4742
  172SAPE   H4X19528   0.838   5.605   7.188 -0.8445  0.1112  0.2463
  172SAPE   H4Y19529   0.745   5.457   7.165  0.4206 -0.3381  0.2131
  172SAPE   C3519530   0.650   5.621   7.296  0.6312 -0.2857 -0.1276
  172SAPE   H5X19531   0.549   5.574   7.295  1.0771 -1.3341  1.3765
  172SAPE   H5Y19532   0.640   5.732   7.288  1.3026 -0.1544  0.7641
  172SAPE   C3619533   0.727   5.594   7.429 -0.0617  0.2530 -0.0024
  172SAPE   H6X19534   0.796   5.671   7.471  2.9143 -2.7749  1.0831
  172SAPE   H6Y19535   0.792   5.506   7.411  1.0803  1.1866 -0.6351
  172SAPE   C3719536   0.638   5.567   7.554  1.1364 -0.4609  0.1558
  172SAPE   H7X19537   0.575   5.476   7.542  0.4366 -0.8891  5.1473
  172SAPE   H7Y19538   0.561   5.647   7.564 -0.9044 -2.2486 -0.5549
  172SAPE   C3819539   0.728   5.554   7.681 -0.1752 -0.6804  0.3841
  172SAPE   H8X19540   0.777   5.650   7.707 -1.9450 -0.3785  3.1148
  172SAPE   H8Y19541   0.799   5.478   7.642 -2.4182 -1.9504 -1.4762
  172SAPE   C3919542   0.657   5.488   7.803  0.0113 -0.2070  0.5812
  172SAPE   H9X19543   0.617   5.386   7.785  3.0891 -1.5768  0.8996
  172SAPE   H9Y19544   0.572   5.550   7.840 -1.2760 -1.3512 -0.3526
  172SAPE  C31019545   0.770   5.487   7.908  0.5068 -0.5323 -0.1090
  172SAPE  H10X19546   0.764   5.589   7.951  1.6087  0.0391 -1.2583
  172SAPE  H10Y19547   0.867   5.461   7.860  1.0527 -2.9140  2.0600
  172SAPE  C31119548   0.752   5.381   8.020 -0.2316 -0.1137 -0.0959
  172SAPE  H11X19549   0.849   5.369   8.073  0.5233 -0.0185 -1.4104
  172SAPE  H11Y19550   0.736   5.280   7.978  0.7348 -0.7381  0.9952
  172SAPE  C31219551   0.641   5.418   8.118 -0.1094  0.0176  0.0603
  172SAPE  H12X19552   0.542   5.412   8.067 -0.4492 -1.2943  0.8214
  172SAPE  H12Y19553   0.657   5.524   8.148 -0.6113  0.2912 -0.6157
  172SAPE  C31319554   0.653   5.345   8.253 -0.0667 -0.1898 -0.4976
  172SAPE  H13X19555   0.621   5.417   8.332 -0.2939  0.3668 -1.0787
  172SAPE  H13Y19556   0.761   5.336   8.274 -0.3830  0.8940  1.9147
  172SAPE  C31419557   0.574   5.214   8.260  0.0847 -0.2001  0.2083
  172SAPE  H14X19558   0.615   5.156   8.175  2.0369  0.2610  0.7850
  172SAPE  H14Y19559   0.465   5.230   8.248  0.6964  4.7946 -0.9823
  172SAPE  C31519560   0.608   5.145   8.391 -0.5958  0.0833  0.3969
  172SAPE  H15X19561   0.608   5.220   8.473  0.5265  2.5305 -1.6943
  172SAPE  H15Y19562   0.714   5.116   8.381 -0.7798 -0.4836  0.0098
  172SAPE  C31619563   0.534   5.013   8.417 -0.5423 -0.4184 -0.5627
  172SAPE  H16X19564   0.562   4.962   8.511 -0.9414 -5.0614 -2.6733
  172SAPE  H16Y19565   0.553   4.936   8.339  2.6272  0.8553 -1.1927
  172SAPE  C31719566   0.383   5.022   8.446  0.6868  0.1395  0.0320
  172SAPE  H17X19567   0.334   5.023   8.347  0.8673  0.0060 -0.0602
  172SAPE  H17Y19568   0.365   5.121   8.494 -1.4833 -0.2307  0.0435
  172SAPE  C31819569   0.315   4.920   8.534 -0.0825  0.1473  0.0245
  172SAPE  H18X19570   0.351   4.928   8.639 -0.2024  1.6194 -0.0333
  172SAPE  H18Y19571   0.341   4.815   8.508 -0.8115  0.0090 -0.1750
  172SAPE  H18Z19572   0.205   4.927   8.524  0.2121  2.7303 -2.4785
  173SOPE     N19573   2.433   1.669  10.921  0.4715  0.0254  0.0028
  173SOPE   HN119574   2.420   1.650  10.819  0.5668 -1.3153  0.2142
  173SOPE   HN219575   2.367   1.610  10.977  0.4258 -0.5729 -0.6672
  173SOPE   HN319576   2.413   1.771  10.924  2.6853  0.5380 -0.9788
  173SOPE   C1219577   2.573   1.652  10.970 -0.0414  0.0363  0.1482
  173SOPE  H12A19578   2.599   1.547  10.945 -2.6795 -0.5820 -0.2163
  173SOPE  H12B19579   2.583   1.678  11.078 -0.4510  0.5125  0.0744
  173SOPE   C1119580   2.653   1.751  10.892 -0.0897 -0.3032 -0.4566
  173SOPE  H11A19581   2.649   1.737  10.782  0.4931  1.5774 -0.7402
  173SOPE  H11B19582   2.755   1.725  10.928  0.3235  1.0620 -0.5765
  173SOPE     P19583   2.715   2.005  10.910  0.2027 -0.3269 -0.3693
  173SOPE   O1319584   2.849   1.971  10.969 -0.2716 -0.5412  0.3354
  173SOPE   O1419585   2.651   2.133  10.952 -0.3863 -0.0738 -0.4590
  173SOPE   O1219586   2.616   1.885  10.935 -0.5899  0.0379 -0.3573
  173SOPE   O1119587   2.730   2.011  10.754 -0.1148  0.9152 -1.2250
  173SOPE    C119588   2.625   2.006  10.660 -0.1737  0.1743 -0.0320
  173SOPE    HA19589   2.581   2.108  10.652  0.2887  0.6671  2.6025
  173SOPE    HB19590   2.543   1.937  10.688  0.7446 -1.4880 -1.2487
  173SOPE    C219591   2.668   1.948  10.527 -0.6334 -0.2256  1.1839
  173SOPE    HS19592   2.709   1.847  10.547  1.5366  0.6935  1.7249
  173SOPE   O2119593   2.780   2.034  10.485  0.7576 -0.0830  0.2535
  173SOPE   C2119594   2.872   1.972  10.418 -0.0770 -0.1891 -1.1124
  173SOPE   O2219595   2.874   1.859  10.382  0.5331  0.1266 -0.9008
  173SOPE   C2219596   2.987   2.074  10.393  0.8815 -0.3611  1.0478
  173SOPE   H2R19597   3.086   2.023  10.388  0.7921 -0.5247  0.9263
  173SOPE   H2S19598   3.002   2.140  10.481  3.3879 -0.5350  0.8171
  173SOPE    C319599   2.562   1.950  10.417 -0.1558  0.2836 -0.0730
  173SOPE    HX19600   2.528   2.055  10.402 -0.8855  0.3634  1.7997
  173SOPE    HY19601   2.480   1.899  10.472  2.6646 -2.1437  2.2194
  173SOPE   O3119602   2.593   1.893  10.295  0.2879 -0.0346  0.4815
  173SOPE   C3119603   2.575   1.766  10.271  0.7958  1.0445 -0.8518
  173SOPE   O3219604   2.552   1.682  10.361 -0.0548  0.3886  0.2603
  173SOPE   C3219605   2.571   1.727  10.124  0.1796 -0.4569 -0.3838
  173SOPE   H2X19606   2.627   1.631  10.115 -1.2795 -1.5451  1.3435
  173SOPE   H2Y19607   2.634   1.798  10.067  0.2402  0.0989  0.3593
  173SOPE   C2319608   2.947   2.159  10.265  0.2562 -0.7775  0.2341
  173SOPE   H3R19609   3.032   2.229  10.251 -1.6856  2.0997  1.9687
  173SOPE   H3S19610   2.854   2.216  10.283  0.4544  0.8794 -3.1806
  173SOPE   C2419611   2.932   2.068  10.145  0.5422  0.2984  0.0657
  173SOPE   H4R19612   3.022   2.005  10.128  0.8355  0.7477 -0.0608
  173SOPE   H4S19613   2.840   2.010  10.167  0.4538  0.4783  0.1765
  173SOPE   C2519614   2.920   2.146  10.008 -0.4853  0.0545  0.3568
  173SOPE   H5R19615   2.833   2.214  10.015 -1.5585 -1.2544  0.0591
  173SOPE   H5S19616   3.015   2.203  10.001  0.1140 -0.9072  0.4776
  173SOPE   C2619617   2.922   2.064   9.878  0.9074 -0.3956  0.6273
  173SOPE   H6R19618   2.916   2.136   9.793  0.0919 -2.0354 -0.7431
  173SOPE   H6S19619   3.015   2.003   9.881  1.3315  0.1493 -0.5976
  173SOPE   C2719620   2.797   1.973   9.876  0.4825 -0.2626  0.8667
  173SOPE   H7R19621   2.810   1.891   9.950  0.7623  0.6426  1.8560
  173SOPE   H7S19622   2.722   2.034   9.930  1.7925  1.2846  1.0370
  173SOPE   C2819623   2.741   1.946   9.738  0.1575  0.0729 -0.6862
  173SOPE   H8R19624   2.643   1.898   9.757 -0.1275  0.0421 -2.0976
  173SOPE   H8S19625   2.723   2.037   9.677  3.1203 -0.1857 -2.1168
  173SOPE   C2919626   2.820   1.841   9.681 -0.3677  0.6318  0.4933
  173SOPE   H9119627   2.826   1.748   9.740  0.8310  1.0611  1.0777
  173SOPE  C21019628   2.883   1.847   9.558  0.3561 -0.9118 -0.4663
  173SOPE  H10119629   2.937   1.760   9.519 -0.4399 -0.9370 -1.5594
  173SOPE  C21119630   2.883   1.955   9.455 -0.3217 -0.5272  0.1962
  173SOPE  H11R19631   2.987   1.995   9.449 -0.2839 -0.8719 -2.2335
  173SOPE  H11S19632   2.812   2.034   9.487 -1.8868 -1.6678 -0.3722
  173SOPE  C21219633   2.858   1.895   9.315  0.3458 -0.3214  0.9381
  173SOPE  H12R19634   2.932   1.818   9.286  0.7510  0.4279 -0.1017
  173SOPE  H12S19635   2.869   1.973   9.237  3.7853 -1.6709 -0.0681
  173SOPE  C21319636   2.717   1.840   9.302  0.1388 -0.8373 -0.1958
  173SOPE  H13R19637   2.655   1.932   9.312  0.7166 -0.5205  0.5567
  173SOPE  H13S19638   2.684   1.774   9.386 -3.4957  1.9573  0.8262
  173SOPE  C21419639   2.697   1.770   9.167  0.1155 -0.1792  0.5414
  173SOPE  H14R19640   2.604   1.709   9.169  0.7868 -1.1952  1.8719
  173SOPE  H14S19641   2.784   1.706   9.143  0.1917 -0.1648  0.7756
  173SOPE  C21519642   2.674   1.867   9.046 -0.3917  0.6559  0.3420
  173SOPE  H15R19643   2.769   1.921   9.023 -0.6137  0.3250 -1.4984
  173SOPE  H15S19644   2.606   1.949   9.078 -0.3198  0.3620  1.2555
  173SOPE  C21619645   2.640   1.796   8.916  0.4822 -0.4866  0.0120
  173SOPE  H16R19646   2.553   1.730   8.934 -1.3851  1.8244 -0.0163
  173SOPE  H16S19647   2.726   1.745   8.868 -0.2013 -0.5133 -1.2327
  173SOPE  C21719648   2.597   1.909   8.818 -0.2921  0.8402 -0.2566
  173SOPE  H17R19649   2.692   1.963   8.796  0.2108  0.4892  0.9869
  173SOPE  H17S19650   2.538   1.991   8.864 -0.1492  0.2896  0.9399
  173SOPE  C21819651   2.521   1.854   8.688  0.6970  0.4778  0.3983
  173SOPE  H18R19652   2.480   1.943   8.635  0.4298 -0.1370 -0.4468
  173SOPE  H18S19653   2.435   1.787   8.708 -1.9612  2.7882 -2.2860
  173SOPE  H18T19654   2.589   1.793   8.625 -0.8867 -1.4351  0.4393
  173SOPE   C3319655   2.424   1.719  10.069 -0.0246  0.0446 -0.7911
  173SOPE   H3X19656   2.361   1.798  10.115 -0.5181 -0.2229 -0.9909
  173SOPE   H3Y19657   2.375   1.625  10.103  1.7829 -2.1623 -3.7919
  173SOPE   C3419658   2.411   1.712   9.915 -0.2698  0.2281  0.7729
  173SOPE   H4X19659   2.425   1.811   9.867 -0.2042  0.8269  2.0068
  173SOPE   H4Y19660   2.305   1.688   9.893  0.0592  0.0856 -0.7838
  173SOPE   C3519661   2.508   1.607   9.853  0.4482 -0.2461 -0.1380
  173SOPE   H5X19662   2.535   1.524   9.921  0.8278 -1.0248 -1.2082
  173SOPE   H5Y19663   2.608   1.650   9.829  1.5233 -1.3219  2.1307
  173SOPE   C3619664   2.455   1.545   9.717 -0.2341  0.3376 -0.0813
  173SOPE   H6X19665   2.364   1.485   9.740  0.9077 -0.6900  2.0460
  173SOPE   H6Y19666   2.531   1.475   9.676 -1.4762 -0.5135 -0.9853
  173SOPE   C3719667   2.437   1.652   9.608  0.3944  0.0106 -0.0066
  173SOPE   H7X19668   2.527   1.716   9.605  0.5294 -0.1993 -0.4616
  173SOPE   H7Y19669   2.355   1.721   9.638  0.2689 -0.0487 -0.2036
  173SOPE   C3819670   2.401   1.612   9.469  0.4441 -0.5995 -0.3696
  173SOPE   H8X19671   2.405   1.709   9.415 -0.5783 -1.3867 -1.8951
  173SOPE   H8Y19672   2.296   1.578   9.470  0.1457  0.2845  0.1689
  173SOPE   C3919673   2.489   1.512   9.398  0.2129  0.6995  0.2286
  173SOPE   H9X19674   2.495   1.415   9.452 -0.9500 -0.0136 -0.8689
  173SOPE   H9Y19675   2.592   1.552   9.389 -0.7220  3.1642 -0.3815
  173SOPE  C31019676   2.445   1.473   9.260  0.0621  0.1304  0.2980
  173SOPE  H10X19677   2.414   1.566   9.207 -1.7589 -0.1379  0.8557
  173SOPE  H10Y19678   2.345   1.425   9.265 -0.6606  1.4343 -0.8831
  173SOPE  C31119679   2.554   1.404   9.177 -0.6286  0.0673  0.5082
  173SOPE  H11X19680   2.562   1.298   9.210  1.2332  0.1042  0.2674
  173SOPE  H11Y19681   2.654   1.451   9.189  0.5111 -1.2187 -2.5962
  173SOPE  C31219682   2.536   1.405   9.027  0.6080 -0.4992  1.1562
  173SOPE  H12X19683   2.620   1.359   8.969 -0.5825 -0.5311 -0.6369
  173SOPE  H12Y19684   2.535   1.511   8.992 -0.0912 -0.5741  0.9289
  173SOPE  C31319685   2.410   1.338   8.984 -0.1114 -0.7070  0.4822
  173SOPE  H13X19686   2.319   1.382   9.030  0.6772 -0.6886  2.0948
  173SOPE  H13Y19687   2.415   1.232   9.015  1.3585 -0.4250  1.3167
  173SOPE  C31419688   2.393   1.349   8.829 -0.4238  0.2173  0.4536
  173SOPE  H14X19689   2.477   1.291   8.783 -0.1806  1.0639 -0.1992
  173SOPE  H14Y19690   2.409   1.456   8.805 -2.6876  1.0276  2.2415
  173SOPE  C31519691   2.258   1.288   8.771  0.4414  0.7974  0.0084
  173SOPE  H15X19692   2.184   1.346   8.829 -0.3860 -1.1057  0.9608
  173SOPE  H15Y19693   2.258   1.178   8.789 -0.9237  0.3272 -2.3808
  173SOPE  C31619694   2.235   1.308   8.621  0.4557  0.3675  0.5623
  173SOPE  H16X19695   2.238   1.417   8.601  0.3213  0.1387 -0.8471
  173SOPE  H16Y19696   2.127   1.287   8.600  0.5887  1.7035 -1.8066
  173SOPE  C31719697   2.322   1.227   8.530  0.1990  0.8136 -0.3582
  173SOPE  H17X19698   2.358   1.134   8.580  1.5594  0.9685 -0.9920
  173SOPE  H17Y19699   2.416   1.285   8.517 -0.0372  1.2916  0.0186
  173SOPE  C31819700   2.254   1.180   8.405  1.0901 -0.4482  0.0338
  173SOPE  H18X19701   2.316   1.115   8.339  0.7181 -0.6447 -0.1274
  173SOPE  H18Y19702   2.237   1.275   8.349  0.1395 -0.8449 -0.3730
  173SOPE  H18Z19703   2.161   1.125   8.429 -0.2354  1.6998  0.1064
  174SOPE     N19704   2.561   2.382  10.901 -0.1433 -0.4899 -0.2643
  174SOPE   HN119705   2.578   2.430  10.992  0.4849 -0.7322 -0.2455
  174SOPE   HN219706   2.595   2.284  10.904 -0.6959 -0.6741  1.6728
  174SOPE   HN319707   2.614   2.447  10.840 -0.7719  0.1246 -0.1696
  174SOPE   C1219708   2.413   2.390  10.862 -0.3776 -0.1138  0.1449
  174SOPE  H12A19709   2.401   2.486  10.807  4.3175 -0.7203 -2.5524
  174SOPE  H12B19710   2.353   2.390  10.955 -3.0484 -0.0591 -1.4952
  174SOPE   C1119711   2.377   2.271  10.771  0.0388 -0.1788  0.1009
  174SOPE  H11A19712   2.428   2.282  10.673  1.4348 -1.2678  0.6565
  174SOPE  H11B19713   2.269   2.290  10.757 -0.1841 -0.3871  1.4326
  174SOPE     P19714   2.283   2.058  10.894  0.0994  0.1570  0.2970
  174SOPE   O1319715   2.208   2.156  10.984 -0.0128  0.2950  0.0475
  174SOPE   O1419716   2.334   1.931  10.954  0.0214  0.0293  0.1303
  174SOPE   O1219717   2.406   2.140  10.826  0.1970  0.5104  0.7205
  174SOPE   O1119718   2.184   2.035  10.777 -0.3771  0.4736  0.2634
  174SOPE    C119719   2.199   1.970  10.657 -0.6360  0.2471 -0.2321
  174SOPE    HA19720   2.233   1.864  10.658 -0.4815  0.2897 -0.5520
  174SOPE    HB19721   2.281   2.022  10.603 -0.3049  0.9946  0.9648
  174SOPE    C219722   2.073   1.979  10.566  0.0487  0.4409  0.5384
  174SOPE    HS19723   1.987   1.935  10.622 -0.6654 -0.7245 -1.3454
  174SOPE   O2119724   2.100   1.880  10.466 -0.3412  0.3435 -0.2094
  174SOPE   C2119725   2.005   1.864  10.372 -0.3362  0.5517  0.5873
  174SOPE   O2219726   1.886   1.883  10.382 -0.2363 -0.2863  0.3489
  174SOPE   C2219727   2.075   1.819  10.246  0.3965  0.3382  0.1186
  174SOPE   H2R19728   2.134   1.726  10.257 -0.0534 -0.0059 -0.3511
  174SOPE   H2S19729   2.140   1.904  10.216 -1.0867  1.8817  1.0700
  174SOPE    C319730   2.041   2.124  10.513 -0.0949  0.5782  0.4858
  174SOPE    HX19731   2.031   2.190  10.602 -0.0199  0.8572  0.2861
  174SOPE    HY19732   1.942   2.124  10.463 -1.2156  2.0614  2.5221
  174SOPE   O3119733   2.147   2.173  10.429  0.4120  0.5388 -0.7888
  174SOPE   C3119734   2.124   2.295  10.384  0.6295 -0.4383  0.4429
  174SOPE   O3219735   2.018   2.355  10.400 -0.2834 -0.1585 -0.4902
  174SOPE   C3219736   2.230   2.330  10.297 -0.2218 -0.2455 -0.0986
  174SOPE   H2X19737   2.325   2.287  10.336  0.4020 -0.7064 -2.0535
  174SOPE   H2Y19738   2.241   2.440  10.291 -1.1784 -0.0015  1.8048
  174SOPE   C2319739   1.976   1.783  10.132 -0.0486 -0.2118 -0.3890
  174SOPE   H3R19740   1.912   1.873  10.117 -0.8831 -0.1216  2.9020
  174SOPE   H3S19741   1.909   1.699  10.160  0.3030 -1.5720 -3.3598
  174SOPE   C2419742   2.055   1.747  10.008 -0.4764  0.1347  0.3568
  174SOPE   H4R19743   2.109   1.839   9.977 -0.1218  0.4481  1.8213
  174SOPE   H4S19744   2.117   1.658  10.032  0.2650  0.5466 -0.0087
  174SOPE   C2519745   1.957   1.734   9.882  0.1774  0.2442 -0.3045
  174SOPE   H5R19746   1.869   1.675   9.916  0.6778 -1.2849 -1.5306
  174SOPE   H5S19747   1.917   1.833   9.852  0.2789 -0.1024 -1.6286
  174SOPE   C2619748   2.024   1.676   9.763 -0.2036  0.4894 -0.5516
  174SOPE   H6R19749   2.083   1.757   9.715 -2.1554  1.8492 -0.7570
  174SOPE   H6S19750   2.084   1.588   9.794 -2.0342 -0.6322 -0.0765
  174SOPE   C2719751   1.916   1.641   9.657  0.3144  0.5967 -1.0252
  174SOPE   H7R19752   1.869   1.554   9.707  0.4662  1.2676  0.3405
  174SOPE   H7S19753   1.837   1.719   9.661 -1.4272 -1.1419  2.3941
  174SOPE   C2819754   1.981   1.591   9.529 -0.2585 -0.5223  0.2148
  174SOPE   H8R19755   2.061   1.514   9.541 -1.9086 -2.2327  0.6729
  174SOPE   H8S19756   1.900   1.529   9.485  1.1954 -1.7489 -0.8558
  174SOPE   C2919757   2.038   1.708   9.455  0.9582 -0.5704 -0.2189
  174SOPE   H9119758   2.101   1.773   9.517 -0.7493 -0.1465  1.1482
  174SOPE  C21019759   2.000   1.740   9.329  0.5500 -0.0990 -0.3641
  174SOPE  H10119760   2.037   1.833   9.284 -1.0375  1.1862  0.8430
  174SOPE  C21119761   1.904   1.667   9.242 -0.0072  0.0559 -0.1797
  174SOPE  H11R19762   1.874   1.573   9.293  0.7127  0.0553  0.2658
  174SOPE  H11S19763   1.957   1.647   9.146 -1.1544 -0.8330 -0.6436
  174SOPE  C21219764   1.765   1.732   9.214 -0.1991  0.1206  0.3468
  174SOPE  H12R19765   1.707   1.735   9.308 -1.5343 -1.9834 -0.3444
  174SOPE  H12S19766   1.710   1.671   9.139  1.2387  1.0431 -1.5448
  174SOPE  C21319767   1.788   1.862   9.138 -0.1439 -0.1167 -0.3178
  174SOPE  H13R19768   1.859   1.845   9.055 -0.5882 -1.4276 -0.4507
  174SOPE  H13S19769   1.832   1.938   9.206 -2.3819  0.4098  0.6134
  174SOPE  C21419770   1.655   1.935   9.088  0.2340 -0.4143  0.6358
  174SOPE  H14R19771   1.582   1.935   9.172  0.4064  1.8621  0.8574
  174SOPE  H14S19772   1.618   1.868   9.007 -0.9350 -2.2448  2.5795
  174SOPE  C21519773   1.674   2.067   9.012 -0.6033 -0.3388 -0.1369
  174SOPE  H15R19774   1.729   2.053   8.916  0.6003 -1.1054  0.6361
  174SOPE  H15S19775   1.726   2.135   9.082 -1.8732 -1.0372  1.5534
  174SOPE  C21619776   1.537   2.135   8.995 -0.4749  0.5422 -1.1356
  174SOPE  H16R19777   1.511   2.144   9.103  1.7039 -4.7797  0.1280
  174SOPE  H16S19778   1.463   2.078   8.935 -0.6804 -1.5306  0.9326
  174SOPE  C21719779   1.556   2.282   8.956 -0.0024 -0.9306  0.0366
  174SOPE  H17R19780   1.628   2.329   9.027  0.7058 -0.1900 -1.1423
  174SOPE  H17S19781   1.459   2.331   8.976 -0.1363 -1.6162  1.1533
  174SOPE  C21819782   1.610   2.297   8.810 -0.3692 -0.2660 -1.0448
  174SOPE  H18R19783   1.629   2.406   8.802  1.2967 -0.1881  2.2173
  174SOPE  H18S19784   1.534   2.275   8.732 -1.8230 -0.1314  0.2772
  174SOPE  H18T19785   1.705   2.246   8.784  0.4415  0.6744 -0.0128
  174SOPE   C3319786   2.200   2.277  10.154  0.2523  0.2403 -0.3690
  174SOPE   H3X19787   2.119   2.346  10.122  0.7076  0.7075 -0.5094
  174SOPE   H3Y19788   2.157   2.175  10.165 -0.3181  0.5293  0.1814
  174SOPE   C3419789   2.322   2.271  10.059  0.0138  0.6160 -0.1586
  174SOPE   H4X19790   2.411   2.236  10.115 -1.2392  1.0546  2.2613
  174SOPE   H4Y19791   2.343   2.372  10.019  4.4162 -0.2252 -0.5032
  174SOPE   C3519792   2.301   2.181   9.935 -0.7668  0.4915 -0.2767
  174SOPE   H5X19793   2.198   2.190   9.895 -0.8033  0.3792 -0.2089
  174SOPE   H5Y19794   2.306   2.074   9.963 -2.1353  0.3791 -0.3903
  174SOPE   C3619795   2.406   2.210   9.819  0.2743  0.5599 -0.6880
  174SOPE   H6X19796   2.506   2.204   9.867 -0.3006  0.1446  0.4960
  174SOPE   H6Y19797   2.387   2.314   9.783  0.4405  0.5029 -0.9389
  174SOPE   C3719798   2.402   2.109   9.706  0.7589 -0.4262 -0.3245
  174SOPE   H7X19799   2.378   2.008   9.745 -0.7629 -0.3696 -1.0754
  174SOPE   H7Y19800   2.497   2.101   9.648  1.6244 -0.4227  1.0287
  174SOPE   C3819801   2.283   2.136   9.615 -0.0605  0.0396  0.2813
  174SOPE   H8X19802   2.308   2.235   9.571 -1.2088  1.1370  1.9484
  174SOPE   H8Y19803   2.184   2.131   9.666 -0.2273  0.2499 -0.0209
  174SOPE   C3919804   2.275   2.027   9.507 -0.2741  0.6785 -0.2406
  174SOPE   H9X19805   2.172   1.986   9.505 -0.5447  1.0146  2.4312
  174SOPE   H9Y19806   2.341   1.943   9.535  0.2087  0.7281 -1.2076
  174SOPE  C31019807   2.316   2.074   9.369 -0.3927  0.3010 -0.2918
  174SOPE  H10X19808   2.315   1.986   9.302  1.5400 -0.8519  1.1036
  174SOPE  H10Y19809   2.422   2.108   9.367 -1.1035  2.6605 -2.3762
  174SOPE  C31119810   2.237   2.187   9.304  0.4623 -0.2690 -0.2256
  174SOPE  H11X19811   2.259   2.276   9.367  1.0217 -0.9122  0.5082
  174SOPE  H11Y19812   2.127   2.172   9.295  0.3034 -0.3768  1.5060
  174SOPE  C31219813   2.294   2.223   9.166 -0.2379  0.5303 -0.3245
  174SOPE  H12X19814   2.404   2.206   9.167 -0.6165 -2.4637  1.1982
  174SOPE  H12Y19815   2.273   2.330   9.147  1.6881  0.8010 -1.2032
  174SOPE  C31319816   2.233   2.152   9.043 -0.0306 -0.1702 -0.6382
  174SOPE  H13X19817   2.259   2.211   8.952 -1.1410  1.8241  0.2551
  174SOPE  H13Y19818   2.123   2.164   9.046  0.0105  0.0822  1.2289
  174SOPE  C31419819   2.269   2.006   9.028  0.3971  0.2844  0.4141
  174SOPE  H14X19820   2.233   1.944   9.113  0.2673  0.2236  0.3155
  174SOPE  H14Y19821   2.380   2.001   9.031  0.4764  0.2397 -1.4321
  174SOPE  C31519822   2.215   1.939   8.904 -1.1435  0.4332  0.3476
  174SOPE  H15X19823   2.275   1.977   8.818  1.2966  2.2181  2.6498
  174SOPE  H15Y19824   2.111   1.970   8.880  0.3735  4.9693 -1.6473
  174SOPE  C31619825   2.215   1.782   8.907  0.6307 -0.7899  0.1132
  174SOPE  H16X19826   2.171   1.755   9.005 -2.5343  2.3357 -0.2123
  174SOPE  H16Y19827   2.320   1.749   8.894  1.0309  0.9841 -1.7705
  174SOPE  C31719828   2.124   1.720   8.791 -0.2166  0.7977  0.1616
  174SOPE  H17X19829   2.145   1.611   8.785  0.1490  0.7940  1.1979
  174SOPE  H17Y19830   2.152   1.768   8.695  2.5982 -0.9095  0.0164
  174SOPE  C31819831   1.976   1.725   8.816 -0.5761 -0.1369 -0.4702
  174SOPE  H18X19832   1.923   1.706   8.720  2.1075 -2.4052 -1.6311
  174SOPE  H18Y19833   1.941   1.823   8.855 -0.2941 -0.0729 -0.3772
  174SOPE  H18Z19834   1.943   1.643   8.884  1.1047 -2.6910 -2.5460
  175SOPE     N19835   3.518   4.531  10.828  0.4128  0.4220  0.0530
  175SOPE   HN119836   3.442   4.460  10.832  0.6564 -0.0433 -2.1923
  175SOPE   HN219837   3.604   4.475  10.836  1.6517  2.3120  0.7398
  175SOPE   HN319838   3.498   4.595  10.908  0.9205  0.9991 -0.2708
  175SOPE   C1219839   3.524   4.585  10.688  0.1731 -0.3280 -0.2396
  175SOPE  H12A19840   3.594   4.670  10.675 -2.3444  1.5323 -3.2444
  175SOPE  H12B19841   3.425   4.632  10.668  1.3773  3.0002  0.9887
  175SOPE   C1119842   3.563   4.468  10.601 -0.0010 -0.9424 -0.1337
  175SOPE  H11A19843   3.656   4.426  10.644 -1.3701 -2.5978  1.3804
  175SOPE  H11B19844   3.579   4.501  10.497  0.5399 -0.2499  0.1595
  175SOPE     P19845   3.349   4.353  10.498  0.5600  0.4979  0.0373
  175SOPE   O1319846   3.303   4.489  10.480  0.4521  0.0379  1.0779
  175SOPE   O1419847   3.252   4.242  10.527 -0.0442  0.1302 -0.0154
  175SOPE   O1219848   3.464   4.363  10.610 -0.3980  0.3869  0.5758
  175SOPE   O1119849   3.430   4.321  10.367 -0.0879 -0.9683  0.2754
  175SOPE    C119850   3.528   4.213  10.367  0.1898 -0.1978 -0.1621
  175SOPE    HA19851   3.529   4.142  10.452  2.2779 -1.0745 -0.8625
  175SOPE    HB19852   3.631   4.255  10.366  0.0853  0.1250 -2.3141
  175SOPE    C219853   3.533   4.123  10.243 -0.3992 -0.3220 -0.8356
  175SOPE    HS19854   3.591   4.176  10.165 -1.9239  3.2367  0.2191
  175SOPE   O2119855   3.398   4.079  10.197 -0.1209  0.4223 -0.0916
  175SOPE   C2119856   3.349   4.143  10.095  0.2460 -0.0089  0.3853
  175SOPE   O2219857   3.414   4.236  10.047  0.0661 -0.2245  0.3124
  175SOPE   C2219858   3.203   4.101  10.052  0.0396 -0.8779  0.0265
  175SOPE   H2R19859   3.145   4.194  10.037 -3.1434 -2.8113 -0.6368
  175SOPE   H2S19860   3.154   4.038  10.129  0.2321 -2.5960 -1.1895
  175SOPE    C319861   3.618   3.992  10.279 -0.4341  0.7765  0.4323
  175SOPE    HX19862   3.548   3.941  10.348  0.3458 -0.1815  0.5270
  175SOPE    HY19863   3.709   4.023  10.334 -0.8903  1.6343  0.7298
  175SOPE   O3119864   3.633   3.895  10.171 -0.5621  0.2717 -0.0087
  175SOPE   C3119865   3.739   3.915  10.094  0.5404 -0.6621 -0.9766
  175SOPE   O3219866   3.816   4.006  10.109 -0.1491 -0.9230  0.2953
  175SOPE   C3219867   3.752   3.817   9.974  0.4339 -0.5462 -0.2384
  175SOPE   H2X19868   3.669   3.743   9.972 -1.7095  1.7616 -0.5578
  175SOPE   H2Y19869   3.846   3.762   9.996  0.5788  0.1703  1.0050
  175SOPE   C2319870   3.214   4.030   9.914 -0.3160  0.2396  0.2524
  175SOPE   H3R19871   3.120   3.977   9.887 -0.0998  0.9176 -2.0468
  175SOPE   H3S19872   3.292   3.951   9.919 -0.0311  0.3764 -1.4571
  175SOPE   C2419873   3.233   4.116   9.790  0.1503 -0.5931  0.3158
  175SOPE   H4R19874   3.140   4.175   9.774  0.1658  0.6797  4.0449
  175SOPE   H4S19875   3.319   4.184   9.811 -0.1626 -0.1113  0.0723
  175SOPE   C2519876   3.257   4.028   9.667 -0.0243  0.7526 -0.3578
  175SOPE   H5R19877   3.339   3.955   9.686 -1.5933 -1.6429 -2.0786
  175SOPE   H5S19878   3.167   3.963   9.661  1.9094 -2.6826  3.2112
  175SOPE   C2619879   3.277   4.112   9.540 -0.1192 -0.1091 -0.4406
  175SOPE   H6R19880   3.205   4.196   9.532  2.0230  1.7774 -0.7731
  175SOPE   H6S19881   3.375   4.164   9.537 -1.3539  2.4182  0.0285
  175SOPE   C2719882   3.264   4.024   9.414 -0.4717  0.1568  0.9501
  175SOPE   H7R19883   3.329   3.940   9.445 -0.4195  0.1387  0.7905
  175SOPE   H7S19884   3.160   3.986   9.405  0.1864 -1.3845 -0.7344
  175SOPE   C2819885   3.306   4.091   9.276 -0.7219  0.0428 -0.1673
  175SOPE   H8R19886   3.241   4.180   9.260 -1.8710 -0.6883  0.2945
  175SOPE   H8S19887   3.412   4.123   9.272 -0.9777  1.0277  0.6553
  175SOPE   C2919888   3.299   3.982   9.164 -0.1194 -0.1826 -0.0504
  175SOPE   H9119889   3.387   3.916   9.154 -0.5705 -0.7080 -0.6549
  175SOPE  C21019890   3.202   3.985   9.072  0.1206  0.0328  0.0070
  175SOPE  H10119891   3.212   3.897   9.006  1.9406 -1.6685  2.3434
  175SOPE  C21119892   3.085   4.070   9.061 -0.8660 -0.4659 -0.5484
  175SOPE  H11R19893   3.108   4.172   9.099  0.1388 -0.2329 -1.7407
  175SOPE  H11S19894   3.002   4.031   9.124 -0.4958 -1.6208 -0.7553
  175SOPE  C21219895   3.031   4.079   8.919  0.1145 -0.4785  0.0094
  175SOPE  H12R19896   3.002   3.977   8.884 -2.5023  0.0663  0.3181
  175SOPE  H12S19897   3.107   4.101   8.841  0.4423  2.5692  1.0606
  175SOPE  C21319898   2.905   4.172   8.916  0.0039 -0.5199 -0.2447
  175SOPE  H13R19899   2.939   4.271   8.952 -0.1702 -1.1470  1.8102
  175SOPE  H13S19900   2.842   4.131   8.998  1.1947 -0.2930  0.8353
  175SOPE  C21419901   2.829   4.175   8.787 -0.7266 -0.8127 -0.0692
  175SOPE  H14R19902   2.803   4.073   8.750  2.1456 -0.8357 -2.3834
  175SOPE  H14S19903   2.897   4.207   8.706 -0.2748  2.7915  1.5504
  175SOPE  C21519904   2.710   4.270   8.785  0.3874  0.5914 -0.0694
  175SOPE  H15R19905   2.741   4.374   8.809 -1.2442  1.1132 -0.0783
  175SOPE  H15S19906   2.621   4.248   8.848  0.0707 -0.7117 -0.9311
  175SOPE  C21619907   2.661   4.295   8.642 -0.5465  0.3900 -0.2500
  175SOPE  H16R19908   2.598   4.205   8.622 -0.4233 -0.4166  2.5485
  175SOPE  H16S19909   2.753   4.292   8.580  0.1741 -1.5793  0.8425
  175SOPE  C21719910   2.587   4.420   8.622 -0.2926 -0.6441 -0.3577
  175SOPE  H17R19911   2.652   4.505   8.652 -2.1257  0.6649  0.0347
  175SOPE  H17S19912   2.492   4.425   8.679  0.3058 -2.5378  0.8828
  175SOPE  C21819913   2.545   4.448   8.473  0.2797  0.2050 -0.1838
  175SOPE  H18R19914   2.479   4.367   8.433 -0.2464  0.9958 -0.9359
  175SOPE  H18S19915   2.638   4.438   8.413  1.2171  0.3783  1.1960
  175SOPE  H18T19916   2.495   4.546   8.463 -0.6298 -0.3778 -1.7102
  175SOPE   C3319917   3.753   3.886   9.834  0.0493 -0.1294  0.4987
  175SOPE   H3X19918   3.795   3.811   9.764 -0.7031 -0.6056  0.5435
  175SOPE   H3Y19919   3.835   3.961   9.825  0.1446 -0.4896 -3.0427
  175SOPE   C3419920   3.618   3.932   9.779 -0.6799 -0.0093  0.0667
  175SOPE   H4X19921   3.560   3.992   9.852 -2.6489  0.1073 -1.5174
  175SOPE   H4Y19922   3.553   3.842   9.767  0.6754 -1.2118  1.3074
  175SOPE   C3519923   3.634   3.999   9.642  0.3697 -0.8025  0.2238
  175SOPE   H5X19924   3.692   4.093   9.650  0.4908 -0.7018 -1.3840
  175SOPE   H5Y19925   3.535   4.030   9.602  1.5784  0.5339 -1.9439
  175SOPE   C3619926   3.702   3.914   9.538  0.0659  0.8725  0.6234
  175SOPE   H6X19927   3.642   3.821   9.528  0.3166  0.8017 -0.3159
  175SOPE   H6Y19928   3.802   3.874   9.565 -0.8409 -0.9645  1.4381
  175SOPE   C3719929   3.688   3.986   9.402 -0.4173 -0.2593  0.2692
  175SOPE   H7X19930   3.733   4.088   9.404  0.1887 -0.4986 -0.4668
  175SOPE   H7Y19931   3.583   4.014   9.382 -0.1980 -0.3843 -1.1448
  175SOPE   C3819932   3.761   3.912   9.293 -0.0986 -0.4215 -0.7250
  175SOPE   H8X19933   3.701   3.825   9.258  1.9626 -1.2948 -2.3325
  175SOPE   H8Y19934   3.853   3.863   9.332 -0.5985 -1.4515 -0.7997
  175SOPE   C3919935   3.804   4.001   9.171  0.3918 -0.1770 -0.4077
  175SOPE   H9X19936   3.857   3.930   9.104  0.2404  0.3758 -1.1240
  175SOPE   H9Y19937   3.871   4.082   9.207  0.7350 -0.4084 -0.5158
  175SOPE  C31019938   3.680   4.055   9.103  0.3715 -0.5051  0.4700
  175SOPE  H10X19939   3.630   4.141   9.152  0.3892  0.4780 -1.1650
  175SOPE  H10Y19940   3.603   3.976   9.102  0.2613 -0.4663 -2.8008
  175SOPE  C31119941   3.699   4.094   8.951  0.0386  0.3317 -0.6353
  175SOPE  H11X19942   3.615   4.161   8.923 -0.4643 -0.7326 -1.7230
  175SOPE  H11Y19943   3.694   3.998   8.897 -0.8379 -0.7334  1.2475
  175SOPE  C31219944   3.823   4.168   8.927  0.1338  0.6977 -0.0650
  175SOPE  H12X19945   3.909   4.102   8.952 -1.1751 -0.7325  0.8785
  175SOPE  H12Y19946   3.820   4.257   8.993 -1.9985 -1.2626  2.7208
  175SOPE  C31319947   3.852   4.205   8.782 -0.1269  0.7699  0.0024
  175SOPE  H13X19948   3.946   4.263   8.771 -0.0799  0.5364 -0.9321
  175SOPE  H13Y19949   3.763   4.265   8.753  0.6808  2.1036  0.2147
  175SOPE  C31419950   3.862   4.088   8.684 -0.0406 -0.1662  0.1203
  175SOPE  H14X19951   3.774   4.021   8.692 -2.0339  2.4794  2.0043
  175SOPE  H14Y19952   3.951   4.025   8.707 -2.0656 -2.8520  1.1917
  175SOPE  C31519953   3.874   4.153   8.543 -0.2791  0.3674  0.5003
  175SOPE  H15X19954   3.960   4.221   8.530  1.4808 -1.8229 -0.0152
  175SOPE  H15Y19955   3.779   4.200   8.509  0.1539  0.3122 -0.8162
  175SOPE  C31619956   3.913   4.044   8.448  0.2760 -0.1250 -0.4865
  175SOPE  H16X19957   3.850   3.955   8.468  1.4253 -1.1113 -1.0850
  175SOPE  H16Y19958   4.021   4.018   8.460  0.3844 -0.0322 -1.2312
  175SOPE  C31719959   3.891   4.080   8.298 -0.3175 -0.1775 -0.2078
  175SOPE  H17X19960   3.784   4.092   8.270  0.0610  0.4203 -1.4766
  175SOPE  H17Y19961   3.929   3.989   8.247  0.3793 -0.8718  1.4846
  175SOPE  C31819962   3.993   4.187   8.255 -0.0392  0.4638  0.1308
  175SOPE  H18X19963   3.957   4.281   8.303  0.4658  1.4603 -1.3853
  175SOPE  H18Y19964   3.989   4.205   8.146 -3.5015  0.0218  0.0614
  175SOPE  H18Z19965   4.097   4.177   8.293 -0.2996 -1.1688  0.4800
  176SOPE     N19966   4.038   3.305  10.685 -0.3249  0.2134 -0.4960
  176SOPE   HN119967   4.012   3.403  10.707  0.5762  0.7568 -1.7216
  176SOPE   HN219968   4.140   3.289  10.680 -0.4647 -0.4011 -2.3695
  176SOPE   HN319969   4.013   3.276  10.588 -1.6777 -2.0067  0.4305
  176SOPE   C1219970   3.974   3.219  10.788  0.1107 -0.3256 -0.2814
  176SOPE  H12A19971   3.902   3.150  10.739 -1.4676 -0.3179  1.8355
  176SOPE  H12B19972   3.906   3.271  10.859  0.0456 -1.1008  0.2447
  176SOPE   C1119973   4.063   3.126  10.867 -0.6586 -0.0914 -0.7270
  176SOPE  H11A19974   3.998   3.070  10.937  1.8083 -0.4091  1.4877
  176SOPE  H11B19975   4.128   3.196  10.924 -0.6803  0.4852 -1.3999
  176SOPE     P19976   4.287   3.058  10.756  0.6650  0.4777 -0.2841
  176SOPE   O1319977   4.372   3.015  10.871  0.0434 -0.2409 -0.6846
  176SOPE   O1419978   4.306   3.191  10.695 -0.1225 -0.6564 -0.6509
  176SOPE   O1219979   4.141   3.034  10.787  0.5736  0.2879  0.2232
  176SOPE   O1119980   4.309   2.958  10.637  0.2819  0.4740  0.2517
  176SOPE    C119981   4.325   2.820  10.664 -0.1151 -0.1283  0.4571
  176SOPE    HA19982   4.247   2.779  10.733 -1.9857  1.5508 -0.5274
  176SOPE    HB19983   4.428   2.797  10.696 -0.3073 -0.4107  0.8820
  176SOPE    C219984   4.308   2.741  10.529 -0.2202  0.6017 -0.1659
  176SOPE    HS19985   4.346   2.637  10.538  0.1491  0.8712  2.2291
  176SOPE   O2119986   4.380   2.801  10.422 -0.2892  0.0392  0.3756
  176SOPE   C2119987   4.512   2.782  10.423  0.6826  0.4099 -0.7368
  176SOPE   O2219988   4.576   2.717  10.507  0.0092 -0.4340 -0.6828
  176SOPE   C2219989   4.565   2.842  10.303 -0.1108  0.2991  0.0758
  176SOPE   H2R19990   4.675   2.853  10.308  0.0341  1.3346 -3.1358
  176SOPE   H2S19991   4.524   2.944  10.291 -0.3510  0.3588  1.2655
  176SOPE    C319992   4.165   2.724  10.478 -0.0006  0.1127  0.0655
  176SOPE    HX19993   4.113   2.820  10.459 -1.9379 -0.8459  0.2706
  176SOPE    HY19994   4.104   2.674  10.557  1.2235 -3.6003 -1.1382
  176SOPE   O3119995   4.150   2.634  10.359 -0.4342  0.2726  0.6835
  176SOPE   C3119996   4.105   2.514  10.364 -0.1933  0.2168 -0.3009
  176SOPE   O3219997   4.052   2.466  10.459 -0.6221 -0.2056  0.0145
  176SOPE   C3219998   4.158   2.448  10.242  0.3541  0.2793  0.3237
  176SOPE   H2X19999   4.269   2.449  10.246  0.4250 -0.4703 -0.8892
  176SOPE   H2Y20000   4.121   2.496  10.149  1.5544 -1.4795 -1.1461
  176SOPE   C2320001   4.545   2.757  10.179  0.6567 -0.2377  0.5588
  176SOPE   H3R20002   4.545   2.649  10.204 -0.7999 -0.3377  0.1902
  176SOPE   H3S20003   4.620   2.785  10.102  0.1285  3.0174  1.0501
  176SOPE   C2420004   4.406   2.782  10.121  1.0649 -0.0175 -0.5687
  176SOPE   H4R20005   4.330   2.758  10.198  0.7743  0.1889 -0.7899
  176SOPE   H4S20006   4.396   2.892  10.107 -1.7580  0.0183  1.1001
  176SOPE   C2520007   4.370   2.698   9.994  0.1423 -0.5788  0.0158
  176SOPE   H5R20008   4.453   2.713   9.922  0.4631  0.1481  0.5260
  176SOPE   H5S20009   4.356   2.588  10.002 -1.6116 -0.4791 -1.0474
  176SOPE   C2620010   4.253   2.764   9.920 -0.5954  0.0086 -0.7764
  176SOPE   H6R20011   4.168   2.778   9.991  1.0259  3.9068  0.6272
  176SOPE   H6S20012   4.278   2.867   9.886 -1.1513  0.3093 -0.3046
  176SOPE   C2720013   4.216   2.677   9.802 -0.0439 -0.5603  0.0712
  176SOPE   H7R20014   4.246   2.571   9.818  0.0952 -0.6308 -0.6487
  176SOPE   H7S20015   4.107   2.661   9.786 -0.2927  1.3743 -0.4023
  176SOPE   C2820016   4.286   2.719   9.672  0.3535 -0.1567 -0.1634
  176SOPE   H8R20017   4.397   2.718   9.676  0.4463  2.4642 -0.6219
  176SOPE   H8S20018   4.252   2.652   9.591 -0.3377  2.2824 -1.9827
  176SOPE   C2920019   4.226   2.853   9.645  0.4570 -0.3470 -0.3668
  176SOPE   H9120020   4.170   2.903   9.725 -0.0343 -2.8932  1.0047
  176SOPE  C21020021   4.242   2.913   9.527 -0.1504 -0.0991  0.1783
  176SOPE  H10120022   4.201   3.014   9.514  1.5258  0.3225 -2.4676
  176SOPE  C21120023   4.309   2.851   9.410  0.1609 -0.8011 -0.1042
  176SOPE  H11R20024   4.350   2.749   9.428 -1.9395 -1.7053 -0.1679
  176SOPE  H11S20025   4.397   2.916   9.392  0.5266 -1.0503  0.7343
  176SOPE  C21220026   4.219   2.854   9.280 -0.0858 -0.3596  0.0824
  176SOPE  H12R20027   4.127   2.792   9.291 -0.7656  0.3211 -1.3578
  176SOPE  H12S20028   4.278   2.831   9.189  0.3411 -0.7823  0.4622
  176SOPE  C21320029   4.145   2.991   9.253 -0.9107 -0.8595 -0.0687
  176SOPE  H13R20030   4.223   3.068   9.270 -0.0474 -1.5216 -0.9697
  176SOPE  H13S20031   4.073   3.012   9.335  0.3628 -1.1836  1.1522
  176SOPE  C21420032   4.069   2.996   9.122  0.3957 -0.1704  0.0915
  176SOPE  H14R20033   3.994   3.077   9.115 -1.4021 -1.8307 -0.6803
  176SOPE  H14S20034   4.009   2.905   9.102 -0.7411  0.4288  0.7199
  176SOPE  C21520035   4.164   3.002   8.995 -0.1468 -0.4495  0.0061
  176SOPE  H15R20036   4.236   2.917   9.005  0.7236  0.4332  1.8062
  176SOPE  H15S20037   4.227   3.093   8.992  0.9425 -1.1344  0.8328
  176SOPE  C21620038   4.085   2.975   8.869  0.0044  0.1167  0.0788
  176SOPE  H16R20039   4.012   2.897   8.898 -0.4788  0.7721  0.6670
  176SOPE  H16S20040   4.143   2.922   8.790 -0.6156  0.2265 -0.4662
  176SOPE  C21720041   4.011   3.098   8.813  0.0178  0.4666  0.2391
  176SOPE  H17R20042   4.077   3.178   8.772  1.0602 -1.1274 -1.2973
  176SOPE  H17S20043   3.939   3.139   8.887  0.6354  1.7900  0.1420
  176SOPE  C21820044   3.931   3.064   8.689  0.6475  0.3935  0.1388
  176SOPE  H18R20045   3.833   3.015   8.704  1.1583 -0.0964  2.0419
  176SOPE  H18S20046   3.989   2.992   8.627  1.5547  0.9307  0.3429
  176SOPE  H18T20047   3.913   3.157   8.631  1.2599  0.2944 -0.2148
  176SOPE   C3320048   4.114   2.304  10.222  0.0608 -0.3429  0.1355
  176SOPE   H3X20049   4.005   2.286  10.238 -0.7053 -0.1515 -3.9341
  176SOPE   H3Y20050   4.172   2.241  10.293 -1.6631  1.8430  3.8001
  176SOPE   C3420051   4.146   2.256  10.080 -0.0234  0.1932 -0.7347
  176SOPE   H4X20052   4.145   2.145  10.077  1.1566  0.1884 -1.7040
  176SOPE   H4Y20053   4.253   2.282  10.065  0.1055  0.8392  1.0855
  176SOPE   C3520054   4.052   2.307   9.971 -0.0741 -0.3516  0.1638
  176SOPE   H5X20055   4.065   2.416   9.953 -1.2681 -0.4957 -1.8706
  176SOPE   H5Y20056   3.948   2.285  10.000  0.2395 -1.5890  0.3948
  176SOPE   C3620057   4.080   2.239   9.834  0.6668  0.8119  0.6135
  176SOPE   H6X20058   4.046   2.134   9.824 -1.2619  1.5133 -0.7173
  176SOPE   H6Y20059   4.190   2.230   9.822  0.2374 -1.5793 -2.7771
  176SOPE   C3720060   4.031   2.311   9.706  0.1741  0.3959  0.2797
  176SOPE   H7X20061   4.081   2.410   9.706 -0.8595  0.9382 -0.8052
  176SOPE   H7Y20062   3.927   2.343   9.727  0.4043  0.9392  0.6172
  176SOPE   C3820063   4.043   2.254   9.569  0.2458 -0.0184 -0.1323
  176SOPE   H8X20064   3.999   2.153   9.560 -1.9463  0.7826  0.8019
  176SOPE   H8Y20065   4.153   2.251   9.549  0.1252 -0.3742 -0.7694
  176SOPE   C3920066   3.986   2.346   9.465 -0.1000  0.1391 -0.2050
  176SOPE   H9X20067   4.040   2.442   9.482  0.8202 -0.3847 -0.1364
  176SOPE   H9Y20068   3.878   2.371   9.472 -0.0677  0.6666 -1.2951
  176SOPE  C31020069   4.011   2.290   9.321 -0.6402 -0.1605  0.1326
  176SOPE  H10X20070   3.971   2.186   9.321  2.1308 -1.3213 -0.4784
  176SOPE  H10Y20071   4.121   2.285   9.312 -0.4783  0.4351  1.5927
  176SOPE  C31120072   3.943   2.365   9.207  0.3823 -0.1934  0.7857
  176SOPE  H11X20073   3.992   2.464   9.215 -0.4630  0.1865  1.4104
  176SOPE  H11Y20074   3.833   2.378   9.216 -0.0518 -0.4725 -2.8109
  176SOPE  C31220075   3.981   2.296   9.072 -0.2060 -1.2640 -0.9785
  176SOPE  H12X20076   3.944   2.191   9.077 -1.4894 -0.8702 -1.7056
  176SOPE  H12Y20077   4.091   2.290   9.054  0.2738  0.5437  0.9481
  176SOPE  C31320078   3.913   2.370   8.951  0.7351 -0.2776  0.1417
  176SOPE  H13X20079   3.962   2.459   8.906 -0.2155  1.3003  2.0173
  176SOPE  H13Y20080   3.811   2.401   8.984  0.1557 -0.9763 -0.9503
  176SOPE  C31420081   3.900   2.277   8.826  0.1231  0.4960 -1.1818
  176SOPE  H14X20082   3.849   2.188   8.869 -2.5689  2.1614 -0.6528
  176SOPE  H14Y20083   4.003   2.246   8.798  1.4222  1.0694  2.3925
  176SOPE  C31520084   3.824   2.334   8.711  0.0420  0.0540  1.0376
  176SOPE  H15X20085   3.878   2.424   8.675  1.8079 -1.7754 -1.1202
  176SOPE  H15Y20086   3.726   2.371   8.749  0.8919  0.9164  2.4863
  176SOPE  C31620087   3.817   2.246   8.585  0.1628 -0.5930 -0.0776
  176SOPE  H16X20088   3.749   2.160   8.602 -0.0311 -0.0211  2.2841
  176SOPE  H16Y20089   3.919   2.219   8.550  0.9358  0.1547  1.5287
  176SOPE  C31720090   3.743   2.327   8.474 -0.0745 -0.2649 -0.4311
  176SOPE  H17X20091   3.793   2.425   8.458 -0.5723  0.5457  2.4417
  176SOPE  H17Y20092   3.642   2.360   8.506  0.2256 -0.2006  0.4777
  176SOPE  C31820093   3.729   2.240   8.353  0.2714  0.0758  0.3503
  176SOPE  H18X20094   3.826   2.194   8.326 -0.4615 -0.3361 -1.7940
  176SOPE  H18Y20095   3.697   2.310   8.272  3.3775  1.8847  0.5353
  176SOPE  H18Z20096   3.654   2.161   8.376  0.3589  0.3984  1.8406
  177SOPE     N20097   3.296   0.544  11.374 -0.7705 -0.1124  0.5622
  177SOPE   HN120098   3.273   0.514  11.277 -0.1633  0.3778  0.2531
  177SOPE   HN220099   3.399   0.529  11.376 -0.2230  1.2951 -4.3394
  177SOPE   HN320100   3.250   0.478  11.440 -1.6976  0.1044  0.1466
  177SOPE   C1220101   3.259   0.683  11.387  0.2083 -0.0855  0.4223
  177SOPE  H12A20102   3.300   0.720  11.484  1.8730 -0.3219 -0.1660
  177SOPE  H12B20103   3.148   0.689  11.386  0.1730 -0.2747 -1.9115
  177SOPE   C1120104   3.317   0.757  11.262 -0.1183 -0.9792  0.4150
  177SOPE  H11A20105   3.420   0.719  11.243  0.9689  1.1303  1.6671
  177SOPE  H11B20106   3.328   0.857  11.308 -0.0112 -1.9845  2.7569
  177SOPE     P20107   3.111   0.837  11.130 -0.0231 -0.0644 -0.2496
  177SOPE   O1320108   3.028   0.821  11.249 -0.2803  0.0692  0.0382
  177SOPE   O1420109   3.050   0.805  11.003  0.1065  0.1466  0.3508
  177SOPE   O1220110   3.235   0.744  11.150 -0.5172 -0.1058 -0.1903
  177SOPE   O1120111   3.169   0.985  11.134  0.1689 -0.0306 -0.4355
  177SOPE    C120112   3.272   1.032  11.055 -0.0306 -0.1280 -0.0698
  177SOPE    HA20113   3.351   0.956  11.037  0.8173  0.8064 -0.3711
  177SOPE    HB20114   3.313   1.114  11.117 -0.6816 -0.1268  0.3704
  177SOPE    C220115   3.215   1.081  10.921  0.8249 -0.3994  0.7887
  177SOPE    HS20116   3.130   1.151  10.935  0.2637 -0.9079  0.0059
  177SOPE   O2120117   3.185   0.971  10.830 -0.2693 -0.5047  0.1334
  177SOPE   C2120118   3.066   0.976  10.771 -1.3310  0.6767  0.5389
  177SOPE   O2220119   2.981   1.056  10.794  0.4799 -0.0285 -0.8277
  177SOPE   C2220120   3.074   0.872  10.648  0.5799  0.1935 -0.4835
  177SOPE   H2R20121   3.055   0.769  10.684  1.1564  0.5346  0.8589
  177SOPE   H2S20122   3.172   0.875  10.596  0.9804  2.7068  0.2917
  177SOPE    C320123   3.325   1.170  10.848  0.0120 -0.3951  0.0688
  177SOPE    HX20124   3.413   1.108  10.821  0.2496  0.5946 -1.5265
  177SOPE    HY20125   3.366   1.237  10.927 -3.4840 -0.9912  2.6522
  177SOPE   O3120126   3.274   1.234  10.726  0.0753  0.2063  0.0007
  177SOPE   C3120127   3.221   1.345  10.746 -0.4291 -0.4006 -0.5994
  177SOPE   O3220128   3.185   1.399  10.853 -0.1180  0.2229 -0.4011
  177SOPE   C3220129   3.201   1.407  10.610 -0.1135 -0.3853  0.7040
  177SOPE   H2X20130   3.096   1.387  10.577  0.4743  0.0633 -1.6116
  177SOPE   H2Y20131   3.258   1.352  10.533  2.5145  1.5538  1.1572
  177SOPE   C2320132   2.953   0.905  10.552  0.2125 -0.5377 -0.2189
  177SOPE   H3R20133   2.862   0.904  10.616  0.9375  0.0022  0.8578
  177SOPE   H3S20134   2.933   0.821  10.482 -0.6026 -1.7159  1.3701
  177SOPE   C2420135   2.974   1.028  10.462 -0.0470  0.3728 -0.7812
  177SOPE   H4R20136   2.893   1.035  10.387  0.6443 -3.0366 -2.0235
  177SOPE   H4S20137   2.941   1.110  10.530  2.4759 -0.3147  1.4606
  177SOPE   C2520138   3.115   1.051  10.411  0.2958 -0.0696  0.1372
  177SOPE   H5R20139   3.114   1.149  10.358  1.7826  0.1373  0.4693
  177SOPE   H5S20140   3.187   1.070  10.493  0.4831 -0.5273  0.0847
  177SOPE   C2620141   3.162   0.944  10.315  0.9969 -0.3568 -0.0576
  177SOPE   H6R20142   3.256   0.978  10.266 -0.4097  0.5611 -2.2805
  177SOPE   H6S20143   3.191   0.851  10.368 -2.4140 -0.9786  0.9743
  177SOPE   C2720144   3.057   0.912  10.209 -0.2105  0.0424  0.5265
  177SOPE   H7R20145   2.976   0.853  10.258 -0.6051  0.1258 -0.0134
  177SOPE   H7S20146   3.012   1.008  10.174 -0.2958  0.3444  1.4195
  177SOPE   C2820147   3.117   0.836  10.096 -0.2239 -0.5499  0.8921
  177SOPE   H8R20148   3.207   0.890  10.058  0.5325 -1.6606  1.0591
  177SOPE   H8S20149   3.156   0.742  10.141  1.9384  0.1785  0.6876
  177SOPE   C2920150   3.011   0.801   9.992  0.4992 -0.3842 -0.9372
  177SOPE   H9120151   2.925   0.750  10.038  1.5009 -0.5214  0.8584
  177SOPE  C21020152   3.004   0.845   9.863 -0.0274 -0.6017  0.2055
  177SOPE  H10120153   2.912   0.819   9.809 -0.4303 -0.4384  0.7940
  177SOPE  C21120154   3.100   0.943   9.799 -0.1553 -0.1427 -0.1711
  177SOPE  H11R20155   3.196   0.888   9.806 -0.4689 -0.5719  1.0361
  177SOPE  H11S20156   3.092   1.040   9.853 -1.9670 -0.1819 -0.2800
  177SOPE  C21220157   3.082   0.974   9.657 -0.7143 -0.2384  0.0860
  177SOPE  H12R20158   2.990   1.032   9.632  0.6488  2.1234  0.2367
  177SOPE  H12S20159   3.074   0.880   9.598  0.6910 -0.4576  0.2137
  177SOPE  C21320160   3.198   1.047   9.594 -0.3537  0.4983 -0.7683
  177SOPE  H13R20161   3.290   0.988   9.612  0.7015  1.7579 -1.8485
  177SOPE  H13S20162   3.206   1.147   9.642 -1.5960 -0.8818  2.5611
  177SOPE  C21420163   3.173   1.075   9.441  0.2443  0.2510 -0.0388
  177SOPE  H14R20164   3.244   1.156   9.414  0.7335 -0.1305  0.0980
  177SOPE  H14S20165   3.077   1.122   9.411  1.0188  2.8935  1.2715
  177SOPE  C21520166   3.205   0.943   9.359 -0.0487 -0.1016 -0.6782
  177SOPE  H15R20167   3.119   0.873   9.360  0.3632 -0.6747  2.1490
  177SOPE  H15S20168   3.291   0.896   9.411 -0.4008 -0.4561 -0.4134
  177SOPE  C21620169   3.261   0.973   9.221 -0.2531  0.6299  0.1711
  177SOPE  H16R20170   3.326   0.888   9.191  0.0351  1.2453 -1.0436
  177SOPE  H16S20171   3.342   1.049   9.224 -0.8591  1.2550  2.5491
  177SOPE  C21720172   3.157   0.971   9.106 -0.0435 -0.1470  0.7148
  177SOPE  H17R20173   3.107   1.069   9.092 -2.4448 -1.4185 -0.1778
  177SOPE  H17S20174   3.080   0.891   9.110 -1.0801  0.7027 -1.1164
  177SOPE  C21820175   3.231   0.949   8.974  0.5512 -0.0279  0.3055
  177SOPE  H18R20176   3.322   0.884   8.975  1.6842  1.3918 -2.0344
  177SOPE  H18S20177   3.271   1.047   8.939  3.1515 -0.5211  1.6209
  177SOPE  H18T20178   3.165   0.921   8.889  0.1403  1.3348  0.1593
  177SOPE   C3320179   3.229   1.559  10.603 -0.6291  0.1119  0.2521
  177SOPE   H3X20180   3.303   1.607  10.670 -0.0687 -0.7379  0.2601
  177SOPE   H3Y20181   3.124   1.591  10.622 -0.9368 -0.5315 -0.3169
  177SOPE   C3420182   3.268   1.594  10.452 -0.1774 -0.0311 -0.2545
  177SOPE   H4X20183   3.204   1.551  10.372  0.8781 -2.3258  0.0267
  177SOPE   H4Y20184   3.367   1.546  10.434 -0.5696 -0.0797 -2.4872
  177SOPE   C3520185   3.272   1.740  10.431  0.1081 -0.4062  0.2431
  177SOPE   H5X20186   3.372   1.783  10.450 -0.2160 -1.0933  4.5632
  177SOPE   H5Y20187   3.200   1.791  10.500 -0.3054 -1.9955  1.0361
  177SOPE   C3620188   3.226   1.785  10.286 -0.3360  0.4196  0.0418
  177SOPE   H6X20189   3.257   1.891  10.270 -1.2136  0.3894 -2.2624
  177SOPE   H6Y20190   3.117   1.772  10.274 -0.2133 -0.7091  0.0842
  177SOPE   C3720191   3.294   1.703  10.172 -0.4695 -0.2200 -0.0142
  177SOPE   H7X20192   3.255   1.600  10.159  0.1022 -0.1484 -3.0279
  177SOPE   H7Y20193   3.403   1.695  10.190 -0.0841 -0.7600 -2.2629
  177SOPE   C3820194   3.258   1.771  10.041 -0.3159 -0.0069  0.1326
  177SOPE   H8X20195   3.299   1.874  10.044 -0.7819  0.1833  3.5119
  177SOPE   H8Y20196   3.148   1.780  10.028 -0.2543 -0.2545 -0.6563
  177SOPE   C3920197   3.315   1.692   9.925  0.4016  0.8496  0.4094
  177SOPE   H9X20198   3.277   1.588   9.934  0.5564  0.6232 -1.2494
  177SOPE   H9Y20199   3.425   1.693   9.931  0.3727 -0.7946  1.8405
  177SOPE  C31020200   3.276   1.738   9.782 -0.4855 -0.2699  0.0675
  177SOPE  H10X20201   3.191   1.809   9.799  2.7639  4.6317 -1.8843
  177SOPE  H10Y20202   3.251   1.650   9.719 -0.5191 -0.2537  0.0580
  177SOPE  C31120203   3.388   1.807   9.701  0.5080  0.3349  0.5179
  177SOPE  H11X20204   3.446   1.721   9.661 -3.2285 -1.2307 -2.2352
  177SOPE  H11Y20205   3.448   1.882   9.756  0.0486 -1.3563  3.4999
  177SOPE  C31220206   3.337   1.885   9.585  0.0156  0.3499 -0.7174
  177SOPE  H12X20207   3.399   1.977   9.578  1.8168 -0.4642  2.3830
  177SOPE  H12Y20208   3.232   1.917   9.595 -0.6056 -0.7164 -3.1602
  177SOPE  C31320209   3.348   1.812   9.449  0.4145  0.1939 -0.0492
  177SOPE  H13X20210   3.303   1.711   9.462  0.5882  0.3666  2.1518
  177SOPE  H13Y20211   3.455   1.798   9.424  0.1039 -0.6427 -1.0057
  177SOPE  C31420212   3.278   1.886   9.332  0.0330  0.2047 -0.4263
  177SOPE  H14X20213   3.323   1.987   9.327  0.9501 -0.1602  0.2207
  177SOPE  H14Y20214   3.173   1.905   9.363  0.7124  1.9253  0.9706
  177SOPE  C31520215   3.276   1.818   9.201 -0.0946 -0.2565 -0.7723
  177SOPE  H15X20216   3.234   1.716   9.212 -0.1957 -0.0008  1.9176
  177SOPE  H15Y20217   3.371   1.805   9.145  0.4369  2.3071 -0.5508
  177SOPE  C31620218   3.194   1.892   9.101  0.0014  0.5919 -0.3485
  177SOPE  H16X20219   3.242   1.987   9.066  2.0413  0.4351  1.7815
  177SOPE  H16Y20220   3.102   1.912   9.159  0.4707 -0.8956  0.9730
  177SOPE  C31720221   3.161   1.802   8.980  0.6503  0.6939 -0.1931
  177SOPE  H17X20222   3.090   1.725   9.015 -0.2744  1.6962  0.1789
  177SOPE  H17Y20223   3.256   1.750   8.955 -0.6492 -1.8788 -0.0552
  177SOPE  C31820224   3.103   1.890   8.873  0.1813 -0.5048  0.6894
  177SOPE  H18X20225   3.069   1.824   8.790 -4.6176  0.2847  1.7674
  177SOPE  H18Y20226   3.174   1.969   8.842  0.0130 -1.4255 -2.4320
  177SOPE  H18Z20227   3.006   1.940   8.891  1.7165  2.1183  2.3215
  178SOPE     N20228   5.188   6.580  10.432 -0.3091 -0.5592  0.1389
  178SOPE   HN120229   5.086   6.569  10.417 -0.1563 -0.9374 -0.6831
  178SOPE   HN220230   5.203   6.617  10.528  2.6835  2.1947 -1.1813
  178SOPE   HN320231   5.210   6.652  10.360 -1.7449 -0.7555 -0.5168
  178SOPE   C1220232   5.248   6.447  10.401  0.6772  0.1472  0.0139
  178SOPE  H12A20233   5.256   6.442  10.290  1.1027 -1.5081  0.0932
  178SOPE  H12B20234   5.178   6.370  10.440  1.6138  0.0853  1.6438
  178SOPE   C1120235   5.376   6.436  10.470  0.1356  0.0678 -0.4161
  178SOPE  H11A20236   5.459   6.492  10.422  2.1453 -3.0170 -0.8582
  178SOPE  H11B20237   5.412   6.330  10.472  1.4739  0.4979  1.6325
  178SOPE     P20238   5.481   6.513  10.703 -0.1917  0.1204 -0.2147
  178SOPE   O1320239   5.536   6.381  10.753  0.2553  0.1545 -0.0179
  178SOPE   O1420240   5.436   6.610  10.808 -0.3520  0.1858  0.0290
  178SOPE   O1220241   5.358   6.467  10.609 -0.2107 -0.3630 -0.4190
  178SOPE   O1120242   5.586   6.589  10.615 -0.1792 -0.4612 -0.4617
  178SOPE    C120243   5.546   6.717  10.562 -0.1799  0.7280 -0.7086
  178SOPE    HA20244   5.515   6.789  10.641  0.8751 -0.2690  0.6477
  178SOPE    HB20245   5.450   6.701  10.507 -1.3906 -0.3156  1.5803
  178SOPE    C220246   5.655   6.780  10.473  0.1803  0.1699  0.6331
  178SOPE    HS20247   5.619   6.870  10.419  2.6312 -0.7371 -2.8248
  178SOPE   O2120248   5.698   6.686  10.376  0.0132  0.1410  0.5353
  178SOPE   C2120249   5.614   6.662  10.275 -0.0972 -0.3862  0.1761
  178SOPE   O2220250   5.501   6.706  10.256 -0.1186  0.1613 -0.2606
  178SOPE   C2220251   5.679   6.562  10.182 -0.3465 -0.0469  0.6538
  178SOPE   H2R20252   5.599   6.493  10.147  0.2166 -0.3466 -0.0714
  178SOPE   H2S20253   5.760   6.512  10.239 -0.0220  1.4549  1.5758
  178SOPE    C320254   5.780   6.834  10.552  0.1789  0.5772 -0.0646
  178SOPE    HX20255   5.850   6.752  10.576 -1.3082 -1.0209 -0.9253
  178SOPE    HY20256   5.745   6.867  10.652  1.7694  0.3337  0.5913
  178SOPE   O3120257   5.844   6.938  10.476  0.2967 -0.6790 -0.7422
  178SOPE   C3120258   5.958   6.969  10.545 -0.0593 -0.1345  0.4414
  178SOPE   O3220259   5.985   6.926  10.655 -0.4794 -0.1666 -0.1124
  178SOPE   C3220260   6.050   7.050  10.465 -1.2380 -0.1271 -0.3906
  178SOPE   H2X20261   6.111   7.112  10.534  0.8909 -2.0012 -0.4787
  178SOPE   H2Y20262   5.988   7.106  10.391 -1.2100 -0.5867 -0.7703
  178SOPE   C2320263   5.727   6.629  10.060  0.0957 -0.8452  0.6649
  178SOPE   H3R20264   5.795   6.711  10.090  1.6793 -1.9619  0.2441
  178SOPE   H3S20265   5.645   6.664   9.993 -0.7377  0.7438  2.4264
  178SOPE   C2420266   5.815   6.525   9.982 -0.1305 -0.7332  0.7428
  178SOPE   H4R20267   5.884   6.479  10.056  1.7163  0.5928 -0.0692
  178SOPE   H4S20268   5.748   6.450   9.936 -1.0496  0.8657 -0.6737
  178SOPE   C2520269   5.913   6.572   9.874 -0.0968 -0.0919 -0.2331
  178SOPE   H5R20270   5.971   6.663   9.902 -0.7327 -0.3586  2.1855
  178SOPE   H5S20271   5.972   6.486   9.837 -2.8607 -2.1053 -0.2736
  178SOPE   C2620272   5.822   6.609   9.750 -0.3551  0.0043 -0.3396
  178SOPE   H6R20273   5.758   6.523   9.720  1.4920 -1.3622 -0.6301
  178SOPE   H6S20274   5.761   6.696   9.780 -0.9697 -0.6755  0.4414
  178SOPE   C2720275   5.906   6.654   9.628 -0.2544 -0.3161  0.5935
  178SOPE   H7R20276   5.856   6.739   9.577 -2.8967  0.2611  3.8014
  178SOPE   H7S20277   6.003   6.687   9.672  0.0545 -1.7215  1.0169
  178SOPE   C2820278   5.938   6.539   9.524 -0.3093 -0.2087 -0.3943
  178SOPE   H8R20279   5.988   6.445   9.557 -2.1501 -0.6943  1.1773
  178SOPE   H8S20280   5.842   6.508   9.478 -1.1242  1.0309  0.4155
  178SOPE   C2920281   6.022   6.582   9.407  0.2460 -0.4969  0.1339
  178SOPE   H9120282   6.111   6.632   9.448 -0.3539  0.8837 -0.1801
  178SOPE  C21020283   5.995   6.583   9.276 -0.2882  0.0297 -0.6664
  178SOPE  H10120284   6.075   6.612   9.207  0.6663 -1.0155 -0.0318
  178SOPE  C21120285   5.866   6.547   9.202  0.1028 -0.0909 -0.0808
  178SOPE  H11R20286   5.818   6.631   9.147  1.0778  0.7704  0.3704
  178SOPE  H11S20287   5.786   6.507   9.268 -0.4736 -0.6718 -1.0969
  178SOPE  C21220288   5.886   6.439   9.098  0.5110  0.4043 -0.1139
  178SOPE  H12R20289   5.788   6.417   9.050 -0.6168  0.7354  1.8810
  178SOPE  H12S20290   5.925   6.351   9.153  0.8639 -0.0378 -1.0532
  178SOPE  C21320291   5.969   6.472   8.975 -0.7216  0.2855  0.0171
  178SOPE  H13R20292   5.981   6.381   8.913  2.6962 -0.4246  1.5298
  178SOPE  H13S20293   6.071   6.508   8.998  0.1861 -2.4606  0.6572
  178SOPE  C21420294   5.910   6.583   8.887  0.2648  0.5342  0.3162
  178SOPE  H14R20295   5.923   6.670   8.954  0.9235 -0.0747  0.9945
  178SOPE  H14S20296   5.803   6.570   8.860 -0.0788  1.8788  0.9431
  178SOPE  C21520297   5.992   6.618   8.764  0.0376 -0.6696  0.4990
  178SOPE  H15R20298   5.988   6.526   8.703  1.7839 -1.2894  1.2563
  178SOPE  H15S20299   6.100   6.630   8.788  0.6978  0.9474 -2.7805
  178SOPE  C21620300   5.957   6.738   8.681  1.0366 -0.5453 -0.7225
  178SOPE  H16R20301   5.975   6.828   8.744 -3.5034  0.7164 -0.8410
  178SOPE  H16S20302   5.850   6.752   8.657  0.6938  0.8877  1.3209
  178SOPE  C21720303   6.054   6.750   8.555  0.6149  0.1429 -0.3331
  178SOPE  H17R20304   6.034   6.657   8.497  0.5155 -0.6467  0.9332
  178SOPE  H17S20305   6.163   6.751   8.578  1.4836 -1.9088 -3.6267
  178SOPE  C21820306   6.019   6.875   8.471 -0.5889 -0.2407  0.0381
  178SOPE  H18R20307   5.926   6.844   8.419 -0.5452 -0.5694  0.1563
  178SOPE  H18S20308   6.105   6.903   8.406 -1.8066  0.3696 -1.3760
  178SOPE  H18T20309   6.003   6.963   8.537  0.6456  0.6275 -0.7817
  178SOPE   C3320310   6.154   6.957  10.396  0.1006 -0.3326  0.1100
  178SOPE   H3X20311   6.177   6.871  10.462  1.7336 -0.9336 -1.1716
  178SOPE   H3Y20312   6.254   7.005  10.393 -0.6617  1.5427  2.0657
  178SOPE   C3420313   6.104   6.901  10.261 -0.4079 -0.0222 -0.2772
  178SOPE   H4X20314   5.997   6.871  10.261 -0.8948  1.5767 -1.9839
  178SOPE   H4Y20315   6.161   6.810  10.232  1.8558  1.7815 -1.9071
  178SOPE   C3520316   6.113   7.011  10.156 -0.5406  0.2591 -0.4119
  178SOPE   H5X20317   6.214   7.059  10.159  0.4904 -1.7744 -0.4401
  178SOPE   H5Y20318   6.039   7.094  10.164 -2.0459 -0.8422 -2.1569
  178SOPE   C3620319   6.090   6.958  10.015  0.1797 -0.1161  0.8747
  178SOPE   H6X20320   5.998   6.897  10.013  0.2348 -0.1927 -1.2117
  178SOPE   H6Y20321   6.169   6.884   9.989  0.1682 -0.3099  1.3707
  178SOPE   C3720322   6.074   7.068   9.902 -0.0650 -0.8979 -0.2386
  178SOPE   H7X20323   6.158   7.141   9.894 -0.0470 -0.5673  2.1147
  178SOPE   H7Y20324   5.987   7.135   9.919  2.3547  2.9062 -1.6430
  178SOPE   C3820325   6.050   6.995   9.766  0.7798  0.1791 -0.2878
  178SOPE   H8X20326   5.947   6.953   9.766  1.7402 -2.2998  0.0158
  178SOPE   H8Y20327   6.114   6.907   9.784 -0.4688 -0.7737 -0.3891
  178SOPE   C3920328   6.099   7.070   9.640 -0.5320  0.2323 -0.4132
  178SOPE   H9X20329   6.198   7.115   9.666 -0.5907  0.0754  0.1015
  178SOPE   H9Y20330   6.021   7.149   9.640 -2.6506 -1.6905  1.3906
  178SOPE  C31020331   6.108   6.974   9.522  0.7495 -0.2887  0.0131
  178SOPE  H10X20332   6.015   6.914   9.528  0.5255  0.0328 -0.2214
  178SOPE  H10Y20333   6.188   6.898   9.533  0.8598 -0.3885 -1.3163
  178SOPE  C31120334   6.100   7.035   9.385  0.0997 -0.6470 -0.3496
  178SOPE  H11X20335   6.199   7.085   9.379  1.1819 -2.5114  0.8280
  178SOPE  H11Y20336   6.010   7.096   9.366 -1.6657 -2.6177  1.1394
  178SOPE  C31220337   6.110   6.932   9.271 -0.3775  0.8545  0.0335
  178SOPE  H12X20338   6.012   6.897   9.234 -0.4587  2.0898 -0.9668
  178SOPE  H12Y20339   6.168   6.841   9.297  0.8740  1.0859 -1.7319
  178SOPE  C31320340   6.177   6.995   9.142 -0.5799 -0.0437 -0.3110
  178SOPE  H13X20341   6.279   7.023   9.177 -1.4949  1.3136  1.4462
  178SOPE  H13Y20342   6.122   7.088   9.115 -1.3407 -1.1142 -2.7252
  178SOPE  C31420343   6.192   6.891   9.024 -0.0329  0.1875 -0.4868
  178SOPE  H14X20344   6.088   6.876   8.988 -0.8682  0.5390  1.6421
  178SOPE  H14Y20345   6.236   6.797   9.064  0.3389  0.1085 -1.0684
  178SOPE  C31520346   6.287   6.932   8.903 -0.0352  0.0577 -0.2261
  178SOPE  H15X20347   6.286   6.854   8.824  0.5526 -0.6288  0.4299
  178SOPE  H15Y20348   6.393   6.937   8.936  0.0024 -1.8134  0.0776
  178SOPE  C31620349   6.239   7.057   8.838 -0.8284 -0.0825  0.0901
  178SOPE  H16X20350   6.250   7.134   8.917  0.7783 -0.8097  0.6023
  178SOPE  H16Y20351   6.134   7.042   8.804 -0.3031 -1.2425 -1.0826
  178SOPE  C31720352   6.321   7.092   8.706 -0.4658  0.2598 -0.7879
  178SOPE  H17X20353   6.291   7.194   8.675  0.1585  0.1546 -1.7789
  178SOPE  H17Y20354   6.279   7.030   8.624 -0.2186  0.9609 -1.4516
  178SOPE  C31820355   6.473   7.086   8.706 -0.0130  0.2101 -0.2879
  178SOPE  H18X20356   6.518   7.103   8.606  0.9164  0.3200  0.1402
  178SOPE  H18Y20357   6.497   6.984   8.744 -1.5219  0.7881  2.4166
  178SOPE  H18Z20358   6.520   7.159   8.774 -0.4207 -0.4633  0.7396
  179SOPE     N20359   4.238   1.009   6.434  0.5839 -0.4139  0.6459
  179SOPE   HN120360   4.316   1.010   6.502  0.9533 -0.0630  0.2261
  179SOPE   HN220361   4.163   0.942   6.464 -0.6371  0.7875  0.3964
  179SOPE   HN320362   4.279   0.962   6.350  2.0619  3.5329 -1.0847
  179SOPE   C1220363   4.196   1.148   6.377  0.3567  0.0544 -0.0724
  179SOPE  H12A20364   4.163   1.203   6.468 -0.9815  0.8512 -1.0160
  179SOPE  H12B20365   4.110   1.135   6.308  0.9565 -2.0562 -0.4796
  179SOPE   C1120366   4.302   1.229   6.311  0.0485 -0.0601  0.3435
  179SOPE  H11A20367   4.260   1.330   6.293  0.4837  0.1284  0.3536
  179SOPE  H11B20368   4.316   1.176   6.214 -2.2550  1.3993 -0.8813
  179SOPE     P20369   4.477   1.372   6.443 -0.0839  0.1149 -0.3043
  179SOPE   O1320370   4.524   1.467   6.342 -0.3390  0.5001 -0.2724
  179SOPE   O1420371   4.567   1.344   6.558  0.5724  0.2421  0.6700
  179SOPE   O1220372   4.425   1.233   6.384 -0.2924 -0.3248  0.1285
  179SOPE   O1120373   4.338   1.448   6.497  0.4147 -0.4703  0.3165
  179SOPE    C120374   4.298   1.416   6.629  0.7838  0.3059 -0.0395
  179SOPE    HA20375   4.328   1.312   6.655  1.3286  0.7534  1.2351
  179SOPE    HB20376   4.188   1.429   6.639  0.7647 -0.0169  0.1753
  179SOPE    C220377   4.369   1.510   6.726  0.4978  0.5143 -0.8735
  179SOPE    HS20378   4.479   1.497   6.721  0.4386 -0.7937  0.3645
  179SOPE   O2120379   4.312   1.472   6.852 -0.2231  0.3622  0.1610
  179SOPE   C2120380   4.393   1.443   6.952  0.0549 -0.0589  0.2888
  179SOPE   O2220381   4.513   1.451   6.944 -0.1018  0.5418 -0.0754
  179SOPE   C2220382   4.307   1.407   7.075  0.2363  0.3026  0.3506
  179SOPE   H2R20383   4.256   1.315   7.040  1.5118 -1.5122  2.8915
  179SOPE   H2S20384   4.222   1.478   7.080  0.0726  0.2623 -1.4144
  179SOPE    C320385   4.330   1.652   6.699 -0.4906  0.0040 -0.1526
  179SOPE    HX20386   4.219   1.661   6.696 -0.5204 -0.5984 -1.7526
  179SOPE    HY20387   4.364   1.671   6.595 -1.5113  1.0257 -0.3159
  179SOPE   O3120388   4.402   1.745   6.782  0.4810 -0.2763  0.2847
  179SOPE   C3120389   4.341   1.790   6.888  0.2469  0.0126  0.2169
  179SOPE   O3220390   4.226   1.757   6.919  0.4202 -0.2870 -0.0048
  179SOPE   C3220391   4.435   1.875   6.975 -0.3207  0.4129 -0.1502
  179SOPE   H2X20392   4.458   1.962   6.910  1.3306  0.4960  0.4937
  179SOPE   H2Y20393   4.526   1.818   7.004 -0.9020 -0.5719 -0.2058
  179SOPE   C2320394   4.366   1.386   7.212 -0.2008 -0.2678 -0.1659
  179SOPE   H3R20395   4.433   1.472   7.233 -0.1385 -0.5795  0.9861
  179SOPE   H3S20396   4.435   1.300   7.214  0.2252  0.0789  0.2810
  179SOPE   C2420397   4.270   1.372   7.330 -0.3089  0.2854  0.1327
  179SOPE   H4R20398   4.189   1.446   7.311 -0.0966  0.5627  0.2994
  179SOPE   H4S20399   4.228   1.270   7.341  2.1848 -0.7429  0.6771
  179SOPE   C2520400   4.347   1.412   7.449 -0.6773  0.2218  0.0283
  179SOPE   H5R20401   4.442   1.355   7.455 -1.9488 -1.7937  3.6157
  179SOPE   H5S20402   4.379   1.519   7.449 -0.3972  0.1655  2.0868
  179SOPE   C2620403   4.272   1.383   7.581 -0.1511 -0.7866 -0.0511
  179SOPE   H6R20404   4.174   1.432   7.596 -0.9046 -1.7449 -1.6644
  179SOPE   H6S20405   4.236   1.278   7.578 -0.5900 -0.6387 -2.8764
  179SOPE   C2720406   4.360   1.420   7.716  0.4019  0.0213  0.1697
  179SOPE   H7R20407   4.468   1.398   7.700  0.9585  1.1581  2.0427
  179SOPE   H7S20408   4.345   1.530   7.720  0.4380  0.3299 -3.7875
  179SOPE   C2820409   4.311   1.347   7.840  0.2797  0.6526 -0.0812
  179SOPE   H8R20410   4.308   1.238   7.822  2.3034  0.3495  1.1003
  179SOPE   H8S20411   4.393   1.353   7.915 -0.2433  0.6001  0.5062
  179SOPE   C2920412   4.182   1.408   7.889 -0.3445 -0.3054  0.2853
  179SOPE   H9120413   4.099   1.389   7.818  0.4083 -1.5189 -0.3034
  179SOPE  C21020414   4.160   1.471   8.001 -0.4000 -0.1631 -0.2848
  179SOPE  H10120415   4.060   1.507   8.029 -0.8196 -1.4257 -0.0820
  179SOPE  C21120416   4.254   1.488   8.115 -0.2235  0.1894  0.0250
  179SOPE  H11R20417   4.254   1.593   8.150 -2.4121  0.1788  0.1676
  179SOPE  H11S20418   4.358   1.457   8.089 -0.3135  0.3045 -0.4877
  179SOPE  C21220419   4.197   1.416   8.237 -0.0467  0.2296 -0.5501
  179SOPE  H12R20420   4.273   1.397   8.316  0.4261  2.4676 -0.4011
  179SOPE  H12S20421   4.152   1.319   8.209 -1.5741  0.2139  1.6698
  179SOPE  C21320422   4.084   1.501   8.304 -1.0514 -0.4290  0.4355
  179SOPE  H13R20423   3.998   1.507   8.234 -0.4894  1.6533 -0.1401
  179SOPE  H13S20424   4.118   1.606   8.312  0.8196 -1.0301  0.8819
  179SOPE  C21420425   4.043   1.440   8.442  0.2543 -0.4644  0.3983
  179SOPE  H14R20426   4.037   1.330   8.435 -0.9491 -0.4681  1.1882
  179SOPE  H14S20427   3.945   1.488   8.464  0.9918  1.4126 -0.1947
  179SOPE  C21520428   4.148   1.480   8.548  0.4248 -0.0508  0.3539
  179SOPE  H15R20429   4.138   1.589   8.569 -0.6886  0.2018 -1.3240
  179SOPE  H15S20430   4.249   1.455   8.509  0.1448  0.3478 -0.6495
  179SOPE  C21620431   4.132   1.404   8.683  0.3738 -0.0828 -0.5415
  179SOPE  H16R20432   4.238   1.399   8.716 -0.5446  1.4941  3.1912
  179SOPE  H16S20433   4.096   1.300   8.666  0.1577  0.0192 -0.7106
  179SOPE  C21720434   4.049   1.485   8.785  0.1585  0.1361  0.1976
  179SOPE  H17R20435   3.956   1.506   8.728  0.2719 -2.1553 -0.9819
  179SOPE  H17S20436   4.095   1.582   8.812  0.1053  0.0786  0.5010
  179SOPE  C21820437   4.010   1.412   8.915 -0.2018  0.4097  0.3466
  179SOPE  H18R20438   3.967   1.493   8.979  1.3913  1.3283  0.3062
  179SOPE  H18S20439   4.098   1.363   8.962 -0.9974 -0.9029  0.5071
  179SOPE  H18T20440   3.934   1.340   8.879 -0.7681  1.5259 -0.7865
  179SOPE   C3320441   4.365   1.941   7.099 -0.3595  0.3013  0.0897
  179SOPE   H3X20442   4.262   1.974   7.074 -0.7774 -0.9913  0.0133
  179SOPE   H3Y20443   4.418   2.037   7.116  2.8841 -1.1430 -1.0799
  179SOPE   C3420444   4.353   1.851   7.219 -0.5393  0.4564  0.2000
  179SOPE   H4X20445   4.446   1.854   7.279  1.0627 -5.3728 -1.2827
  179SOPE   H4Y20446   4.332   1.749   7.178  0.6963  0.5263 -0.6373
  179SOPE   C3520447   4.230   1.886   7.312 -0.5131 -0.1622 -0.1769
  179SOPE   H5X20448   4.145   1.831   7.267  0.2978 -0.2273 -1.7171
  179SOPE   H5Y20449   4.220   1.997   7.318 -1.4151 -0.2225 -0.4544
  179SOPE   C3620450   4.254   1.838   7.453  0.4129 -0.2563  0.2441
  179SOPE   H6X20451   4.345   1.884   7.497 -0.0063 -0.9377  1.9174
  179SOPE   H6Y20452   4.271   1.729   7.443  2.6616  0.0716  0.1036
  179SOPE   C3720453   4.144   1.860   7.557  0.0127 -0.2694  0.3136
  179SOPE   H7X20454   4.051   1.833   7.501  0.5929  0.8292 -1.2624
  179SOPE   H7Y20455   4.133   1.965   7.592  0.4759 -0.1451  0.1006
  179SOPE   C3820456   4.154   1.767   7.684  0.3715 -0.1453 -0.4601
  179SOPE   H8X20457   4.157   1.663   7.645  1.9242 -0.5523  0.6573
  179SOPE   H8Y20458   4.063   1.785   7.745  0.8533  1.2187 -0.1262
  179SOPE   C3920459   4.286   1.793   7.760 -0.9934 -0.3500 -0.0231
  179SOPE   H9X20460   4.362   1.786   7.679 -2.7400  0.5537 -1.8572
  179SOPE   H9Y20461   4.302   1.709   7.830  0.4033 -0.2791 -0.2290
  179SOPE  C31020462   4.292   1.922   7.848  0.2336  0.4253  0.7179
  179SOPE  H10X20463   4.281   2.012   7.785 -1.1894 -0.1602  0.0916
  179SOPE  H10Y20464   4.392   1.918   7.897  0.6464 -0.2445 -0.1640
  179SOPE  C31120465   4.190   1.946   7.964 -0.2832  0.3449 -0.3535
  179SOPE  H11X20466   4.167   1.845   8.007 -3.5513  0.6377 -1.1204
  179SOPE  H11Y20467   4.086   1.972   7.934 -1.0311 -2.6045 -0.6698
  179SOPE  C31220468   4.241   2.041   8.076  0.0252  0.0325 -0.1272
  179SOPE  H12X20469   4.235   2.145   8.036  0.7143  0.7411  1.5203
  179SOPE  H12Y20470   4.348   2.013   8.088 -0.0659 -1.0974 -1.6663
  179SOPE  C31320471   4.157   2.059   8.204  0.7618 -0.0409  0.1056
  179SOPE  H13X20472   4.069   2.111   8.161  0.3665 -0.3365  0.5583
  179SOPE  H13Y20473   4.213   2.125   8.273  0.6204  2.3036 -1.8783
  179SOPE  C31420474   4.106   1.926   8.274  0.1796  0.4176  0.3175
  179SOPE  H14X20475   4.202   1.888   8.313 -1.4492 -2.3602  1.9089
  179SOPE  H14Y20476   4.060   1.866   8.193 -0.2982  1.2969 -0.0820
  179SOPE  C31520477   4.000   1.950   8.376 -0.8531 -0.7664 -1.1643
  179SOPE  H15X20478   3.929   2.004   8.310 -0.7123 -1.8502 -2.2393
  179SOPE  H15Y20479   4.034   2.011   8.462 -2.1477  0.1110 -1.2616
  179SOPE  C31620480   3.936   1.820   8.426 -0.0704 -0.2011 -0.3466
  179SOPE  H16X20481   4.014   1.773   8.489  0.8679  0.6122 -0.8736
  179SOPE  H16Y20482   3.914   1.750   8.342 -3.5368  0.6212 -0.3099
  179SOPE  C31720483   3.799   1.839   8.489 -0.9002 -0.2078  0.0242
  179SOPE  H17X20484   3.735   1.869   8.403 -0.3653  3.5068  0.7478
  179SOPE  H17Y20485   3.791   1.928   8.555 -0.5514  1.1332 -1.6676
  179SOPE  C31820486   3.735   1.715   8.547  0.1793  0.4804 -0.0714
  179SOPE  H18X20487   3.799   1.672   8.627  1.8807 -0.6074 -1.9244
  179SOPE  H18Y20488   3.715   1.631   8.477  1.0546  0.2497 -0.0522
  179SOPE  H18Z20489   3.644   1.740   8.606  1.1753 -0.8534  2.1470
  180SOPE     N20490   3.765   0.766   6.045  0.0699  0.4565 -0.3769
  180SOPE   HN120491   3.840   0.696   6.058  0.8200  1.3074  0.0245
  180SOPE   HN220492   3.706   0.725   5.970 -0.4969  0.4098  0.0868
  180SOPE   HN320493   3.801   0.855   6.005 -0.5094  0.5113 -0.7964
  180SOPE   C1220494   3.685   0.789   6.173  0.7855  0.4293  0.2863
  180SOPE  H12A20495   3.622   0.699   6.193  1.6507  0.0536  1.4216
  180SOPE  H12B20496   3.617   0.875   6.159 -0.7012 -0.6304  0.7500
  180SOPE   C1120497   3.784   0.809   6.290  0.4143 -0.3753 -0.1913
  180SOPE  H11A20498   3.724   0.811   6.383 -0.5642  1.0512 -0.8082
  180SOPE  H11B20499   3.822   0.912   6.275  1.4110 -0.4255  1.6649
  180SOPE     P20500   3.994   0.717   6.408  0.0362  0.0371  0.2108
  180SOPE   O1320501   4.007   0.861   6.453  0.3880  0.0924  0.6433
  180SOPE   O1420502   4.117   0.653   6.370 -0.0256  0.3558 -0.5889
  180SOPE   O1220503   3.888   0.714   6.294 -0.1497  0.2462  1.1261
  180SOPE   O1120504   3.927   0.637   6.530  0.2405 -0.2228 -0.1265
  180SOPE    C120505   3.905   0.490   6.507 -0.5675 -0.5166 -0.3788
  180SOPE    HA20506   3.999   0.452   6.464 -0.8613 -2.2250  0.3885
  180SOPE    HB20507   3.826   0.465   6.433  0.1276 -1.8823 -0.6915
  180SOPE    C220508   3.879   0.410   6.635  0.7048 -0.5630 -0.0178
  180SOPE    HS20509   3.793   0.451   6.693  0.7110 -2.5795  1.5426
  180SOPE   O2120510   4.000   0.415   6.714 -0.1774  0.1359  0.0452
  180SOPE   C2120511   3.980   0.393   6.832 -0.1983 -0.5300 -0.6488
  180SOPE   O2220512   3.871   0.395   6.885 -0.0313  0.0712 -0.2481
  180SOPE   C2220513   4.116   0.350   6.893  0.1424  0.3306 -0.1806
  180SOPE   H2R20514   4.186   0.421   6.845  2.9833 -1.9764  0.2695
  180SOPE   H2S20515   4.147   0.251   6.853  1.4493  1.0470 -1.0023
  180SOPE    C320516   3.831   0.266   6.602 -0.7499  0.3414  0.0590
  180SOPE    HX20517   3.914   0.221   6.544  0.8556  2.1986  0.7934
  180SOPE    HY20518   3.740   0.282   6.541 -0.8463  1.3334  0.4333
  180SOPE   O3120519   3.801   0.181   6.721 -0.0189  0.3000  0.1370
  180SOPE   C3120520   3.687   0.203   6.781  0.0546  0.7402 -0.5847
  180SOPE   O3220521   3.600   0.278   6.736  0.1266 -0.2413  0.0007
  180SOPE   C3220522   3.681   0.110   6.905 -0.4137  0.0046 -0.1646
  180SOPE   H2X20523   3.751   0.146   6.983 -1.4752  1.6213  0.0957
  180SOPE   H2Y20524   3.722   0.010   6.876 -0.3920 -0.0423  0.0304
  180SOPE   C2320525   4.138   0.373   7.043  0.0273  0.1222  0.6285
  180SOPE   H3R20526   4.113   0.479   7.067 -1.8727  1.1313 -4.5410
  180SOPE   H3S20527   4.245   0.354   7.068 -0.0686 -1.5002 -0.1115
  180SOPE   C2420528   4.062   0.264   7.123 -0.2023  0.5989 -0.3902
  180SOPE   H4R20529   3.964   0.249   7.073 -0.5200 -0.2850  0.4659
  180SOPE   H4S20530   4.124   0.173   7.114 -0.4984  0.0654  2.0856
  180SOPE   C2520531   4.053   0.304   7.272 -0.7512  0.2607  0.2567
  180SOPE   H5R20532   4.003   0.403   7.270  0.7577  1.0831 -2.9938
  180SOPE   H5S20533   3.980   0.235   7.318 -0.8030 -0.8817 -1.4296
  180SOPE   C2620534   4.183   0.312   7.347  0.5317  0.8627 -0.5466
  180SOPE   H6R20535   4.239   0.216   7.345 -1.8028 -0.6759  1.7443
  180SOPE   H6S20536   4.244   0.396   7.307  1.9431  0.2772  0.3274
  180SOPE   C2720537   4.166   0.342   7.493 -0.7199 -1.1659  0.2508
  180SOPE   H7R20538   4.265   0.370   7.537 -0.1299 -1.1478 -1.0511
  180SOPE   H7S20539   4.112   0.438   7.504  1.3033 -0.1175  1.8810
  180SOPE   C2820540   4.112   0.226   7.571  0.3215  0.1697 -0.4621
  180SOPE   H8R20541   4.059   0.252   7.665 -1.3876 -1.9888 -0.7563
  180SOPE   H8S20542   4.035   0.174   7.510  0.0418  0.7699 -0.6344
  180SOPE   C2920543   4.211   0.125   7.607 -0.0223 -0.0934 -0.6031
  180SOPE   H9120544   4.219   0.033   7.546  0.5790 -1.1134  0.9560
  180SOPE  C21020545   4.302   0.141   7.706 -0.1134  0.2498  0.2172
  180SOPE  H10120546   4.376   0.061   7.721  0.6804  0.9787  0.2959
  180SOPE  C21120547   4.323   0.258   7.794  0.0345 -0.3386  0.1696
  180SOPE  H11R20548   4.324   0.215   7.896 -0.5194 -1.1761 -0.1740
  180SOPE  H11S20549   4.244   0.335   7.781  0.5991 -0.0264 -1.7525
  180SOPE  C21220550   4.461   0.326   7.761  0.1725  0.5323  0.4263
  180SOPE  H12R20551   4.464   0.357   7.654 -2.2273  1.9302  0.7065
  180SOPE  H12S20552   4.552   0.265   7.779  0.2180  0.2389 -0.6970
  180SOPE  C21320553   4.488   0.448   7.844  0.1388 -0.6293 -0.3537
  180SOPE  H13R20554   4.404   0.518   7.863  1.6542  1.2167 -0.0554
  180SOPE  H13S20555   4.560   0.499   7.777  0.0087 -0.8569 -0.6688
  180SOPE  C21420556   4.563   0.422   7.977  0.1592 -0.0837  0.0617
  180SOPE  H14R20557   4.602   0.522   8.003 -1.8274  0.6306  0.4389
  180SOPE  H14S20558   4.640   0.355   7.931  0.4567  0.7561 -0.7006
  180SOPE  C21520559   4.484   0.359   8.095 -0.5444  0.5470 -0.8820
  180SOPE  H15R20560   4.452   0.255   8.072 -0.2874  0.2734 -0.0606
  180SOPE  H15S20561   4.401   0.431   8.113  0.3745  1.4865 -0.2929
  180SOPE  C21620562   4.567   0.354   8.218 -0.2048 -0.2723  0.9583
  180SOPE  H16R20563   4.595   0.460   8.236 -1.6269 -0.0095  1.7423
  180SOPE  H16S20564   4.660   0.298   8.191 -0.4800 -0.0078 -0.6159
  180SOPE  C21720565   4.499   0.297   8.341 -1.0981 -0.3990 -1.2007
  180SOPE  H17R20566   4.503   0.186   8.336  0.2593 -0.3796 -0.8044
  180SOPE  H17S20567   4.392   0.327   8.343 -0.1988  3.1808 -1.0732
  180SOPE  C21820568   4.585   0.344   8.469  1.3208 -0.2390  0.1041
  180SOPE  H18R20569   4.546   0.447   8.484 -0.6710 -0.4143 -3.0687
  180SOPE  H18S20570   4.695   0.348   8.449  1.0845  0.1983 -1.2413
  180SOPE  H18T20571   4.562   0.280   8.556  1.6217  0.7293  0.9153
  180SOPE   C3320572   3.537   0.096   6.952  0.2661  0.6859  0.5004
  180SOPE   H3X20573   3.469   0.047   6.879 -1.3052  2.2407  0.8754
  180SOPE   H3Y20574   3.485   0.193   6.969 -1.1437 -0.0677  0.6237
  180SOPE   C3420575   3.530   0.011   7.081  0.1234  0.4057 -0.1276
  180SOPE   H4X20576   3.578  -0.089   7.066 -0.8289 -0.1396  0.3374
  180SOPE   H4Y20577   3.426  -0.021   7.101  1.1408 -2.5914  0.9358
  180SOPE   C3520578   3.582   0.079   7.207  0.0093  0.0643  0.1095
  180SOPE   H5X20579   3.525   0.173   7.213 -0.9801 -0.5679  1.0044
  180SOPE   H5Y20580   3.691   0.103   7.198 -0.0562 -0.2525 -2.0428
  180SOPE   C3620581   3.556  -0.004   7.330 -0.6452  0.1320 -0.5068
  180SOPE   H6X20582   3.587  -0.110   7.318 -0.9612 -0.1767  1.1811
  180SOPE   H6Y20583   3.449  -0.003   7.361  0.1278 -2.9556  3.0519
  180SOPE   C3720584   3.646   0.047   7.446  0.3967 -0.8574 -0.1104
  180SOPE   H7X20585   3.611   0.146   7.482 -0.3174 -2.2953  3.6265
  180SOPE   H7Y20586   3.744   0.052   7.394  0.7024 -5.2101 -0.3475
  180SOPE   C3820587   3.662  -0.047   7.569 -0.0661 -0.4671 -0.2955
  180SOPE   H8X20588   3.650  -0.150   7.529 -1.2860 -1.1218  1.6372
  180SOPE   H8Y20589   3.578  -0.035   7.640 -0.4269 -0.9351 -0.6312
  180SOPE   C3920590   3.797  -0.040   7.633 -0.3835  0.3515  0.0685
  180SOPE   H9X20591   3.837   0.058   7.667  0.0033  0.5117 -0.8375
  180SOPE   H9Y20592   3.875  -0.082   7.566 -1.2181 -2.4742  0.7022
  180SOPE  C31020593   3.800  -0.157   7.737  0.1444  0.1621 -0.6198
  180SOPE  H10X20594   3.744  -0.246   7.701 -0.3458  0.5014 -0.7128
  180SOPE  H10Y20595   3.749  -0.117   7.827 -0.3606  2.0610 -1.7065
  180SOPE  C31120596   3.951  -0.190   7.764 -0.2358 -0.2200 -0.1154
  180SOPE  H11X20597   3.991  -0.100   7.814 -0.2395 -0.2222 -0.1090
  180SOPE  H11Y20598   4.002  -0.222   7.670 -2.2732 -0.2665 -1.2670
  180SOPE  C31220599   3.978  -0.300   7.870  0.3427  0.8828  0.8885
  180SOPE  H12X20600   3.920  -0.285   7.964 -0.4276 -0.3893  0.6378
  180SOPE  H12Y20601   4.089  -0.298   7.876  0.4533 -1.3032  0.4439
  180SOPE  C31320602   3.927  -0.442   7.827  0.5629 -0.2444  0.6222
  180SOPE  H13X20603   3.944  -0.469   7.720  0.6535  0.1164  0.5452
  180SOPE  H13Y20604   3.818  -0.456   7.843  0.0793  0.1526 -1.9168
  180SOPE  C31420605   3.988  -0.563   7.907 -0.6433  0.4850 -0.9461
  180SOPE  H14X20606   4.089  -0.584   7.866 -0.2397  0.5547 -0.0060
  180SOPE  H14Y20607   3.928  -0.656   7.898 -1.4093  0.9184 -0.3829
  180SOPE  C31520608   4.001  -0.538   8.062  0.0772  0.0833  0.0160
  180SOPE  H15X20609   3.901  -0.507   8.098 -0.4695  0.2377 -1.5328
  180SOPE  H15Y20610   4.065  -0.448   8.068  0.5365 -0.1485 -1.1392
  180SOPE  C31620611   4.059  -0.670   8.125 -0.6200 -0.1906  1.8218
  180SOPE  H16X20612   4.165  -0.665   8.094 -1.5111  1.2544 -1.5054
  180SOPE  H16Y20613   4.010  -0.757   8.075  0.3062 -0.2321  0.9569
  180SOPE  C31720614   4.039  -0.686   8.280 -0.2275 -0.4082 -0.0050
  180SOPE  H17X20615   4.045  -0.586   8.329  0.6605 -1.4614  2.1351
  180SOPE  H17Y20616   4.120  -0.745   8.328  0.1285  0.8580  1.0000
  180SOPE  C31820617   3.905  -0.757   8.319 -0.5065 -0.4439 -0.5629
  180SOPE  H18X20618   3.817  -0.697   8.287 -0.7373 -0.2082  0.4537
  180SOPE  H18Y20619   3.887  -0.762   8.429 -2.1328 -0.7548 -0.8232
  180SOPE  H18Z20620   3.890  -0.857   8.274 -1.3734 -0.5630 -0.0449
  181SOPE     N20621   4.325   4.190   5.671 -0.0333  0.1579  0.3122
  181SOPE   HN120622   4.296   4.146   5.760 -1.7111  0.1978 -0.1947
  181SOPE   HN220623   4.241   4.229   5.625  0.1190  1.1820  0.8669
  181SOPE   HN320624   4.357   4.119   5.601 -3.6768  0.3430 -1.7914
  181SOPE   C1220625   4.437   4.283   5.713 -0.1857 -0.9257 -0.6478
  181SOPE  H12A20626   4.461   4.350   5.628  0.8181 -2.7131 -1.8491
  181SOPE  H12B20627   4.524   4.219   5.741  1.3507  2.1973  2.4820
  181SOPE   C1120628   4.398   4.357   5.846 -1.1507  0.2235  0.0979
  181SOPE  H11A20629   4.489   4.413   5.875 -0.0791 -1.7778  0.8377
  181SOPE  H11B20630   4.384   4.278   5.923 -0.7787  1.4343  1.4510
  181SOPE     P20631   4.218   4.504   5.952 -0.2991  0.5610 -0.0561
  181SOPE   O1320632   4.153   4.399   6.035 -0.6280  0.4545  0.2052
  181SOPE   O1420633   4.119   4.604   5.901 -0.2587 -1.4292 -0.5214
  181SOPE   O1220634   4.290   4.443   5.831  0.1369  0.4356  0.0764
  181SOPE   O1120635   4.350   4.562   6.021 -0.2397 -0.1591 -0.0535
  181SOPE    C120636   4.399   4.528   6.148  0.5342  0.4698 -0.2784
  181SOPE    HA20637   4.361   4.430   6.185  1.8460  0.4358  1.0516
  181SOPE    HB20638   4.368   4.599   6.228  1.2145 -2.0513  2.3957
  181SOPE    C220639   4.557   4.528   6.153  0.3369  0.2147  0.0582
  181SOPE    HS20640   4.586   4.475   6.059 -0.0142 -0.3191  0.2458
  181SOPE   O2120641   4.600   4.456   6.270 -0.0181 -0.2317  0.1378
  181SOPE   C2120642   4.592   4.320   6.264  0.1255 -0.1648  0.2079
  181SOPE   O2220643   4.565   4.257   6.164  0.4680 -0.4205 -0.0135
  181SOPE   C2220644   4.617   4.265   6.397  0.1892 -0.1237 -0.3006
  181SOPE   H2R20645   4.701   4.325   6.437 -1.3300  2.2755 -0.5145
  181SOPE   H2S20646   4.638   4.157   6.382 -1.2115 -0.4282 -0.2399
  181SOPE    C320647   4.622   4.668   6.142  0.7294 -0.1879 -0.2929
  181SOPE    HX20648   4.583   4.720   6.052  1.5055  0.4808 -0.2557
  181SOPE    HY20649   4.733   4.662   6.136  1.0135 -1.0897  3.3118
  181SOPE   O3120650   4.582   4.751   6.255 -0.4546 -0.3397 -0.3919
  181SOPE   C3120651   4.657   4.861   6.269  0.3224  0.6809  0.0842
  181SOPE   O3220652   4.748   4.892   6.198 -0.0209  0.1083 -0.0432
  181SOPE   C3220653   4.618   4.932   6.402  0.5931  0.1706  0.2104
  181SOPE   H2X20654   4.509   4.949   6.383  0.1510 -3.2280 -0.9717
  181SOPE   H2Y20655   4.657   5.035   6.413 -0.9283  1.0382 -1.7499
  181SOPE   C2320656   4.488   4.281   6.477 -0.0282  0.1249 -0.2944
  181SOPE   H3R20657   4.509   4.214   6.563 -0.0942  0.2389 -0.1875
  181SOPE   H3S20658   4.397   4.235   6.434 -1.2517  0.5655  1.6913
  181SOPE   C2420659   4.462   4.423   6.524 -0.0404  0.2550 -0.1862
  181SOPE   H4R20660   4.566   4.463   6.533  0.8279 -1.4851 -1.7449
  181SOPE   H4S20661   4.418   4.470   6.433  1.3045  0.9523 -0.5005
  181SOPE   C2520662   4.384   4.428   6.652  0.0977 -0.5250  0.2613
  181SOPE   H5R20663   4.304   4.353   6.640  1.8710 -2.2902 -1.3550
  181SOPE   H5S20664   4.449   4.390   6.734 -2.3068 -1.8581  1.6435
  181SOPE   C2620665   4.317   4.562   6.662  0.4019  0.1937  0.1344
  181SOPE   H6R20666   4.391   4.645   6.672 -0.1172  0.7168 -0.3308
  181SOPE   H6S20667   4.266   4.571   6.564  0.2069 -0.0250  0.2155
  181SOPE   C2720668   4.213   4.570   6.783  0.5554  0.0195 -0.1172
  181SOPE   H7R20669   4.169   4.673   6.786  0.0349 -0.0306 -3.1128
  181SOPE   H7S20670   4.135   4.503   6.742  1.6678  0.7645 -3.7637
  181SOPE   C2820671   4.266   4.537   6.917  0.5115  0.1710 -0.6851
  181SOPE   H8R20672   4.189   4.509   6.992  0.1217  0.2178 -1.0596
  181SOPE   H8S20673   4.328   4.445   6.922  1.2793  0.7224  0.0664
  181SOPE   C2920674   4.348   4.651   6.967  0.3550 -0.5714  0.3517
  181SOPE   H9120675   4.409   4.706   6.894  0.8406  0.5759  1.5903
  181SOPE  C21020676   4.346   4.719   7.087  0.0113  0.3381 -0.9280
  181SOPE  H10120677   4.424   4.794   7.103  1.1582 -1.3243  2.1571
  181SOPE  C21120678   4.255   4.677   7.206  0.3739  0.6181  0.4823
  181SOPE  H11R20679   4.192   4.589   7.183  2.0397 -0.0249 -1.9541
  181SOPE  H11S20680   4.183   4.762   7.210  1.8989  1.9780  0.5045
  181SOPE  C21220681   4.329   4.652   7.325 -0.3868  0.2421  0.0945
  181SOPE  H12R20682   4.418   4.585   7.315 -0.3761  0.2500  0.1376
  181SOPE  H12S20683   4.251   4.616   7.396 -1.7913 -1.0483 -1.9896
  181SOPE  C21320684   4.384   4.776   7.389 -0.3978 -0.0294 -1.3081
  181SOPE  H13R20685   4.307   4.845   7.430  1.0434  1.0061 -0.2084
  181SOPE  H13S20686   4.448   4.827   7.314  1.0323  0.9288  0.4725
  181SOPE  C21420687   4.484   4.740   7.501 -0.4521  0.6138  0.2036
  181SOPE  H14R20688   4.559   4.819   7.521 -0.7976  0.7873  0.8426
  181SOPE  H14S20689   4.533   4.645   7.470 -0.3685  1.0100 -0.9294
  181SOPE  C21520690   4.429   4.698   7.636 -0.0744 -0.4334 -0.3225
  181SOPE  H15R20691   4.515   4.694   7.707 -1.4995  2.4490  1.7779
  181SOPE  H15S20692   4.381   4.598   7.640  0.4378 -0.6517  1.0391
  181SOPE  C21620693   4.329   4.805   7.689  0.0063 -0.6898 -0.4164
  181SOPE  H16R20694   4.283   4.766   7.782  2.1724  0.5832  1.2904
  181SOPE  H16S20695   4.253   4.825   7.611  1.9445 -1.1134 -2.5157
  181SOPE  C21720696   4.400   4.933   7.745  0.4710 -1.2140  0.5627
  181SOPE  H17R20697   4.333   5.020   7.760  1.5667 -0.3570  0.6652
  181SOPE  H17S20698   4.485   4.955   7.677 -0.6949  0.2047 -0.4949
  181SOPE  C21820699   4.463   4.899   7.879  0.9655 -0.1966  0.0527
  181SOPE  H18R20700   4.384   4.881   7.955  1.8163  0.3360  1.0953
  181SOPE  H18S20701   4.529   4.981   7.914  0.5913  0.7164 -1.3051
  181SOPE  H18T20702   4.508   4.797   7.875 -0.9863 -1.0641 -1.3902
  181SOPE   C3320703   4.640   4.856   6.530 -0.2300 -0.2596  0.9893
  181SOPE   H3X20704   4.734   4.798   6.535 -0.0091  0.2041  3.2533
  181SOPE   H3Y20705   4.557   4.782   6.539 -0.9444  0.4594  0.5076
  181SOPE   C3420706   4.646   4.955   6.647 -0.5437 -0.3354  0.0566
  181SOPE   H4X20707   4.549   5.010   6.639  0.6084  1.5347 -2.0895
  181SOPE   H4Y20708   4.728   5.028   6.630 -2.3157  2.3417  2.1600
  181SOPE   C3520709   4.677   4.888   6.783  0.3869  0.3889  0.3364
  181SOPE   H5X20710   4.774   4.835   6.773  0.6845  1.0961 -0.6392
  181SOPE   H5Y20711   4.584   4.827   6.793  0.2409  0.6145  0.3539
  181SOPE   C3620712   4.678   4.983   6.904 -0.3807 -0.6168  0.1729
  181SOPE   H6X20713   4.588   5.047   6.919  0.3115 -0.1184  2.5488
  181SOPE   H6Y20714   4.768   5.046   6.891  1.0794 -2.2715  1.7547
  181SOPE   C3720715   4.694   4.902   7.027  0.3073 -0.5035  0.1868
  181SOPE   H7X20716   4.795   4.858   7.009  0.4999 -0.2228  0.5495
  181SOPE   H7Y20717   4.612   4.832   7.051  0.9721 -1.1166  0.7188
  181SOPE   C3820718   4.714   4.988   7.155  0.4473  0.3540  0.6943
  181SOPE   H8X20719   4.624   5.045   7.184  0.4924  0.5577  0.4425
  181SOPE   H8Y20720   4.793   5.061   7.125  1.4650 -0.6239  0.8956
  181SOPE   C3920721   4.757   4.907   7.276 -0.0641  0.2627 -0.0803
  181SOPE   H9X20722   4.852   4.855   7.252  0.0050  0.0683  0.5836
  181SOPE   H9Y20723   4.683   4.837   7.320  0.7719  0.7005  2.1963
  181SOPE  C31020724   4.790   5.008   7.390 -0.4376 -0.1513 -0.6175
  181SOPE  H10X20725   4.700   5.067   7.416  0.4398 -0.0649  2.6450
  181SOPE  H10Y20726   4.863   5.086   7.361 -1.5042  1.1836  0.1918
  181SOPE  C31120727   4.851   4.937   7.516 -0.0168  0.4737 -0.3490
  181SOPE  H11X20728   4.952   4.900   7.486 -1.2755 -2.8428 -0.9690
  181SOPE  H11Y20729   4.788   4.848   7.537  2.3368 -1.1975 -0.0340
  181SOPE  C31220730   4.857   5.032   7.638 -0.2493  0.0589  0.3154
  181SOPE  H12X20731   4.765   5.091   7.658  0.2912  0.7539  0.8026
  181SOPE  H12Y20732   4.938   5.103   7.610  0.1049 -0.6897 -0.6000
  181SOPE  C31320733   4.910   4.963   7.762  0.3331 -0.6753  0.2515
  181SOPE  H13X20734   5.010   4.928   7.727  1.0799 -0.5065  2.1150
  181SOPE  H13Y20735   4.842   4.881   7.794 -2.0369  0.5535 -1.3303
  181SOPE  C31420736   4.944   5.048   7.884 -0.1935  0.4363 -0.8740
  181SOPE  H14X20737   4.993   5.144   7.860  0.1170  0.5979  0.3389
  181SOPE  H14Y20738   5.023   5.002   7.948 -1.2740 -0.1841  0.0689
  181SOPE  C31520739   4.832   5.081   7.985 -0.0521 -0.5753  0.1693
  181SOPE  H15X20740   4.757   5.131   7.920  0.7362  0.8510  0.3012
  181SOPE  H15Y20741   4.865   5.161   8.055 -0.3241 -1.4755  1.3530
  181SOPE  C31620742   4.784   4.964   8.079  0.0527 -0.0605  0.5180
  181SOPE  H16X20743   4.860   4.902   8.132 -0.3011 -0.8885  0.0731
  181SOPE  H16Y20744   4.737   4.898   8.004  0.7910  0.0929 -0.0898
  181SOPE  C31720745   4.671   5.014   8.170  0.3455 -0.4773 -0.4808
  181SOPE  H17X20746   4.602   5.085   8.119  1.6074 -0.8507 -2.8620
  181SOPE  H17Y20747   4.710   5.070   8.257  0.4329  0.3807 -1.0512
  181SOPE  C31820748   4.585   4.896   8.217 -0.2016 -0.0126 -0.0109
  181SOPE  H18X20749   4.518   4.866   8.133  0.1239  1.5311 -0.8524
  181SOPE  H18Y20750   4.522   4.918   8.305  1.2745 -0.4233  1.1909
  181SOPE  H18Z20751   4.649   4.805   8.225 -1.8791 -1.3331 -0.8539
  182SOPE     N20752   4.573   1.037   5.939 -0.1136 -0.5523 -0.5781
  182SOPE   HN120753   4.564   1.075   6.035 -0.7363 -1.1647 -0.3924
  182SOPE   HN220754   4.604   1.110   5.872  1.6317 -0.0112  0.7299
  182SOPE   HN320755   4.483   1.003   5.902  0.7386 -1.9009 -1.5004
  182SOPE   C1220756   4.677   0.931   5.951  0.1861  0.4761  0.3243
  182SOPE  H12A20757   4.770   0.975   5.994  1.7891 -2.2148 -0.0918
  182SOPE  H12B20758   4.705   0.906   5.847  0.2820  1.3665  0.1307
  182SOPE   C1120759   4.616   0.806   6.014 -0.2868 -0.3359 -0.3864
  182SOPE  H11A20760   4.693   0.726   6.007 -0.3726 -0.4373 -0.1751
  182SOPE  H11B20761   4.534   0.781   5.945 -0.1109 -0.1896 -0.6498
  182SOPE     P20762   4.433   0.774   6.210  0.0391  0.0575 -0.1216
  182SOPE   O1320763   4.374   0.663   6.129  0.4207 -0.2236 -0.5245
  182SOPE   O1420764   4.355   0.900   6.218 -0.2119 -0.0079 -0.7502
  182SOPE   O1220765   4.571   0.830   6.145 -0.1589 -0.1764 -0.0596
  182SOPE   O1120766   4.468   0.717   6.351 -0.3671 -0.0486 -0.0659
  182SOPE    C120767   4.597   0.693   6.400 -0.5227 -0.2807 -0.0389
  182SOPE    HA20768   4.675   0.726   6.328 -1.1101  2.0279  0.3111
  182SOPE    HB20769   4.608   0.588   6.434  0.7740 -0.9801 -2.3869
  182SOPE    C220770   4.623   0.793   6.520 -0.2524 -0.2710 -0.5762
  182SOPE    HS20771   4.722   0.770   6.566 -0.5203  0.0221  0.1574
  182SOPE   O2120772   4.532   0.779   6.626 -0.4313  0.0056 -0.1120
  182SOPE   C2120773   4.525   0.659   6.694 -0.5340 -0.6525  0.1928
  182SOPE   O2220774   4.613   0.576   6.693  0.7444 -0.1245  0.0423
  182SOPE   C2220775   4.401   0.654   6.774  0.0334 -0.1790 -0.2497
  182SOPE   H2R20776   4.330   0.592   6.715  0.4640 -0.7769 -0.1573
  182SOPE   H2S20777   4.360   0.756   6.784 -0.0031 -0.1681 -0.5164
  182SOPE    C320778   4.629   0.941   6.475 -0.3814 -0.7662 -0.2285
  182SOPE    HX20779   4.533   0.968   6.426 -0.8455 -1.7644  0.1056
  182SOPE    HY20780   4.702   0.953   6.392 -0.6536 -1.5867 -0.5981
  182SOPE   O3120781   4.659   1.038   6.584  0.1081 -0.2071 -0.7335
  182SOPE   C3120782   4.562   1.072   6.667  0.2886 -0.3305 -0.0222
  182SOPE   O3220783   4.443   1.050   6.651  0.1664  0.1613 -0.0921
  182SOPE   C3220784   4.619   1.150   6.783 -0.3452 -0.0010  0.1587
  182SOPE   H2X20785   4.546   1.224   6.820  1.3337  1.8418 -0.0556
  182SOPE   H2Y20786   4.712   1.187   6.734 -0.1805 -1.8741 -1.0568
  182SOPE   C2320787   4.422   0.590   6.914  0.6432  0.2356 -0.4984
  182SOPE   H3R20788   4.470   0.490   6.905  3.2955  1.3309  0.4533
  182SOPE   H3S20789   4.320   0.573   6.955 -0.0941  0.5989 -2.1049
  182SOPE   C2420790   4.505   0.671   7.017  0.3804 -0.3362 -0.7622
  182SOPE   H4R20791   4.607   0.690   6.976 -0.7514  0.1547 -3.5425
  182SOPE   H4S20792   4.462   0.772   7.034  1.2107  0.0355 -0.7793
  182SOPE   C2520793   4.504   0.605   7.159 -0.0368 -1.0772 -0.4452
  182SOPE   H5R20794   4.402   0.591   7.200  0.2697 -2.0110  0.0219
  182SOPE   H5S20795   4.542   0.502   7.147 -1.7636 -1.9989  1.5176
  182SOPE   C2620796   4.599   0.673   7.261 -0.6723 -0.4968 -0.7528
  182SOPE   H6R20797   4.694   0.693   7.206 -0.5031 -0.2539 -0.3720
  182SOPE   H6S20798   4.548   0.772   7.271 -1.7493 -1.2289  1.4842
  182SOPE   C2720799   4.615   0.597   7.392 -0.2258 -0.0198  0.1152
  182SOPE   H7R20800   4.509   0.580   7.423  0.1119  1.4923  2.3521
  182SOPE   H7S20801   4.668   0.501   7.378  0.9516  0.3665  1.6462
  182SOPE   C2820802   4.672   0.678   7.506 -0.8033 -0.0695 -0.0571
  182SOPE   H8R20803   4.646   0.786   7.519 -0.6284 -0.2879  2.7754
  182SOPE   H8S20804   4.627   0.635   7.598 -1.3525  1.0692  0.2352
  182SOPE   C2920805   4.824   0.664   7.503  0.6026 -1.1912  0.7220
  182SOPE   H9120806   4.871   0.657   7.404  1.0514  2.6836  0.5122
  182SOPE  C21020807   4.901   0.661   7.614 -0.5769  0.2571 -0.0941
  182SOPE  H10120808   5.006   0.636   7.590 -0.6331 -0.1320  0.0628
  182SOPE  C21120809   4.858   0.674   7.763  0.0111  0.5419  0.4338
  182SOPE  H11R20810   4.768   0.616   7.791  1.2813 -1.1268  1.2569
  182SOPE  H11S20811   4.839   0.780   7.791 -1.2593  0.1913  0.9709
  182SOPE  C21220812   4.957   0.614   7.863 -0.3464  0.2992  0.3754
  182SOPE  H12R20813   5.057   0.651   7.834 -0.1899 -0.2205  0.2416
  182SOPE  H12S20814   4.966   0.504   7.847 -3.1428 -0.0081  0.4554
  182SOPE  C21320815   4.913   0.632   8.009  0.2931 -0.0917  0.0682
  182SOPE  H13R20816   4.806   0.605   8.023  0.1965  0.4835  0.4442
  182SOPE  H13S20817   4.921   0.741   8.026 -3.3098  0.6082 -1.7034
  182SOPE  C21420818   5.007   0.555   8.099 -0.5875  0.4275  1.2294
  182SOPE  H14R20819   4.991   0.591   8.202  3.2859  0.2016  2.0769
  182SOPE  H14S20820   5.114   0.570   8.073 -0.8995  2.0107  0.7520
  182SOPE  C21520821   4.981   0.397   8.106 -0.1305  0.0736  0.3846
  182SOPE  H15R20822   4.981   0.371   7.998 -0.1192  3.8702 -0.6894
  182SOPE  H15S20823   4.877   0.388   8.144  0.1225 -0.1198  1.0461
  182SOPE  C21620824   5.076   0.321   8.201 -1.0492 -0.0159 -0.1914
  182SOPE  H16R20825   5.049   0.354   8.304  1.6419  3.5264 -0.4386
  182SOPE  H16S20826   5.182   0.354   8.188  0.2656 -2.5988  2.5840
  182SOPE  C21720827   5.072   0.169   8.185 -0.2336  0.1216 -0.7269
  182SOPE  H17R20828   4.968   0.133   8.201 -0.0643 -0.8329 -1.6656
  182SOPE  H17S20829   5.134   0.140   8.273 -0.1682  0.6390 -0.6016
  182SOPE  C21820830   5.121   0.127   8.049  0.2582 -0.4583 -0.2331
  182SOPE  H18R20831   5.215   0.184   8.034 -0.1749  0.4724  0.4597
  182SOPE  H18S20832   5.050   0.152   7.967 -0.5101  1.0035  0.8249
  182SOPE  H18T20833   5.135   0.017   8.044  0.7658 -0.3456 -2.0422
  182SOPE   C3320834   4.643   1.044   6.899 -0.2136  0.2697 -0.0191
  182SOPE   H3X20835   4.712   0.962   6.871 -1.7947 -0.8510 -0.7568
  182SOPE   H3Y20836   4.550   0.989   6.926 -1.8699  1.2394 -3.2637
  182SOPE   C3420837   4.673   1.125   7.023  0.4560  0.1212  0.1706
  182SOPE   H4X20838   4.579   1.182   7.041  0.0606  0.3024 -2.2295
  182SOPE   H4Y20839   4.753   1.200   7.004  0.2806  0.8907  2.1903
  182SOPE   C3520840   4.708   1.042   7.143  0.3087 -0.0382  0.2271
  182SOPE   H5X20841   4.812   1.004   7.129  1.4815  2.5429  1.3069
  182SOPE   H5Y20842   4.637   0.957   7.153 -0.2337  0.5527  1.5405
  182SOPE   C3620843   4.716   1.122   7.277 -0.3204 -0.2483  0.0033
  182SOPE   H6X20844   4.619   1.177   7.277 -0.7481 -0.9885 -0.9938
  182SOPE   H6Y20845   4.805   1.189   7.277 -0.6602  0.2321  0.7431
  182SOPE   C3720846   4.710   1.044   7.407  0.1875  0.1655  0.0026
  182SOPE   H7X20847   4.798   0.977   7.410  0.3367  0.2547 -1.6408
  182SOPE   H7Y20848   4.625   0.972   7.407  0.0502  0.3271 -0.3298
  182SOPE   C3820849   4.699   1.137   7.525 -0.0490 -0.0474 -0.5026
  182SOPE   H8X20850   4.628   1.222   7.510  0.3105  1.2296  3.6373
  182SOPE   H8Y20851   4.801   1.172   7.548  0.0462 -1.5930  1.7102
  182SOPE   C3920852   4.659   1.067   7.659  0.1863  0.2686 -0.2035
  182SOPE   H9X20853   4.699   0.965   7.675  0.2734  0.4015  0.4820
  182SOPE   H9Y20854   4.549   1.051   7.665  0.2500  0.0220  0.3559
  182SOPE  C31020855   4.719   1.138   7.785 -0.3699 -0.4168 -0.0256
  182SOPE  H10X20856   4.691   1.246   7.788  1.4411  0.0586  0.9428
  182SOPE  H10Y20857   4.829   1.146   7.779 -0.3227 -0.1166  1.0854
  182SOPE  C31120858   4.665   1.082   7.919 -0.0127  0.3710 -0.7122
  182SOPE  H11X20859   4.705   0.980   7.930  0.6341  0.7121  0.1784
  182SOPE  H11Y20860   4.554   1.074   7.912 -0.1476  1.3455  0.0476
  182SOPE  C31220861   4.700   1.175   8.040 -0.4392  0.2423  0.2218
  182SOPE  H12X20862   4.626   1.258   8.032 -0.0706  0.4520 -1.5045
  182SOPE  H12Y20863   4.804   1.204   8.016 -0.3033  1.0182  1.6458
  182SOPE  C31320864   4.680   1.105   8.173  0.1079 -0.5686 -0.3446
  182SOPE  H13X20865   4.728   1.006   8.189  3.4054  0.6595 -1.7213
  182SOPE  H13Y20866   4.571   1.090   8.186  0.5832 -1.8522  3.3173
  182SOPE  C31420867   4.710   1.208   8.288  0.7945 -0.6356  0.3737
  182SOPE  H14X20868   4.640   1.293   8.278  3.4116  1.4354 -2.2847
  182SOPE  H14Y20869   4.810   1.256   8.287  0.9520 -0.7158 -3.7102
  182SOPE  C31520870   4.709   1.132   8.429  0.4750 -0.9123  0.9707
  182SOPE  H15X20871   4.799   1.068   8.423  2.2170  1.5009 -1.2385
  182SOPE  H15Y20872   4.616   1.071   8.430 -0.6969  0.5783 -2.2830
  182SOPE  C31620873   4.692   1.238   8.536 -0.8643 -0.0399  0.1455
  182SOPE  H16X20874   4.653   1.185   8.625 -0.0533  1.3529  1.3781
  182SOPE  H16Y20875   4.624   1.322   8.508  1.7673  2.1611 -0.1145
  182SOPE  C31720876   4.834   1.291   8.570 -0.1681 -0.1809  0.1579
  182SOPE  H17X20877   4.808   1.373   8.640 -0.3075  1.4823 -1.7492
  182SOPE  H17Y20878   4.874   1.341   8.478  0.8382 -1.2628 -0.0209
  182SOPE  C31820879   4.943   1.192   8.621 -0.2556 -0.0291  0.3189
  182SOPE  H18X20880   5.011   1.231   8.700  0.4148  0.0266 -0.2764
  182SOPE  H18Y20881   5.007   1.146   8.543 -1.2859  0.7349 -1.0470
  182SOPE  H18Z20882   4.891   1.108   8.671  0.3458 -1.0611 -0.7447
  183SOPE     N20883   5.736   6.123   6.107 -0.5344  0.2681  0.1726
  183SOPE   HN120884   5.817   6.116   6.041 -2.9614  1.6468 -3.2326
  183SOPE   HN220885   5.722   6.042   6.171  0.3469  0.4694  0.6511
  183SOPE   HN320886   5.649   6.147   6.056  0.2279  1.0825 -0.7744
  183SOPE   C1220887   5.760   6.234   6.203  0.1008 -0.2711  0.0831
  183SOPE  H12A20888   5.673   6.236   6.271 -0.5562  2.4662 -0.7002
  183SOPE  H12B20889   5.764   6.323   6.136  0.1790 -0.9506 -0.8309
  183SOPE   C1120890   5.881   6.192   6.285  0.1093 -0.6653 -0.0748
  183SOPE  H11A20891   5.853   6.115   6.360  1.0876 -0.5509  0.4184
  183SOPE  H11B20892   5.894   6.288   6.338 -1.8950 -0.0700 -0.5776
  183SOPE     P20893   6.135   6.141   6.282 -0.5475 -0.5312 -0.2489
  183SOPE   O1320894   6.189   6.274   6.320 -0.3897 -0.1332 -0.2301
  183SOPE   O1420895   6.227   6.055   6.206 -0.1550 -0.2648  0.0983
  183SOPE   O1220896   5.999   6.163   6.203  0.0121 -0.4127 -0.3090
  183SOPE   O1120897   6.087   6.060   6.407 -0.3599  0.4807  0.0113
  183SOPE    C120898   6.068   5.920   6.398  0.6770  0.1382  0.0818
  183SOPE    HA20899   6.166   5.868   6.390  0.3896 -0.4745  0.4327
  183SOPE    HB20900   6.009   5.887   6.310  0.9956 -0.1101 -0.0396
  183SOPE    C220901   6.008   5.868   6.537  0.5159  0.3037  0.0259
  183SOPE    HS20902   5.918   5.928   6.561  0.5771  0.6160 -0.5152
  183SOPE   O2120903   6.100   5.878   6.642  0.1438 -0.5519 -0.1974
  183SOPE   C2120904   6.098   5.985   6.711 -0.0474 -1.0157  0.2929
  183SOPE   O2220905   6.038   6.090   6.699 -0.4221 -0.1712 -0.4412
  183SOPE   C2220906   6.185   5.967   6.833 -0.3864  0.8538 -0.3741
  183SOPE   H2R20907   6.197   6.071   6.872 -1.5144  1.7127 -2.1655
  183SOPE   H2S20908   6.282   5.945   6.783 -0.3953 -0.1987  0.0499
  183SOPE    C320909   5.963   5.717   6.523 -0.8368  0.3986  0.3353
  183SOPE    HX20910   6.060   5.663   6.524 -1.9709 -1.7699 -0.4670
  183SOPE    HY20911   5.911   5.706   6.425  0.2734  0.1768 -0.2429
  183SOPE   O3120912   5.895   5.680   6.648 -0.1429  0.0440  0.2915
  183SOPE   C3120913   5.929   5.557   6.696  0.2783  0.0132  0.5873
  183SOPE   O3220914   6.002   5.475   6.641  0.3910 -0.5343  0.8100
  183SOPE   C3220915   5.848   5.518   6.823 -0.0707 -0.0860 -0.2391
  183SOPE   H2X20916   5.742   5.529   6.792  0.1944  1.3965 -0.6917
  183SOPE   H2Y20917   5.869   5.590   6.905 -0.7042 -1.2698  0.9980
  183SOPE   C2320918   6.144   5.876   6.954 -0.7304 -0.1306 -0.1198
  183SOPE   H3R20919   6.229   5.881   7.025 -0.1877  2.2236 -0.8500
  183SOPE   H3S20920   6.154   5.771   6.917  3.0712  0.0960 -0.1212
  183SOPE   C2420921   6.020   5.911   7.032 -0.4930  0.3662 -0.8008
  183SOPE   H4R20922   6.041   6.000   7.095 -0.1748  1.1093 -1.9353
  183SOPE   H4S20923   5.945   5.928   6.952 -0.3049  1.2794 -0.7958
  183SOPE   C2520924   5.982   5.796   7.129 -0.2186 -0.1333  0.3063
  183SOPE   H5R20925   5.952   5.708   7.068  0.5441 -1.0351  1.1947
  183SOPE   H5S20926   6.072   5.767   7.188 -0.8835  1.5968  2.2617
  183SOPE   C2620927   5.865   5.819   7.223  0.3400 -1.0279  0.2929
  183SOPE   H6R20928   5.779   5.851   7.161  0.3719  1.6790  1.4934
  183SOPE   H6S20929   5.851   5.731   7.288 -0.1320 -1.0497  0.1602
  183SOPE   C2720930   5.884   5.949   7.316  0.1146  0.7167  0.0190
  183SOPE   H7R20931   5.984   5.944   7.364 -0.5881 -0.2348  1.4528
  183SOPE   H7S20932   5.887   6.035   7.245  1.2225 -0.4892 -1.4534
  183SOPE   C2820933   5.765   5.981   7.415 -0.2565  0.6161  0.2934
  183SOPE   H8R20934   5.799   6.074   7.466  1.4885  0.7242 -0.9692
  183SOPE   H8S20935   5.673   5.998   7.356 -0.1459  0.6063  0.1186
  183SOPE   C2920936   5.744   5.857   7.509 -0.1655 -0.0189 -0.4114
  183SOPE   H9120937   5.731   5.759   7.461 -0.7875 -0.2665  0.2427
  183SOPE  C21020938   5.741   5.877   7.646  0.4709 -0.0350  0.1348
  183SOPE  H10120939   5.729   5.787   7.708 -0.6681 -0.3838 -0.5798
  183SOPE  C21120940   5.760   6.004   7.727 -0.1183 -0.8383 -0.1921
  183SOPE  H11R20941   5.683   6.004   7.807 -1.9603 -0.2101 -1.8741
  183SOPE  H11S20942   5.749   6.092   7.659  0.0256 -0.6579  0.0183
  183SOPE  C21220943   5.899   6.009   7.792  0.3892  0.3312  0.0326
  183SOPE  H12R20944   5.973   6.034   7.714 -0.0813  0.5816 -0.3374
  183SOPE  H12S20945   5.910   5.909   7.838 -0.0994  0.6915  0.9618
  183SOPE  C21320946   5.908   6.120   7.894 -0.0556 -0.3510  0.0087
  183SOPE  H13R20947   5.860   6.080   7.986  0.3504 -2.8315 -0.8067
  183SOPE  H13S20948   5.863   6.212   7.849  0.9731 -0.2138 -0.7716
  183SOPE  C21420949   6.046   6.167   7.928 -0.5979 -0.2319 -0.7165
  183SOPE  H14R20950   6.092   6.224   7.844 -1.7178  4.0167  1.2548
  183SOPE  H14S20951   6.095   6.069   7.947 -0.8957 -0.6632 -2.0390
  183SOPE  C21520952   6.045   6.257   8.055 -0.5310 -0.2043  0.1928
  183SOPE  H15R20953   6.154   6.272   8.075  0.5582 -2.6079 -2.9311
  183SOPE  H15S20954   6.003   6.195   8.136  0.7333  0.6278  1.5385
  183SOPE  C21620955   5.981   6.392   8.028  0.1533 -0.6096 -0.0144
  183SOPE  H16R20956   5.972   6.423   7.922 -0.9819 -2.2067 -0.4240
  183SOPE  H16S20957   6.051   6.468   8.068  0.6116  0.4690 -2.6864
  183SOPE  C21720958   5.848   6.420   8.102 -0.3522 -0.5489  0.3860
  183SOPE  H17R20959   5.774   6.352   8.056 -0.2186 -0.0654 -0.5727
  183SOPE  H17S20960   5.825   6.527   8.082  0.6196 -0.6680 -1.5988
  183SOPE  C21820961   5.841   6.385   8.248 -0.8427  0.5098 -1.0755
  183SOPE  H18R20962   5.818   6.277   8.249 -3.5756  1.0334 -0.8402
  183SOPE  H18S20963   5.760   6.440   8.300 -1.3249 -0.7217 -0.5033
  183SOPE  H18T20964   5.943   6.411   8.286  0.0641 -1.1681 -2.2202
  183SOPE   C3320965   5.879   5.373   6.870 -0.2614 -0.3047  0.6740
  183SOPE   H3X20966   5.989   5.358   6.878  0.1666  1.4749 -1.1297
  183SOPE   H3Y20967   5.848   5.314   6.781 -0.6763 -1.9590  1.8855
  183SOPE   C3420968   5.802   5.325   6.983 -0.4844  0.8678  0.1029
  183SOPE   H4X20969   5.834   5.220   6.999  1.6476  1.6395  1.3252
  183SOPE   H4Y20970   5.692   5.331   6.968 -0.7395 -1.6592  0.4829
  183SOPE   C3520971   5.824   5.393   7.119 -0.5745  0.3916  0.0181
  183SOPE   H5X20972   5.776   5.491   7.099  1.4926  1.6083  0.6396
  183SOPE   H5Y20973   5.934   5.402   7.133 -0.3751 -0.3359 -0.9962
  183SOPE   C3620974   5.774   5.309   7.235 -0.3499 -0.3846  0.9053
  183SOPE   H6X20975   5.828   5.214   7.254 -0.5348 -0.9346 -1.0596
  183SOPE   H6Y20976   5.671   5.277   7.212 -1.1935  1.3304  2.0857
  183SOPE   C3720977   5.761   5.398   7.363  0.4380  0.4362  0.9419
  183SOPE   H7X20978   5.684   5.478   7.369 -1.7635 -1.5447  0.4734
  183SOPE   H7Y20979   5.858   5.453   7.364  1.5370 -1.3906  0.2319
  183SOPE   C3820980   5.740   5.298   7.475  0.1117 -0.2828  0.2349
  183SOPE   H8X20981   5.828   5.230   7.471 -0.2036 -0.6392 -2.0878
  183SOPE   H8Y20982   5.643   5.243   7.470  0.5826 -1.6100  3.3292
  183SOPE   C3920983   5.756   5.371   7.610 -0.3145  0.1058  0.0795
  183SOPE   H9X20984   5.654   5.411   7.629 -0.4479 -0.4627  0.6038
  183SOPE   H9Y20985   5.829   5.455   7.614  0.2235 -0.3802  0.9021
  183SOPE  C31020986   5.784   5.264   7.725 -0.2800  0.7081 -0.4749
  183SOPE  H10X20987   5.892   5.240   7.728 -0.9447 -2.6094  2.3339
  183SOPE  H10Y20988   5.724   5.174   7.698 -0.3366  0.0899  1.5683
  183SOPE  C31120989   5.747   5.332   7.861  0.1055 -0.0066  0.6528
  183SOPE  H11X20990   5.655   5.392   7.846  1.1215  1.4438 -0.0542
  183SOPE  H11Y20991   5.833   5.401   7.875 -0.6900  1.0746  0.3705
  183SOPE  C31220992   5.754   5.231   7.978  0.2124  0.5076 -0.0435
  183SOPE  H12X20993   5.858   5.199   7.999  0.1335 -0.1755 -0.6656
  183SOPE  H12Y20994   5.695   5.144   7.942 -0.7842 -0.2447  3.1053
  183SOPE  C31320995   5.679   5.288   8.098  0.3190  0.2753 -0.2378
  183SOPE  H13X20996   5.669   5.213   8.180 -2.0455  1.3926  0.6033
  183SOPE  H13Y20997   5.572   5.308   8.077  0.1725 -0.0062  0.2301
  183SOPE  C31420998   5.755   5.408   8.155 -0.0470 -0.2872  0.1084
  183SOPE  H14X20999   5.773   5.482   8.073  0.3695  3.0447  2.9916
  183SOPE  H14Y21000   5.859   5.371   8.169  0.0771 -1.3991 -2.8617
  183SOPE  C31521001   5.705   5.479   8.282  0.4917  0.7208 -0.2745
  183SOPE  H15X21002   5.680   5.410   8.365  1.1583  0.4064 -0.3301
  183SOPE  H15Y21003   5.611   5.532   8.254  0.1994  0.9131  1.0042
  183SOPE  C31621004   5.799   5.583   8.339  0.8279 -0.2584  0.2123
  183SOPE  H16X21005   5.732   5.648   8.399  1.8742  1.9656 -0.8778
  183SOPE  H16Y21006   5.850   5.639   8.258  0.3595 -1.8477 -1.2358
  183SOPE  C31721007   5.903   5.528   8.440 -0.0852 -0.1976 -0.4571
  183SOPE  H17X21008   5.990   5.473   8.398  1.2698  0.7341  1.0526
  183SOPE  H17Y21009   5.857   5.444   8.497  0.5581  0.2652  0.7803
  183SOPE  C31821010   5.971   5.633   8.533  0.0467 -0.0537  0.3290
  183SOPE  H18X21011   5.891   5.693   8.583  0.3190  0.4991  0.1075
  183SOPE  H18Y21012   6.041   5.693   8.471 -1.0000  1.8228  0.8677
  183SOPE  H18Z21013   6.026   5.575   8.609  0.8289 -0.4875 -0.5436
  184SOPE     N21014   6.009   5.256   6.433 -0.3990  0.0305  0.0442
  184SOPE   HN121015   6.010   5.194   6.516  0.5226  1.4217  1.1378
  184SOPE   HN221016   6.071   5.224   6.356 -0.0149  3.1776 -1.1207
  184SOPE   HN321017   6.058   5.341   6.469  0.1691 -0.0546 -0.4970
  184SOPE   C1221018   5.872   5.280   6.381 -0.7563 -0.7175  0.2034
  184SOPE  H12A21019   5.805   5.323   6.459 -2.1924 -1.5369 -0.5277
  184SOPE  H12B21020   5.832   5.181   6.350 -0.7674 -1.4499  2.3951
  184SOPE   C1121021   5.875   5.383   6.264 -0.2720  0.3850 -0.1095
  184SOPE  H11A21022   5.954   5.356   6.191  1.2347  2.2354  0.7646
  184SOPE  H11B21023   5.906   5.480   6.307  0.1638  0.4774 -0.6128
  184SOPE     P21024   5.695   5.519   6.144 -0.4165  0.4350  0.2847
  184SOPE   O1321025   5.628   5.501   6.010 -0.4739  0.4498 -0.0694
  184SOPE   O1421026   5.800   5.626   6.148  0.0804  0.2378  0.0325
  184SOPE   O1221027   5.754   5.383   6.189 -0.4057 -0.0847  0.3291
  184SOPE   O1121028   5.587   5.544   6.255  0.1414 -0.4124 -0.9326
  184SOPE    C121029   5.541   5.445   6.340  0.6388  0.4827 -0.2699
  184SOPE    HA21030   5.583   5.344   6.322  0.9986  0.4161  0.8985
  184SOPE    HB21031   5.434   5.426   6.318  0.5514 -0.9039  1.1834
  184SOPE    C221032   5.556   5.489   6.485 -0.8751 -0.0039  0.4028
  184SOPE    HS21033   5.664   5.475   6.509 -0.9883 -3.5714 -0.6778
  184SOPE   O2121034   5.463   5.418   6.564 -0.1628  0.3805  0.5336
  184SOPE   C2121035   5.501   5.290   6.575 -0.0050  0.4180 -0.0999
  184SOPE   O2221036   5.605   5.241   6.542 -0.3859 -0.2379 -0.2638
  184SOPE   C2221037   5.393   5.217   6.643 -0.5192 -0.3102 -0.1710
  184SOPE   H2R21038   5.334   5.163   6.566 -0.3322  0.2433 -0.7128
  184SOPE   H2S21039   5.321   5.291   6.684  2.0932  1.3842  1.6761
  184SOPE    C321040   5.523   5.637   6.505  0.3049 -0.2564 -0.1566
  184SOPE    HX21041   5.414   5.631   6.486 -0.2112 -3.2771  2.9037
  184SOPE    HY21042   5.569   5.694   6.421 -0.0514 -1.0125 -0.8735
  184SOPE   O3121043   5.565   5.683   6.634  0.4839 -0.1746  0.6894
  184SOPE   C3121044   5.535   5.811   6.646  0.7512 -0.1955  0.2726
  184SOPE   O3221045   5.460   5.873   6.568  0.0435  0.2188 -0.1246
  184SOPE   C3221046   5.608   5.870   6.759 -0.3992  0.2061  1.0327
  184SOPE   H2X21047   5.717   5.860   6.740 -0.6777  0.1645 -0.7534
  184SOPE   H2Y21048   5.573   5.840   6.860  2.5946  1.4270  2.5659
  184SOPE   C2321049   5.441   5.113   6.746 -0.0821  0.9319 -0.0666
  184SOPE   H3R21050   5.540   5.064   6.736 -0.6449  0.0813 -1.9333
  184SOPE   H3S21051   5.376   5.022   6.744 -0.4042  1.0508  2.1154
  184SOPE   C2421052   5.434   5.148   6.898  0.2984 -0.3670  0.3138
  184SOPE   H4R21053   5.450   5.055   6.957 -0.2991 -1.0901 -0.6393
  184SOPE   H4S21054   5.505   5.232   6.915 -1.3945  1.1731  0.1155
  184SOPE   C2521055   5.306   5.204   6.956  0.1011 -0.2508  0.8046
  184SOPE   H5R21056   5.274   5.292   6.896 -2.8711 -2.0764 -0.4777
  184SOPE   H5S21057   5.227   5.132   6.929 -1.6474  1.1048  2.0753
  184SOPE   C2621058   5.298   5.215   7.106  0.3572 -0.6780  0.4174
  184SOPE   H6R21059   5.345   5.123   7.146  2.3086  0.3853  0.6863
  184SOPE   H6S21060   5.366   5.297   7.138  0.4888  0.4490 -2.4757
  184SOPE   C2721061   5.156   5.255   7.137  0.7180 -0.8079  0.2497
  184SOPE   H7R21062   5.132   5.349   7.084 -0.4712 -0.8845  0.6367
  184SOPE   H7S21063   5.087   5.184   7.087 -1.4219  2.5728 -2.0072
  184SOPE   C2821064   5.126   5.262   7.289  0.5274 -0.0700  0.5581
  184SOPE   H8R21065   5.188   5.342   7.334 -0.7449 -0.0873  2.4349
  184SOPE   H8S21066   5.018   5.282   7.307  0.4362 -1.3079  1.5523
  184SOPE   C2921067   5.157   5.130   7.363 -0.2404 -0.6790  0.3263
  184SOPE   H9121068   5.094   5.044   7.336  0.5879 -1.1288 -0.2424
  184SOPE  C21021069   5.253   5.112   7.452 -0.3285 -0.5260  0.1273
  184SOPE  H10121070   5.271   5.015   7.501 -0.5686 -0.1692  0.9324
  184SOPE  C21121071   5.359   5.207   7.512  1.1913 -0.8563  0.2977
  184SOPE  H11R21072   5.335   5.314   7.492  0.3569 -1.3138 -1.2457
  184SOPE  H11S21073   5.454   5.194   7.456  0.1959  2.8932 -2.6444
  184SOPE  C21221074   5.394   5.182   7.655  0.1549 -0.2065 -0.3960
  184SOPE  H12R21075   5.484   5.246   7.670 -1.5045  2.2371 -0.1085
  184SOPE  H12S21076   5.415   5.074   7.669  1.6602  0.0807 -0.2819
  184SOPE  C21321077   5.288   5.237   7.758 -0.2507  0.1602 -0.9759
  184SOPE  H13R21078   5.187   5.195   7.744 -1.0434  1.9071 -0.7402
  184SOPE  H13S21079   5.259   5.341   7.731 -0.7790  0.4050  0.4254
  184SOPE  C21421080   5.339   5.234   7.901 -0.5638  0.2837 -0.7723
  184SOPE  H14R21081   5.436   5.286   7.914 -1.2010  0.9920  1.8358
  184SOPE  H14S21082   5.358   5.126   7.921  1.9249  0.7218 -0.4124
  184SOPE  C21521083   5.224   5.278   8.003  0.0155  0.4576  0.4750
  184SOPE  H15R21084   5.127   5.226   7.997  1.3833 -2.0447 -2.4170
  184SOPE  H15S21085   5.197   5.383   7.978  1.2157  0.3754 -1.3565
  184SOPE  C21621086   5.270   5.271   8.149 -0.3720 -0.2633  0.7328
  184SOPE  H16R21087   5.233   5.354   8.212 -1.4329 -1.6163  1.9435
  184SOPE  H16S21088   5.380   5.256   8.154 -0.5821 -1.6324  1.8477
  184SOPE  C21721089   5.211   5.153   8.223  0.1002 -0.5368 -0.4367
  184SOPE  H17R21090   5.266   5.143   8.319  1.9138 -0.2393 -1.4087
  184SOPE  H17S21091   5.223   5.055   8.172  0.2728 -0.2521 -0.9540
  184SOPE  C21821092   5.078   5.182   8.269  0.0490  0.0525 -0.2033
  184SOPE  H18R21093   5.009   5.212   8.187  0.6112  1.6401 -0.1416
  184SOPE  H18S21094   5.072   5.257   8.351  2.1452  0.3490 -0.2497
  184SOPE  H18T21095   5.038   5.085   8.304 -1.6055  1.6410  2.6808
  184SOPE   C3321096   5.590   6.027   6.759  0.4823 -0.0087 -0.5011
  184SOPE   H3X21097   5.485   6.061   6.767 -0.7385 -3.6001  0.9624
  184SOPE   H3Y21098   5.626   6.065   6.661  1.0520 -1.5179 -0.8960
  184SOPE   C3421099   5.687   6.094   6.862 -0.3959  0.7023  0.2207
  184SOPE   H4X21100   5.790   6.062   6.836 -0.7871 -1.0550  0.6620
  184SOPE   H4Y21101   5.672   6.054   6.965  2.7177  0.6961  0.7547
  184SOPE   C3521102   5.686   6.246   6.867  0.1600 -0.0797  0.2060
  184SOPE   H5X21103   5.595   6.287   6.916  0.8229  2.1892 -0.3199
  184SOPE   H5Y21104   5.681   6.286   6.763 -2.2913  0.4679  0.4788
  184SOPE   C3621105   5.807   6.312   6.941  0.0866 -0.6400 -0.1661
  184SOPE   H6X21106   5.779   6.418   6.956  0.9901 -0.2420 -1.1209
  184SOPE   H6Y21107   5.907   6.302   6.892  0.8978  0.8895  1.0949
  184SOPE   C3721108   5.833   6.254   7.086  0.0532  0.0905  0.2899
  184SOPE   H7X21109   5.917   6.181   7.080 -1.0888 -1.2620  0.1838
  184SOPE   H7Y21110   5.747   6.191   7.117 -0.1616  0.2077 -0.0654
  184SOPE   C3821111   5.853   6.366   7.197 -0.1601  0.1981  0.0814
  184SOPE   H8X21112   5.791   6.457   7.188  0.7236  1.0075  1.6224
  184SOPE   H8Y21113   5.960   6.397   7.194  0.0942 -0.6929 -0.6119
  184SOPE   C3921114   5.839   6.314   7.344 -0.5341  0.4649 -0.1037
  184SOPE   H9X21115   5.914   6.235   7.367  0.2361  1.2223  0.0300
  184SOPE   H9Y21116   5.742   6.271   7.376  0.4649 -2.5641 -0.8192
  184SOPE  C31021117   5.885   6.423   7.439 -0.1840  0.0302 -0.0169
  184SOPE  H10X21118   5.823   6.512   7.415  1.0399  0.6804 -0.8302
  184SOPE  H10Y21119   5.995   6.430   7.426 -0.2980  0.8412 -0.6266
  184SOPE  C31121120   5.849   6.379   7.587  0.4087 -0.6936 -0.0289
  184SOPE  H11X21121   5.927   6.408   7.662 -1.5078  1.4786  1.2564
  184SOPE  H11Y21122   5.844   6.268   7.585  0.0091 -0.6735 -1.5147
  184SOPE  C31221123   5.707   6.426   7.638 -0.0441  0.5132 -0.0820
  184SOPE  H12X21124   5.709   6.390   7.743  1.2298 -0.1914 -0.3197
  184SOPE  H12Y21125   5.633   6.371   7.576 -1.4697  2.0420  0.2114
  184SOPE  C31321126   5.681   6.578   7.642  0.4372  0.0256 -0.2149
  184SOPE  H13X21127   5.678   6.624   7.541 -0.2031  2.5634  0.8806
  184SOPE  H13Y21128   5.758   6.632   7.701  2.2373 -0.3991 -2.0593
  184SOPE  C31421129   5.544   6.620   7.709 -0.4426 -0.1940  0.1779
  184SOPE  H14X21130   5.461   6.566   7.658 -1.7770 -0.9343  2.9241
  184SOPE  H14Y21131   5.534   6.729   7.689  1.0086  0.4427  2.4781
  184SOPE  C31521132   5.543   6.601   7.862  0.4465  0.6132 -0.2794
  184SOPE  H15X21133   5.623   6.663   7.908  0.2391 -0.5980  1.8516
  184SOPE  H15Y21134   5.577   6.496   7.876 -0.6995  0.3639  0.7104
  184SOPE  C31621135   5.408   6.611   7.939 -1.3451  0.1346  1.2380
  184SOPE  H16X21136   5.335   6.534   7.905 -1.8340  1.1269 -0.0581
  184SOPE  H16Y21137   5.362   6.710   7.920  0.1520  0.5553 -0.4677
  184SOPE  C31721138   5.419   6.589   8.093 -0.1726  0.4845  0.2955
  184SOPE  H17X21139   5.476   6.677   8.128  2.0950 -0.6781 -0.3050
  184SOPE  H17Y21140   5.477   6.496   8.113 -0.3113  0.1374 -0.8385
  184SOPE  C31821141   5.289   6.569   8.165 -0.6375  0.2420 -1.1597
  184SOPE  H18X21142   5.295   6.553   8.275 -0.6316  0.9519 -1.0525
  184SOPE  H18Y21143   5.231   6.483   8.126 -1.7096 -0.0627  0.9900
  184SOPE  H18Z21144   5.221   6.657   8.171  2.3716  2.6734  3.4011
  185SAPI   C1221145   1.976   1.683  10.979 -0.0958 -0.3204  0.1436
  185SAPI    H221146   2.069   1.680  11.040 -0.0324  0.5470  0.0930
  185SAPI    O221147   1.873   1.632  11.066 -0.0472 -0.3151 -0.4292
  185SAPI   HO221148   1.897   1.543  11.093  0.5474  0.0044  0.1363
  185SAPI   C1321149   1.956   1.824  10.928  0.1987 -0.6378 -0.4557
  185SAPI    H321150   2.028   1.847  10.846 -0.1441  1.0091 -0.3347
  185SAPI    O321151   1.968   1.918  11.034  0.3737 -0.3016 -0.0689
  185SAPI   HO321152   1.992   2.002  10.994 -0.7665 -0.2825 -0.7748
  185SAPI   C1421153   1.821   1.822  10.853  0.5845  0.0370 -0.6745
  185SAPI    H421154   1.736   1.794  10.917  1.8494 -0.1929  0.9740
  185SAPI    O421155   1.794   1.948  10.793  0.8365  0.1634  0.6779
  185SAPI   HO421156   1.724   1.995  10.839 -1.0465  1.1750 -2.8271
  185SAPI   C1521157   1.826   1.720  10.739 -0.6451 -0.3728  0.6769
  185SAPI    H521158   1.906   1.755  10.670 -1.2262 -2.4698 -1.2027
  185SAPI    O521159   1.704   1.715  10.658  0.1053 -0.5227  0.2359
  185SAPI   HO521160   1.701   1.795  10.604  2.4569 -0.6206 -0.1350
  185SAPI   C1621161   1.857   1.580  10.788  0.0794 -0.1363 -0.2446
  185SAPI    H621162   1.773   1.537  10.847  0.3010 -3.8979 -2.2754
  185SAPI    O621163   1.874   1.485  10.679  0.3465 -0.0579  0.1419
  185SAPI   HO621164   1.903   1.406  10.726  3.2357  0.3682 -0.7385
  185SAPI   C1121165   1.990   1.579  10.868  0.5792  0.3905 -0.0329
  185SAPI    H121166   2.066   1.605  10.791  0.9035 -0.0364  0.1399
  185SAPI     P21167   2.156   1.380  10.945  0.0599  0.1234 -0.5308
  185SAPI   O1321168   2.134   1.266  11.037  0.2937 -0.1083  0.3784
  185SAPI   O1421169   2.252   1.481  10.989  0.0450 -0.1988 -0.4307
  185SAPI   O1221170   2.010   1.449  10.926 -0.8224 -0.5064  0.2857
  185SAPI   O1121171   2.192   1.328  10.799 -0.1932  0.5590  0.1322
  185SAPI    C121172   2.102   1.232  10.732  0.1985  0.1645 -0.4998
  185SAPI    HA21173   2.011   1.208  10.790  0.4768  0.6017  0.1237
  185SAPI    HB21174   2.069   1.278  10.636  0.0021  2.2642  0.5064
  185SAPI    C221175   2.178   1.094  10.703  0.2646 -0.1307  0.0982
  185SAPI    HS21176   2.175   1.041  10.801  3.1811  0.9294  0.8752
  185SAPI   O2121177   2.308   1.124  10.661  0.1999  0.1397  0.2114
  185SAPI   C2121178   2.406   1.124  10.748  0.2344  0.0524 -0.6022
  185SAPI   O2221179   2.403   1.100  10.868  0.2081  0.6303 -0.6637
  185SAPI   C2221180   2.539   1.150  10.678 -0.4534  0.6244  0.2299
  185SAPI   H2R21181   2.626   1.089  10.711 -1.7653 -1.7502 -0.5283
  185SAPI   H2S21182   2.523   1.122  10.572 -0.5194  1.7407 -0.0756
  185SAPI    C321183   2.100   1.012  10.591 -0.4064 -0.5711 -0.0785
  185SAPI    HX21184   2.000   0.981  10.627 -1.4506 -0.0745 -2.3844
  185SAPI    HY21185   2.151   0.914  10.586  0.8991  0.0510  0.5851
  185SAPI   O3121186   2.096   1.070  10.454  0.2981 -0.2542 -0.3405
  185SAPI   C3121187   2.173   1.020  10.355 -0.3325 -0.0691 -0.3983
  185SAPI   O3221188   2.221   0.911  10.352 -0.5332  0.8772 -1.1490
  185SAPI   C3221189   2.162   1.131  10.245  0.0714 -0.8114  0.1382
  185SAPI   H2X21190   2.118   1.226  10.283  1.3970 -0.5471  1.0872
  185SAPI   H2Y21191   2.094   1.092  10.167 -1.4092  2.9063 -0.6869
  185SAPI   C2321192   2.587   1.297  10.684  0.2133 -0.2816  0.3685
  185SAPI   H3R21193   2.617   1.331  10.785  2.6207 -0.6350 -0.1770
  185SAPI   H3S21194   2.521   1.371  10.633  1.7320 -0.1298 -1.4517
  185SAPI   C2421195   2.721   1.320  10.612  0.0373  0.1220  0.2591
  185SAPI   H4R21196   2.709   1.291  10.505 -1.0342  1.3671  0.0041
  185SAPI   H4S21197   2.798   1.251  10.652 -0.0581  0.1494  0.4914
  185SAPI   C2521198   2.774   1.466  10.614 -0.1917 -0.4457  0.1377
  185SAPI   H5R21199   2.777   1.517  10.711  0.3272  0.2490 -0.2323
  185SAPI   C2621200   2.843   1.531  10.515  0.7908 -0.5728 -0.4681
  185SAPI   H6R21201   2.867   1.634  10.544 -1.5107 -0.2161  0.2947
  185SAPI   C2721202   2.884   1.502  10.373 -0.2810 -1.2151  0.6229
  185SAPI   H7R21203   2.971   1.563  10.341  0.2455 -2.1068  0.3150
  185SAPI   H7S21204   2.798   1.536  10.312  2.1083 -2.1415 -3.6996
  185SAPI   C2821205   2.919   1.360  10.335  0.7084  0.1072  0.1828
  185SAPI   H8R21206   2.957   1.302  10.420  0.5929 -0.3729 -0.0867
  185SAPI   C2921207   2.913   1.304  10.214 -0.4055 -1.2200  0.1656
  185SAPI   H9R21208   2.943   1.198  10.206  1.0212 -0.8033 -0.3262
  185SAPI  C21021209   2.854   1.374  10.086 -0.0612 -0.5779  0.4817
  185SAPI  H10R21210   2.748   1.406  10.092  0.1753  0.7761 -1.6330
  185SAPI  H10S21211   2.857   1.301  10.003  1.0673  0.5524 -0.5201
  185SAPI  C21121212   2.938   1.496  10.041 -0.7856  0.4390 -0.3569
  185SAPI  H11R21213   3.004   1.539  10.118 -1.3236  1.4980 -0.4615
  185SAPI  C21221214   2.972   1.528   9.916  0.9909  0.2988  0.4802
  185SAPI  H12R21215   3.030   1.617   9.888 -0.6575  1.0597 -0.6838
  185SAPI  C21321216   2.911   1.462   9.793  0.0492  0.3043 -0.3803
  185SAPI  H13R21217   2.838   1.529   9.742 -1.5085 -1.1267 -0.1261
  185SAPI  H13S21218   2.843   1.380   9.824  3.1128 -1.5547  2.0268
  185SAPI  C21421219   3.008   1.407   9.697  0.7841 -0.2680 -0.2587
  185SAPI  H14R21220   3.100   1.365   9.739  0.5444  0.8033  1.4356
  185SAPI  C21521221   2.995   1.396   9.565  0.2451  0.1695 -0.8162
  185SAPI  H15R21222   3.074   1.355   9.501  0.9919  0.5083 -0.1195
  185SAPI  C21621223   2.870   1.447   9.496 -0.4652  0.6391 -0.3906
  185SAPI  H16R21224   2.825   1.531   9.554  1.8293  0.5361  1.6653
  185SAPI  H16S21225   2.787   1.373   9.488  1.3777 -1.5409 -0.1328
  185SAPI  C21721226   2.921   1.506   9.358 -0.4185  0.0650  0.2741
  185SAPI  H17R21227   3.020   1.554   9.375  0.0041 -0.6768 -0.0382
  185SAPI  H17S21228   2.839   1.572   9.325  0.5695  0.6768 -1.0470
  185SAPI  C21821229   2.945   1.409   9.247  0.6175  0.0918  0.2303
  185SAPI  H18R21230   2.849   1.360   9.218  0.4996  1.3139 -1.6556
  185SAPI  H18S21231   3.013   1.333   9.291  1.4575 -0.1894 -1.4493
  185SAPI  C21921232   2.995   1.469   9.115  0.0261 -0.5319 -0.2741
  185SAPI  H19R21233   3.089   1.522   9.139  0.6407 -2.0685  0.8808
  185SAPI  H19S21234   2.923   1.545   9.078 -1.2825 -0.6492  1.8566
  185SAPI  C22021235   3.029   1.362   9.009  0.0990 -0.2643 -0.0187
  185SAPI  H20R21236   3.053   1.402   8.908 -0.6208 -0.6259 -0.3435
  185SAPI  H20S21237   2.941   1.295   8.996 -2.1080  2.4689 -0.2296
  185SAPI  H20T21238   3.118   1.305   9.044 -0.0325 -0.0718  0.6485
  185SAPI   C3321239   2.296   1.162  10.176 -0.7665 -0.6342  0.2887
  185SAPI   H3X21240   2.340   1.066  10.142 -2.5048 -1.9924  1.6816
  185SAPI   H3Y21241   2.363   1.210  10.250  1.8634 -3.9681  0.3018
  185SAPI   C3421242   2.294   1.254  10.046  0.2606  0.2210  0.1413
  185SAPI   H4X21243   2.390   1.237   9.993 -0.9696 -2.0018 -1.5528
  185SAPI   H4Y21244   2.286   1.360  10.077  0.6459  0.1327  0.5671
  185SAPI   C3521245   2.180   1.226   9.944  0.0360  0.5679 -0.1138
  185SAPI   H5X21246   2.168   1.321   9.888  1.5114  0.8953  0.1006
  185SAPI   H5Y21247   2.078   1.198   9.980  0.1974  0.6096  0.3819
  185SAPI   C3621248   2.231   1.126   9.834  0.5120  0.0843  0.1308
  185SAPI   H6X21249   2.265   1.030   9.879  0.7070 -0.3166 -0.8522
  185SAPI   H6Y21250   2.323   1.181   9.806  0.3167  0.9017  1.0624
  185SAPI   C3721251   2.142   1.096   9.713  0.3640  0.2290  0.2982
  185SAPI   H7X21252   2.043   1.073   9.759 -0.3147 -0.3201 -1.3571
  185SAPI   H7Y21253   2.176   1.003   9.663 -0.6872  1.2717 -2.5413
  185SAPI   C3821254   2.132   1.211   9.605  0.2946  0.3967 -0.3153
  185SAPI   H8X21255   2.236   1.238   9.577  0.9371 -1.6329 -0.0739
  185SAPI   H8Y21256   2.082   1.300   9.648 -0.2819 -0.1361  0.1462
  185SAPI   C3921257   2.045   1.166   9.487 -0.5350  0.3954 -0.0982
  185SAPI   H9X21258   1.937   1.157   9.509 -0.9176  2.8394 -0.7239
  185SAPI   H9Y21259   2.079   1.063   9.464 -0.8950  0.6106 -1.7272
  185SAPI  C31021260   2.065   1.252   9.356  0.2576  0.5177 -0.3139
  185SAPI  H10X21261   2.169   1.284   9.339 -0.1972  1.2576 -1.8684
  185SAPI  H10Y21262   2.004   1.342   9.376 -0.1599  0.0081  0.7997
  185SAPI  C31121263   2.024   1.171   9.232  0.3902  0.4132  0.1671
  185SAPI  H11X21264   1.935   1.110   9.255  1.7216 -1.0908  1.5002
  185SAPI  H11Y21265   2.097   1.091   9.206 -0.6260 -1.1521  1.9307
  185SAPI  C31221266   2.007   1.265   9.105  0.4426 -0.4271  0.0383
  185SAPI  H12X21267   2.098   1.310   9.060  0.2775  1.4773  1.5053
  185SAPI  H12Y21268   1.942   1.349   9.136  0.3354 -0.8624  1.0177
  185SAPI  C31321269   1.937   1.198   8.984  0.0772 -0.0727  0.4346
  185SAPI  H13X21270   1.857   1.130   9.020 -1.2751  1.4202  0.3831
  185SAPI  H13Y21271   2.001   1.128   8.927 -2.7129 -2.9887  0.5939
  185SAPI  C31421272   1.872   1.300   8.897  0.7118  0.6199  0.6698
  185SAPI  H14X21273   1.941   1.379   8.861 -0.0905  1.0283 -0.0139
  185SAPI  H14Y21274   1.785   1.340   8.954 -0.4642 -1.6267  0.5850
  185SAPI  C31521275   1.806   1.242   8.759 -0.2336 -0.4724  0.7666
  185SAPI  H15X21276   1.751   1.147   8.778  0.0795 -1.3779 -2.3098
  185SAPI  H15Y21277   1.887   1.223   8.685 -0.9765  1.6046 -0.6898
  185SAPI  C31621278   1.718   1.345   8.689 -0.4826  0.2443  0.3692
  185SAPI  H16X21279   1.794   1.412   8.645  0.2436 -1.7826 -1.6742
  185SAPI  H16Y21280   1.659   1.403   8.763 -1.5362 -1.6152  1.0570
  185SAPI  C31721281   1.607   1.294   8.602  0.1100 -0.0603  0.4162
  185SAPI  H17X21282   1.643   1.234   8.515 -2.3179 -0.8877 -0.0940
  185SAPI  H17Y21283   1.563   1.383   8.551 -2.2979 -0.6864  1.2565
  185SAPI  C31821284   1.491   1.231   8.672 -0.8704 -0.0772 -0.0082
  185SAPI  H18X21285   1.397   1.216   8.614 -0.2171  0.2638 -1.1945
  185SAPI  H18Y21286   1.467   1.306   8.750 -0.8622  1.1307 -1.1301
  185SAPI  H18Z21287   1.520   1.132   8.713  0.9348  0.4531  0.1159
  186SAPI   C1221288   3.207   0.223  10.570  0.5555 -0.7333  0.9341
  186SAPI    H221289   3.254   0.193  10.474  1.6840  2.1890  0.4765
  186SAPI    O221290   3.254   0.351  10.599  0.4779  0.2209  0.3536
  186SAPI   HO221291   3.324   0.359  10.534 -2.3000 -0.8803 -3.0326
  186SAPI   C1321292   3.054   0.232  10.535 -0.1140  0.4658 -0.6167
  186SAPI    H321293   3.020   0.129  10.510  1.2769  0.5005 -2.8909
  186SAPI    O321294   3.035   0.313  10.419 -0.2991 -0.2849  0.2026
  186SAPI   HO321295   2.950   0.299  10.377  0.8092  1.1151 -2.7710
  186SAPI   C1421296   2.976   0.282  10.657  0.0453  0.4694 -0.1987
  186SAPI    H421297   3.015   0.383  10.685 -0.4540  0.7175 -0.3858
  186SAPI    O421298   2.831   0.292  10.628 -0.5338  0.0338 -0.0131
  186SAPI   HO421299   2.817   0.383  10.602  0.9590  0.6445  1.1637
  186SAPI   C1521300   3.002   0.182  10.778 -0.2437 -0.1494  0.3699
  186SAPI    H521301   2.983   0.080  10.740 -0.7218  0.7087 -1.8368
  186SAPI    O521302   2.922   0.202  10.893 -0.1011 -0.1026  0.0626
  186SAPI   HO521303   2.895   0.112  10.916 -0.6691 -0.1477 -0.7597
  186SAPI   C1621304   3.158   0.176  10.813  0.2344 -0.5052 -0.1065
  186SAPI    H621305   3.205   0.270  10.850  3.1621 -2.3872  1.3490
  186SAPI    O621306   3.189   0.085  10.919 -0.0973  0.1761 -0.1772
  186SAPI   HO621307   3.224   0.012  10.867  1.4951  0.1120  0.9181
  186SAPI   C1121308   3.229   0.134  10.688  0.0591 -0.1613 -0.2248
  186SAPI    H121309   3.186   0.037  10.654  3.2996 -1.3683 -1.2427
  186SAPI     P21310   3.468   0.023  10.635 -0.3008 -0.2827  0.1711
  186SAPI   O1321311   3.388  -0.098  10.600 -0.4229  0.6098 -0.1832
  186SAPI   O1421312   3.588   0.001  10.723  0.0629 -0.3285 -0.0563
  186SAPI   O1221313   3.368   0.127  10.709 -0.7402 -0.7763 -0.8435
  186SAPI   O1121314   3.522   0.095  10.512 -0.3223 -0.2780 -0.3521
  186SAPI    C121315   3.610   0.215  10.531  0.5848  0.0479 -0.6231
  186SAPI    HA21316   3.541   0.298  10.559 -0.5329 -1.0132 -0.1568
  186SAPI    HB21317   3.694   0.192  10.599  0.3635 -0.9392 -0.6682
  186SAPI    C221318   3.675   0.251  10.394  0.3912  0.2540 -0.3169
  186SAPI    HS21319   3.718   0.353  10.391 -0.8739  0.9213  1.8730
  186SAPI   O2121320   3.577   0.249  10.293  0.7016  0.8836  0.1183
  186SAPI   C2121321   3.464   0.307  10.292  0.2605  0.6623 -0.2350
  186SAPI   O2221322   3.410   0.368  10.378 -0.2646  0.3816  0.5027
  186SAPI   C2221323   3.403   0.283  10.157  0.2604 -0.0460  0.5554
  186SAPI   H2R21324   3.465   0.342  10.085  1.7323 -2.5839 -0.3919
  186SAPI   H2S21325   3.426   0.177  10.134 -1.0337 -0.1407 -0.4014
  186SAPI    C321326   3.789   0.151  10.363  0.3185  0.1739  0.4264
  186SAPI    HX21327   3.753   0.055  10.405 -0.6189  0.8316  1.1467
  186SAPI    HY21328   3.881   0.166  10.424  0.6422  1.1472 -0.2735
  186SAPI   O3121329   3.829   0.148  10.220 -0.4652 -0.3619 -0.6607
  186SAPI   C3121330   3.911   0.244  10.176  0.4995 -0.2604  0.2323
  186SAPI   O3221331   3.961   0.329  10.239 -0.3171 -0.4001 -0.3280
  186SAPI   C3221332   3.947   0.211  10.030  0.2562 -0.3677 -0.8901
  186SAPI   H2X21333   4.015   0.122  10.033 -1.1415 -1.4468 -0.1325
  186SAPI   H2Y21334   3.995   0.299   9.982 -0.4300  1.2512  1.2300
  186SAPI   C2321335   3.258   0.302  10.140  0.3347 -0.4905  0.1922
  186SAPI   H3R21336   3.203   0.277  10.233 -0.5799  2.0005  0.4221
  186SAPI   H3S21337   3.220   0.235  10.059 -0.2930  0.2902 -0.1790
  186SAPI   C2421338   3.217   0.441  10.099  0.2767  0.2130  0.4330
  186SAPI   H4R21339   3.272   0.477  10.010 -0.9416  0.0382 -0.4100
  186SAPI   H4S21340   3.246   0.518  10.174 -1.3060  1.0677  0.2081
  186SAPI   C2521341   3.069   0.446  10.061 -0.0308  0.2978  0.0228
  186SAPI   H5R21342   3.000   0.446  10.147  1.8043  1.2766  1.5978
  186SAPI   C2621343   3.013   0.454   9.939 -0.4236 -0.0200 -0.2431
  186SAPI   H6R21344   2.904   0.465   9.927 -0.5856 -0.8499  0.3849
  186SAPI   C2721345   3.101   0.456   9.815  0.0498  0.0738 -0.8752
  186SAPI   H7R21346   3.146   0.355   9.809  1.3046  0.4530  1.1076
  186SAPI   H7S21347   3.184   0.528   9.834  1.2277 -0.9479 -1.9768
  186SAPI   C2821348   3.045   0.504   9.678  0.6222  0.5567 -0.4570
  186SAPI   H8R21349   2.942   0.542   9.680  0.9997  1.6364 -0.8162
  186SAPI   C2921350   3.102   0.489   9.555  1.3176  0.5252 -0.7472
  186SAPI   H9R21351   3.054   0.532   9.466 -1.8622  1.7917  1.3908
  186SAPI  C21021352   3.236   0.429   9.522 -0.0372 -0.2793 -0.0958
  186SAPI  H10R21353   3.216   0.352   9.445  1.8408  0.7589 -1.7220
  186SAPI  H10S21354   3.272   0.379   9.615 -2.5940 -0.8639  0.6489
  186SAPI  C21121355   3.326   0.542   9.462 -0.4396 -0.1541 -0.5817
  186SAPI  H11R21356   3.405   0.589   9.522 -0.2383 -0.9031 -0.2452
  186SAPI  C21221357   3.321   0.583   9.335 -0.7734 -0.3193 -0.3658
  186SAPI  H12R21358   3.388   0.663   9.302  2.5102 -2.4343  0.7056
  186SAPI  C21321359   3.233   0.538   9.221  0.1826  0.2781 -0.4008
  186SAPI  H13R21360   3.207   0.635   9.172  0.7288 -0.1252 -1.5164
  186SAPI  H13S21361   3.137   0.497   9.260  2.3597 -4.3621  0.7189
  186SAPI  C21421362   3.303   0.429   9.135  0.2073 -0.4756 -0.4625
  186SAPI  H14R21363   3.376   0.361   9.182 -0.7455 -2.0539 -1.1955
  186SAPI  C21521364   3.260   0.404   9.010 -0.7811 -0.2682  0.0565
  186SAPI  H15R21365   3.309   0.323   8.956  1.0655  1.0187 -0.3070
  186SAPI  C21621366   3.158   0.486   8.932  0.2718  0.0878 -0.3149
  186SAPI  H16R21367   3.125   0.585   8.970 -3.2357  0.4712 -3.6935
  186SAPI  H16S21368   3.057   0.440   8.947 -0.7656  2.0965 -0.8071
  186SAPI  C21721369   3.202   0.499   8.788 -0.2914 -0.3588 -0.9249
  186SAPI  H17R21370   3.301   0.454   8.765  1.1382  3.4601 -3.2406
  186SAPI  H17S21371   3.216   0.606   8.760  0.9246 -0.7690 -2.0153
  186SAPI  C21821372   3.105   0.436   8.687 -0.6665  1.0328 -0.3001
  186SAPI  H18R21373   3.075   0.329   8.693  1.1823  0.5531  1.5695
  186SAPI  H18S21374   3.157   0.427   8.589 -0.7666 -1.9128 -0.1902
  186SAPI  C21921375   2.990   0.539   8.662  0.2535 -0.3202 -0.5216
  186SAPI  H19R21376   2.961   0.608   8.744 -1.0932 -1.6481  0.1780
  186SAPI  H19S21377   2.898   0.477   8.651  0.9370 -1.5674  0.6128
  186SAPI  C22021378   3.016   0.612   8.528  0.1289 -0.5590  0.2128
  186SAPI  H20R21379   2.929   0.678   8.506  1.0595  0.7358  0.3466
  186SAPI  H20S21380   3.024   0.545   8.440  1.8233  2.3495 -2.0180
  186SAPI  H20T21381   3.111   0.669   8.522 -0.1528  0.0025  0.9011
  186SAPI   C3321382   3.822   0.171   9.942 -0.0658  0.2185 -0.0382
  186SAPI   H3X21383   3.754   0.098   9.992  3.4108 -2.1073  1.7173
  186SAPI   H3Y21384   3.869   0.136   9.848 -0.4288 -0.3222 -0.0196
  186SAPI   C3421385   3.733   0.286   9.889 -0.3143 -0.6835  0.3713
  186SAPI   H4X21386   3.804   0.355   9.838 -0.1236 -1.5777 -0.6017
  186SAPI   H4Y21387   3.689   0.338   9.977  1.3769  1.0615  0.2530
  186SAPI   C3521388   3.619   0.255   9.797  0.2219  0.1298 -0.1343
  186SAPI   H5X21389   3.565   0.352   9.792 -0.7208 -0.2197  1.8646
  186SAPI   H5Y21390   3.545   0.187   9.846  2.0314 -1.7400  0.1129
  186SAPI   C3621391   3.652   0.183   9.665 -0.2023  0.0540  0.0400
  186SAPI   H6X21392   3.559   0.163   9.607  1.5865 -0.9700 -2.6788
  186SAPI   H6Y21393   3.696   0.083   9.685 -2.5280 -0.8792  0.7967
  186SAPI   C3721394   3.747   0.269   9.569  0.0650  0.0026 -0.1875
  186SAPI   H7X21395   3.777   0.200   9.487  1.1682 -1.4324  1.3474
  186SAPI   H7Y21396   3.844   0.290   9.620  0.9381 -0.6952 -1.4951
  186SAPI   C3821397   3.674   0.390   9.500  0.6567  0.4551 -0.1490
  186SAPI   H8X21398   3.640   0.452   9.586 -0.3462  0.0061 -0.2073
  186SAPI   H8Y21399   3.584   0.348   9.450  1.4431 -0.3743 -0.8916
  186SAPI   C3921400   3.769   0.467   9.414  0.4821 -0.0187 -0.3844
  186SAPI   H9X21401   3.863   0.496   9.467 -0.2228  1.5471  0.0811
  186SAPI   H9Y21402   3.720   0.567   9.409  0.6930  0.1010 -0.0934
  186SAPI  C31021403   3.789   0.413   9.270  0.6436 -0.0022 -0.5689
  186SAPI  H10X21404   3.690   0.368   9.247  1.4365 -1.8634 -0.5136
  186SAPI  H10Y21405   3.861   0.328   9.275 -1.3709 -1.7085  1.2893
  186SAPI  C31121406   3.831   0.519   9.170 -0.5565 -0.1971 -0.3551
  186SAPI  H11X21407   3.901   0.593   9.216 -0.8481 -1.3465  2.1223
  186SAPI  H11Y21408   3.738   0.566   9.133 -0.8467 -2.0561 -2.1747
  186SAPI  C31221409   3.899   0.452   9.054 -0.1000  0.9400 -0.2682
  186SAPI  H12X21410   3.829   0.381   9.004 -1.1064 -1.1727  3.7152
  186SAPI  H12Y21411   3.982   0.399   9.106 -0.3321  0.6589 -0.1772
  186SAPI  C31321412   3.947   0.558   8.954  0.4837 -0.0272  0.3982
  186SAPI  H13X21413   4.021   0.626   9.003  1.4731  0.6162 -1.8585
  186SAPI  H13Y21414   3.857   0.615   8.924  1.9069  1.4808 -1.2448
  186SAPI  C31421415   4.005   0.502   8.827  0.2836  1.0398 -0.0366
  186SAPI  H14X21416   3.929   0.442   8.773  1.3960  1.1330 -1.8228
  186SAPI  H14Y21417   4.078   0.421   8.848 -1.4692 -0.6017 -0.0443
  186SAPI  C31521418   4.063   0.612   8.740 -0.1855 -0.7465 -0.2717
  186SAPI  H15X21419   4.138   0.672   8.796  0.0864 -0.9328 -0.4390
  186SAPI  H15Y21420   3.984   0.686   8.713  1.6768  1.6573  0.4993
  186SAPI  C31621421   4.129   0.558   8.609  0.2592 -0.2923 -0.1611
  186SAPI  H16X21422   4.148   0.449   8.619  1.2730 -0.0670  0.5493
  186SAPI  H16Y21423   4.229   0.604   8.597  0.4347 -0.7187 -0.3472
  186SAPI  C31721424   4.041   0.600   8.489 -0.1879  0.4074 -0.0623
  186SAPI  H17X21425   4.022   0.709   8.492 -1.1571  0.2178  1.7106
  186SAPI  H17Y21426   3.944   0.546   8.490  0.8154 -1.6995 -2.9008
  186SAPI  C31821427   4.105   0.568   8.354  1.0190  0.4183  0.2415
  186SAPI  H18X21428   4.215   0.582   8.358  1.1830  0.1130 -1.9371
  186SAPI  H18Y21429   4.063   0.634   8.274  1.6282  0.7213  0.1635
  186SAPI  H18Z21430   4.093   0.461   8.329 -2.5259  0.6369  0.5059
  187SAPI   C1221431   5.098   0.946   6.259  0.2157  0.2424 -0.7910
  187SAPI    H221432   5.153   0.960   6.354 -0.3714 -0.6079 -0.3073
  187SAPI    O221433   4.974   1.012   6.269  0.1916 -0.0946 -0.2384
  187SAPI   HO221434   4.945   1.014   6.361 -1.2150  1.0337 -0.6720
  187SAPI   C1321435   5.172   0.998   6.146  0.7440 -0.4157 -0.3220
  187SAPI    H321436   5.271   0.948   6.146  0.6975 -0.5078 -0.3792
  187SAPI    O321437   5.207   1.132   6.170  0.0442 -0.2074 -0.0436
  187SAPI   HO321438   5.137   1.186   6.207  1.5687  2.0061 -0.2491
  187SAPI   C1421439   5.093   0.979   6.016 -0.3226  0.6058 -0.5941
  187SAPI    H421440   4.999   1.037   6.020 -0.4393  0.4714 -1.2498
  187SAPI    O421441   5.176   1.034   5.906  0.1880  0.2812 -0.8998
  187SAPI   HO421442   5.145   1.123   5.889  1.2315  1.1005  1.0854
  187SAPI   C1521443   5.062   0.835   5.988 -0.2398 -0.1186 -0.4077
  187SAPI    H521444   5.154   0.774   5.975 -0.4644 -0.6533  0.4289
  187SAPI    O521445   4.980   0.820   5.869  0.2816 -0.2361 -0.1009
  187SAPI   HO521446   4.973   0.724   5.861 -0.2825 -0.2935  0.9778
  187SAPI   C1621447   4.996   0.769   6.111  0.0996 -0.3661 -1.1237
  187SAPI    H621448   4.896   0.815   6.124  0.1626 -0.7857  1.0944
  187SAPI    O621449   4.975   0.635   6.092 -0.4493  0.3105 -0.2259
  187SAPI   HO621450   5.037   0.584   6.145  0.1840  1.0851 -0.2105
  187SAPI   C1121451   5.081   0.791   6.236 -0.3064 -0.4822 -0.4177
  187SAPI    H121452   5.185   0.763   6.210  0.2443  0.4000  0.7823
  187SAPI     P21453   5.094   0.599   6.419 -0.0966 -0.0912 -0.0208
  187SAPI   O1321454   5.098   0.501   6.303 -0.7272  0.1766  0.2242
  187SAPI   O1421455   5.014   0.559   6.539 -0.4525  0.1421 -0.6037
  187SAPI   O1221456   5.036   0.744   6.361  0.2209  0.1907  0.2919
  187SAPI   O1121457   5.239   0.651   6.452  0.5390  0.3379 -0.8280
  187SAPI    C121458   5.260   0.738   6.562 -0.0860 -0.2503 -0.2431
  187SAPI    HA21459   5.293   0.836   6.519 -1.3732  0.1097 -0.4494
  187SAPI    HB21460   5.170   0.755   6.624 -1.0087 -1.3524 -1.2398
  187SAPI    C221461   5.375   0.690   6.659 -0.2483 -0.3238  0.1494
  187SAPI    HS21462   5.460   0.651   6.599 -0.2443  0.0533 -0.0916
  187SAPI   O2121463   5.325   0.595   6.753  0.8332  0.8906  0.2250
  187SAPI   C2121464   5.334   0.467   6.704  0.4698 -0.0917  0.0207
  187SAPI   O2221465   5.377   0.437   6.596 -0.0150  0.4011  0.8953
  187SAPI   C2221466   5.304   0.370   6.815 -0.2281  0.0074  0.6009
  187SAPI   H2R21467   5.271   0.421   6.908  0.7682 -0.2038  1.0810
  187SAPI   H2S21468   5.231   0.294   6.781  1.2134 -0.7338 -0.9925
  187SAPI    C321469   5.427   0.810   6.740 -0.0388 -0.2161  0.7141
  187SAPI    HX21470   5.341   0.859   6.791 -0.5838 -0.7637  0.3383
  187SAPI    HY21471   5.460   0.886   6.666 -1.8458 -0.0610  0.0008
  187SAPI   O3121472   5.517   0.782   6.851 -0.2626 -0.0284 -0.4692
  187SAPI   C3121473   5.642   0.782   6.816 -0.8755 -0.3934  0.3261
  187SAPI   O3221474   5.682   0.794   6.701  0.2973  0.1409  0.9410
  187SAPI   C3221475   5.736   0.762   6.947  0.0151 -0.2946  0.4890
  187SAPI   H2X21476   5.661   0.746   7.028 -0.9143 -1.7892 -0.6143
  187SAPI   H2Y21477   5.797   0.853   6.961  0.9135 -0.5933 -1.2035
  187SAPI   C2321478   5.431   0.288   6.850 -0.5650 -0.0230  0.4777
  187SAPI   H3R21479   5.466   0.227   6.764 -3.1077 -1.0647  0.0844
  187SAPI   H3S21480   5.394   0.212   6.922 -0.1866 -1.8532 -1.1848
  187SAPI   C2421481   5.544   0.363   6.923  0.2815  0.3438  0.7266
  187SAPI   H4R21482   5.574   0.448   6.857  0.6780 -0.1563  0.2578
  187SAPI   H4S21483   5.636   0.304   6.936 -0.0119 -0.4606 -0.5866
  187SAPI   C2521484   5.500   0.409   7.059  0.2066 -0.2730  0.5201
  187SAPI   H5R21485   5.491   0.516   7.083  4.3052 -0.5385  4.4837
  187SAPI   C2621486   5.482   0.333   7.169  0.2028  0.4151 -0.7372
  187SAPI   H6R21487   5.447   0.385   7.260  2.4847  0.4946  0.1537
  187SAPI   C2721488   5.497   0.183   7.183  0.0689  0.3330 -0.2309
  187SAPI   H7R21489   5.590   0.147   7.134  0.5569  1.0319  0.1695
  187SAPI   H7S21490   5.411   0.128   7.140  1.4478 -0.7371 -1.7676
  187SAPI   C2821491   5.514   0.132   7.318 -0.2041 -0.1584  0.2727
  187SAPI   H8R21492   5.490   0.201   7.400 -0.8951 -0.4980  0.3667
  187SAPI   C2921493   5.574   0.013   7.344  0.2147 -0.2737 -0.3181
  187SAPI   H9R21494   5.597  -0.019   7.447  1.0041  0.6007 -0.2028
  187SAPI  C21021495   5.617  -0.087   7.236  0.7249 -0.9135 -0.4601
  187SAPI  H10R21496   5.670  -0.175   7.279 -1.3793 -2.0126  0.0202
  187SAPI  H10S21497   5.687  -0.035   7.168  1.1388 -0.3629  0.3589
  187SAPI  C21121498   5.494  -0.138   7.159  0.1627  0.7367  0.0179
  187SAPI  H11R21499   5.457  -0.084   7.071  0.9109  0.9838 -0.1540
  187SAPI  C21221500   5.429  -0.257   7.187  0.1031 -0.4663  0.1792
  187SAPI  H12R21501   5.344  -0.286   7.124 -0.5807  3.2305 -0.8325
  187SAPI  C21321502   5.476  -0.362   7.288  0.5353  0.1821  0.1192
  187SAPI  H13R21503   5.463  -0.306   7.383  0.0518 -2.0669  1.4376
  187SAPI  H13S21504   5.581  -0.396   7.274 -0.3123 -2.2449 -0.8575
  187SAPI  C21421505   5.393  -0.487   7.290  0.0202  0.5780 -0.3511
  187SAPI  H14R21506   5.392  -0.544   7.196 -1.2314 -0.1590  0.0863
  187SAPI  C21521507   5.320  -0.543   7.388  0.5649 -0.5272 -0.0495
  187SAPI  H15R21508   5.262  -0.632   7.360  2.2073 -0.6413 -3.7694
  187SAPI  C21621509   5.310  -0.483   7.531  0.4321  0.2074  0.3444
  187SAPI  H16R21510   5.206  -0.482   7.569  0.3621 -1.9399  0.3250
  187SAPI  H16S21511   5.356  -0.382   7.531 -0.2230  0.6082 -2.7319
  187SAPI  C21721512   5.378  -0.577   7.633 -0.1474 -0.6969 -0.3929
  187SAPI  H17R21513   5.488  -0.583   7.617 -0.2601 -1.3150 -0.9957
  187SAPI  H17S21514   5.350  -0.684   7.623 -1.6666 -0.4749  1.1664
  187SAPI  C21821515   5.355  -0.538   7.778  0.8290  0.5554 -0.3979
  187SAPI  H18R21516   5.246  -0.558   7.782  1.1866 -1.5996 -0.2432
  187SAPI  H18S21517   5.366  -0.428   7.794  2.2194  0.4619 -0.5654
  187SAPI  C21921518   5.438  -0.611   7.876 -0.2752 -0.2527  0.2133
  187SAPI  H19R21519   5.541  -0.578   7.852  0.7134 -1.6553  2.2333
  187SAPI  H19S21520   5.444  -0.720   7.861 -0.7374 -0.0639 -1.4416
  187SAPI  C22021521   5.385  -0.598   8.014 -0.2496 -0.3033 -0.4067
  187SAPI  H20R21522   5.468  -0.584   8.086 -2.8725 -1.8014  3.1941
  187SAPI  H20S21523   5.334  -0.690   8.050  1.4294 -0.9474  0.4014
  187SAPI  H20T21524   5.328  -0.504   8.033  2.1923  1.1245  0.2611
  187SAPI   C3321525   5.824   0.636   6.937  0.4117  0.1322 -0.2769
  187SAPI   H3X21526   5.917   0.648   6.878  0.0563  1.4922 -0.6098
  187SAPI   H3Y21527   5.760   0.561   6.886 -0.0693  0.9033 -0.8301
  187SAPI   C3421528   5.871   0.573   7.072  0.1266 -0.4195  0.4798
  187SAPI   H4X21529   5.909   0.471   7.055 -1.2244 -0.5886 -2.0285
  187SAPI   H4Y21530   5.780   0.568   7.136 -0.1284  2.4360  0.4972
  187SAPI   C3521531   5.973   0.667   7.143  0.5280 -0.2025  0.7672
  187SAPI   H5X21532   5.921   0.760   7.175 -4.7233 -1.5879 -2.4221
  187SAPI   H5Y21533   6.048   0.702   7.069  1.2235  0.4593  1.7663
  187SAPI   C3621534   6.032   0.614   7.269 -0.1321 -0.1917 -0.4419
  187SAPI   H6X21535   6.129   0.663   7.292  0.2325 -1.6219  1.2463
  187SAPI   H6Y21536   6.069   0.510   7.257 -1.2302 -0.5731 -0.5479
  187SAPI   C3721537   5.943   0.610   7.392 -0.0476  0.5242  0.1374
  187SAPI   H7X21538   5.857   0.545   7.363  0.0084  0.6157 -0.2326
  187SAPI   H7Y21539   5.912   0.715   7.411  0.0270  0.6433 -0.4005
  187SAPI   C3821540   6.019   0.569   7.520 -0.2839 -0.0888 -0.2638
  187SAPI   H8X21541   6.108   0.634   7.536  0.2861 -0.5027 -1.5584
  187SAPI   H8Y21542   6.039   0.460   7.512 -1.9783 -0.5568  1.3484
  187SAPI   C3921543   5.927   0.598   7.637  0.2798  0.3331  0.1120
  187SAPI   H9X21544   5.853   0.522   7.668  0.1770 -0.3736 -1.7705
  187SAPI   H9Y21545   5.865   0.686   7.612 -1.9207 -1.2538 -0.2717
  187SAPI  C31021546   6.009   0.624   7.769 -0.5225 -0.2248  0.2402
  187SAPI  H10X21547   5.952   0.675   7.849 -0.0604 -1.6310  1.5092
  187SAPI  H10Y21548   6.086   0.700   7.746  2.2435 -2.7852  0.3686
  187SAPI  C31121549   6.073   0.495   7.832  0.4009 -0.2518  0.2002
  187SAPI  H11X21550   6.179   0.515   7.855  0.8546 -1.1847 -0.9635
  187SAPI  H11Y21551   6.079   0.415   7.755 -2.8003  1.3070 -1.9080
  187SAPI  C31221552   5.988   0.432   7.941  0.0031 -0.1296 -0.0322
  187SAPI  H12X21553   5.957   0.519   8.003  0.4205 -0.3292  0.4639
  187SAPI  H12Y21554   6.057   0.373   8.006 -0.3026  0.1932  0.6037
  187SAPI  C31321555   5.860   0.358   7.898  0.4510  0.5448  0.5203
  187SAPI  H13X21556   5.904   0.288   7.824 -1.7284  0.2335 -0.5828
  187SAPI  H13Y21557   5.796   0.428   7.840 -1.4627 -1.9109 -0.5274
  187SAPI  C31421558   5.791   0.274   8.004  0.2971  0.4861  0.7388
  187SAPI  H14X21559   5.757   0.348   8.081 -0.1500  0.0699  0.9502
  187SAPI  H14Y21560   5.869   0.216   8.058 -0.8912 -0.4402  1.5303
  187SAPI  C31521561   5.678   0.189   7.952 -0.2444  0.6473  0.3893
  187SAPI  H15X21562   5.623   0.145   8.038 -1.8529  1.6726 -0.0726
  187SAPI  H15Y21563   5.722   0.107   7.891 -1.3557  1.2135 -1.2349
  187SAPI  C31621564   5.580   0.257   7.858  0.2697 -0.2243 -0.0770
  187SAPI  H16X21565   5.628   0.273   7.759 -0.9302  4.0523 -0.1398
  187SAPI  H16Y21566   5.567   0.356   7.905 -0.3888 -0.0038 -0.7206
  187SAPI  C31721567   5.445   0.197   7.840  0.0340  0.0311 -0.3070
  187SAPI  H17X21568   5.410   0.168   7.942 -1.5658  0.4367 -0.7076
  187SAPI  H17Y21569   5.453   0.104   7.780 -2.9825 -0.5263 -0.0041
  187SAPI  C31821570   5.354   0.303   7.777  0.6493  0.1111 -0.0418
  187SAPI  H18X21571   5.257   0.255   7.755  0.4482 -0.1189  1.2529
  187SAPI  H18Y21572   5.393   0.334   7.678  0.8781  0.9968  0.3161
  187SAPI  H18Z21573   5.336   0.389   7.844  0.3196 -1.2352  1.6678
  188SAPI   C1221574   6.367   4.480   6.177  0.5085 -0.2240 -0.0544
  188SAPI    H221575   6.369   4.537   6.082 -0.4475 -1.7739 -1.0434
  188SAPI    O221576   6.237   4.444   6.219  0.3702 -0.0214 -1.1245
  188SAPI   HO221577   6.199   4.517   6.268 -0.4180 -0.3709 -1.2009
  188SAPI   C1321578   6.456   4.357   6.161 -0.1661  0.2854 -0.6160
  188SAPI    H321579   6.562   4.385   6.139 -0.3033  0.8082 -0.6154
  188SAPI    O321580   6.414   4.276   6.044 -0.3795  0.1487  0.3885
  188SAPI   HO321581   6.478   4.287   5.972  1.0807  1.4507  1.8134
  188SAPI   C1421582   6.472   4.277   6.292  0.4516  0.6057 -0.5593
  188SAPI    H421583   6.368   4.241   6.310 -0.0519  2.2988  0.0808
  188SAPI    O421584   6.559   4.165   6.271  0.1407  0.0117  0.2249
  188SAPI   HO421585   6.587   4.127   6.354  0.8429  1.4840  0.6950
  188SAPI   C1521586   6.519   4.368   6.405  0.1568  0.2516 -0.1731
  188SAPI    H521587   6.614   4.410   6.364 -0.2029  0.2931 -0.9862
  188SAPI    O521588   6.548   4.290   6.525 -0.1883 -0.4858  0.7401
  188SAPI   HO521589   6.597   4.211   6.502 -2.0334 -1.7950  1.0887
  188SAPI   C1621590   6.434   4.495   6.419  0.0805 -0.2400  0.0402
  188SAPI    H621591   6.330   4.467   6.448  0.0376  2.0439  2.5471
  188SAPI    O621592   6.495   4.583   6.515  0.0422 -0.1642 -0.0794
  188SAPI   HO621593   6.426   4.639   6.552 -0.9612 -0.9850 -0.6582
  188SAPI   C1121594   6.429   4.567   6.286 -0.1645 -0.9909  0.2545
  188SAPI    H121595   6.532   4.605   6.265 -0.1045  0.2126  2.3920
  188SAPI     P21596   6.384   4.837   6.328  0.1053  0.4432 -0.3177
  188SAPI   O1321597   6.279   4.918   6.266 -0.1349  0.1383  0.0630
  188SAPI   O1421598   6.524   4.865   6.280 -0.1884  0.3621  0.4624
  188SAPI   O1221599   6.344   4.688   6.295 -0.4707  0.4321 -0.1569
  188SAPI   O1121600   6.374   4.843   6.486  0.3159  0.0878 -0.2894
  188SAPI    C121601   6.236   4.820   6.537  0.0524  0.3237 -0.2394
  188SAPI    HA21602   6.162   4.894   6.501 -0.9901 -1.1605 -1.2974
  188SAPI    HB21603   6.200   4.721   6.500  1.9302 -0.2162 -0.7498
  188SAPI    C221604   6.231   4.811   6.693 -0.2928 -0.1624  0.3094
  188SAPI    HS21605   6.247   4.915   6.731  2.0520 -0.8923  1.5350
  188SAPI   O2121606   6.333   4.721   6.729 -0.2873 -0.2067 -0.3650
  188SAPI   C2121607   6.429   4.767   6.807  0.4610  0.4490 -0.5791
  188SAPI   O2221608   6.443   4.879   6.845  0.3732  0.3017  0.0542
  188SAPI   C2221609   6.525   4.646   6.825 -0.6648  0.6599  0.5111
  188SAPI   H2R21610   6.458   4.560   6.803 -2.5088  1.9197  0.9161
  188SAPI   H2S21611   6.599   4.652   6.742 -1.6937  0.6133 -0.4428
  188SAPI    C321612   6.095   4.761   6.755 -0.8682 -0.2348 -0.2909
  188SAPI    HX21613   6.088   4.652   6.736 -0.3988 -0.9368  2.9177
  188SAPI    HY21614   6.005   4.803   6.706 -2.5373 -1.9864  1.1644
  188SAPI   O3121615   6.093   4.774   6.896  0.4027  0.8101 -0.5187
  188SAPI   C3121616   6.021   4.877   6.945  0.6053 -0.5084 -0.5844
  188SAPI   O3221617   5.960   4.959   6.880 -0.3110  0.2574  0.0500
  188SAPI   C3221618   6.023   4.874   7.097 -0.0991  0.0259  0.1054
  188SAPI   H2X21619   6.129   4.878   7.129  0.2835 -1.9666 -0.7831
  188SAPI   H2Y21620   5.992   4.772   7.127  0.4652 -0.4690 -0.9602
  188SAPI   C2321621   6.606   4.637   6.955 -0.1976 -0.0970 -0.2931
  188SAPI   H3R21622   6.665   4.732   6.958 -1.5437  1.0204 -3.6120
  188SAPI   H3S21623   6.670   4.546   6.952  0.1521  0.1621 -2.1763
  188SAPI   C2421624   6.514   4.630   7.081 -0.9742  0.8696 -0.3803
  188SAPI   H4R21625   6.454   4.542   7.047 -1.0649  0.4208  0.9089
  188SAPI   H4S21626   6.447   4.718   7.094 -1.8915  0.1783 -0.3244
  188SAPI   C2521627   6.592   4.598   7.201 -0.8943  0.3306 -0.4339
  188SAPI   H5R21628   6.610   4.492   7.226  0.4839  1.1420  2.4924
  188SAPI   C2621629   6.644   4.699   7.276 -0.1848  0.0819 -0.1899
  188SAPI   H6R21630   6.723   4.673   7.348  1.3176 -0.5944 -2.0006
  188SAPI   C2721631   6.627   4.846   7.253  0.1755 -0.1628 -0.5480
  188SAPI   H7R21632   6.607   4.873   7.147 -1.7450 -1.5562 -0.5976
  188SAPI   H7S21633   6.722   4.889   7.291  0.1363 -0.6245  0.0834
  188SAPI   C2821634   6.497   4.899   7.321  0.5715 -0.6809 -0.1343
  188SAPI   H8R21635   6.402   4.867   7.277  0.9191 -1.4907 -0.3134
  188SAPI   C2921636   6.490   5.007   7.400 -0.1787 -0.0276  0.0796
  188SAPI   H9R21637   6.393   5.027   7.446  0.0906 -0.2072  0.7342
  188SAPI  C21021638   6.608   5.092   7.460 -0.0841 -0.1077  0.2484
  188SAPI  H10R21639   6.608   5.195   7.418  1.6539 -0.0256  0.3584
  188SAPI  H10S21640   6.711   5.058   7.437 -0.1761 -0.4282  0.3080
  188SAPI  C21121641   6.601   5.098   7.612  0.2531  0.0264  0.0109
  188SAPI  H11R21642   6.559   5.189   7.658 -1.5071  0.1487 -1.7038
  188SAPI  C21221643   6.656   5.003   7.687 -0.2396 -0.3627 -0.0695
  188SAPI  H12R21644   6.650   5.011   7.796 -4.2665  1.3169 -0.2453
  188SAPI  C21321645   6.732   4.887   7.632  0.5854 -0.0010 -0.1200
  188SAPI  H13R21646   6.840   4.916   7.633  0.6497 -0.2496  0.2490
  188SAPI  H13S21647   6.707   4.850   7.531  1.2786 -2.5087  0.5554
  188SAPI  C21421648   6.691   4.767   7.713 -0.3423 -0.2722  0.7081
  188SAPI  H14R21649   6.615   4.705   7.662  0.4871 -1.6375  1.0930
  188SAPI  C21521650   6.755   4.712   7.818 -0.0007 -0.1005 -0.7294
  188SAPI  H15R21651   6.707   4.621   7.854 -1.0843  0.9610  0.6291
  188SAPI  C21621652   6.885   4.766   7.878 -0.5231 -0.4762  0.1690
  188SAPI  H16R21653   6.906   4.864   7.830  1.7693 -0.1161  1.7801
  188SAPI  H16S21654   6.964   4.699   7.837 -0.7271 -0.9607  0.5544
  188SAPI  C21721655   6.884   4.785   8.029  0.4883 -0.2049 -0.5613
  188SAPI  H17R21656   6.989   4.799   8.062  0.5751  0.2762 -1.0401
  188SAPI  H17S21657   6.859   4.692   8.084  0.1986  0.0450 -0.2604
  188SAPI  C21821658   6.798   4.919   8.061 -0.0002  0.4633  0.1999
  188SAPI  H18R21659   6.695   4.897   8.025  0.0033 -1.4921  1.2309
  188SAPI  H18S21660   6.833   5.008   8.004  0.1586 -1.3018 -2.6153
  188SAPI  C21921661   6.780   4.953   8.210  0.1582  0.1973 -0.3410
  188SAPI  H19R21662   6.882   4.991   8.235  0.2679  0.1973 -0.7887
  188SAPI  H19S21663   6.769   4.858   8.267  2.6057 -0.3261 -0.6349
  188SAPI  C22021664   6.687   5.069   8.244  0.2722  0.9418 -0.2575
  188SAPI  H20R21665   6.609   5.070   8.165 -0.4147  0.0155  0.3675
  188SAPI  H20S21666   6.747   5.161   8.233  1.7818  0.2047  1.3130
  188SAPI  H20T21667   6.644   5.053   8.345  0.2471 -1.2649 -0.5720
  188SAPI   C3321668   5.951   4.992   7.164  0.2016  1.0554  0.3082
  188SAPI   H3X21669   5.842   4.979   7.150  0.3443 -1.8070  1.2282
  188SAPI   H3Y21670   5.990   5.079   7.108 -1.6333  1.9390  0.3442
  188SAPI   C3421671   5.999   5.004   7.311 -0.3339  0.0297  0.6458
  188SAPI   H4X21672   5.961   5.097   7.359  0.7242  1.3024 -0.8651
  188SAPI   H4Y21673   6.109   5.013   7.306 -0.4765  1.3314 -1.0925
  188SAPI   C3521674   5.956   4.883   7.388  0.3410 -0.4420  0.5577
  188SAPI   H5X21675   6.000   4.787   7.352  2.8912  1.3508 -1.4686
  188SAPI   H5Y21676   5.846   4.866   7.378  0.5907 -1.6107 -0.4259
  188SAPI   C3621677   5.971   4.895   7.540 -0.5557 -0.4470  0.9208
  188SAPI   H6X21678   5.970   4.798   7.595 -1.3026 -0.3524  1.0833
  188SAPI   H6Y21679   5.890   4.957   7.584 -1.1010 -0.6237  0.1952
  188SAPI   C3721680   6.107   4.964   7.581 -0.3517  0.6460  0.5964
  188SAPI   H7X21681   6.143   5.050   7.520 -0.6955  0.0952 -0.4069
  188SAPI   H7Y21682   6.177   4.884   7.550  0.7301  0.7701  2.5627
  188SAPI   C3821683   6.124   4.980   7.733 -0.5820 -0.8283 -0.0426
  188SAPI   H8X21684   6.131   4.882   7.785  1.3344 -0.3948  0.6055
  188SAPI   H8Y21685   6.034   5.034   7.769 -0.6825  0.1690 -1.6949
  188SAPI   C3921686   6.252   5.055   7.768 -0.5153 -0.0910 -0.2591
  188SAPI   H9X21687   6.258   5.142   7.699 -0.6971 -0.0242 -0.1930
  188SAPI   H9Y21688   6.337   4.988   7.744 -0.5047  0.4513 -1.8390
  188SAPI  C31021689   6.263   5.097   7.914  0.0724  0.2660  0.4419
  188SAPI  H10X21690   6.365   5.122   7.948 -0.1809  0.5942  0.9583
  188SAPI  H10Y21691   6.227   5.012   7.975  1.7152 -1.7022 -1.1581
  188SAPI  C31121692   6.189   5.212   7.957 -0.2921 -0.7444  0.7330
  188SAPI  H11X21693   6.081   5.192   7.976 -0.5015  0.6292  1.0572
  188SAPI  H11Y21694   6.196   5.289   7.878  0.7246  0.6865  2.1684
  188SAPI  C31221695   6.243   5.268   8.091 -0.2831 -0.0750  0.8184
  188SAPI  H12X21696   6.180   5.355   8.118 -0.7325 -0.0081 -0.3704
  188SAPI  H12Y21697   6.349   5.297   8.073 -0.3960  1.4176  2.3465
  188SAPI  C31321698   6.243   5.163   8.199  0.2267  0.3253  0.0617
  188SAPI  H13X21699   6.319   5.086   8.175 -2.0230 -2.6035  1.7132
  188SAPI  H13Y21700   6.144   5.114   8.211  1.3577 -1.8664  1.1395
  188SAPI  C31421701   6.269   5.238   8.329  0.7011 -0.3518 -0.8220
  188SAPI  H14X21702   6.202   5.326   8.337  1.5068  0.1582  0.6689
  188SAPI  H14Y21703   6.370   5.284   8.329  0.5710  0.0392  1.3871
  188SAPI  C31521704   6.261   5.162   8.467  0.2799  0.7661  0.7407
  188SAPI  H15X21705   6.290   5.232   8.549  2.0076  0.3662  0.5011
  188SAPI  H15Y21706   6.324   5.071   8.475  0.4473  0.8575  0.4769
  188SAPI  C31621707   6.117   5.120   8.504  0.4606  0.0959  0.5206
  188SAPI  H16X21708   6.082   5.033   8.445  1.3993 -0.3396  0.5869
  188SAPI  H16Y21709   6.048   5.205   8.486 -0.6212 -0.3253  2.3800
  188SAPI  C31721710   6.087   5.080   8.650 -0.9522 -0.6720  0.0798
  188SAPI  H17X21711   6.105   5.175   8.705  0.4672 -0.6068 -0.4792
  188SAPI  H17Y21712   6.159   4.999   8.674 -2.0511 -1.6917  0.0344
  188SAPI  C31821713   5.954   5.026   8.682  0.3861 -0.3462  0.8208
  188SAPI  H18X21714   5.931   4.948   8.607  0.9695 -1.6501  1.9557
  188SAPI  H18Y21715   5.877   5.103   8.660  1.7016  0.7464 -0.0515
  188SAPI  H18Z21716   5.949   4.981   8.784  1.1692 -0.6364  0.7373
  189POPC     N21717   2.015   5.022  11.312 -0.0667 -0.9178 -0.5275
  189POPC   C1221718   1.966   4.953  11.186  0.2546  0.3635  0.3648
  189POPC  H12A21719   1.889   4.882  11.213  0.7538 -0.1492  0.4540
  189POPC  H12B21720   2.050   4.897  11.146 -2.2245 -2.3694 -1.4787
  189POPC   C1321721   1.904   5.094  11.379  0.0280 -0.4667  0.3122
  189POPC  H13A21722   1.839   5.143  11.307 -1.3937 -1.0663  1.1347
  189POPC  H13B21723   1.846   5.019  11.430  0.4418 -1.8199 -1.1253
  189POPC  H13C21724   1.937   5.166  11.452 -1.3087  3.7459 -2.7591
  189POPC   C1421725   2.068   4.939  11.423  0.2785 -0.5421  0.4106
  189POPC  H14A21726   2.000   4.861  11.453 -0.9559  0.3359 -0.0123
  189POPC  H14B21727   2.159   4.890  11.391 -0.3829 -1.9559  0.6349
  189POPC  H14C21728   2.090   5.000  11.509 -2.0350 -0.3191  0.8976
  189POPC   C1521729   2.121   5.122  11.271  0.4571 -0.0350 -0.1151
  189POPC  H15A21730   2.172   5.157  11.359  0.5061 -0.5625  0.0721
  189POPC  H15B21731   2.069   5.201  11.220  0.2258  1.6242  2.5069
  189POPC  H15C21732   2.201   5.077  11.214  1.3894 -1.9268  2.4659
  189POPC   C1121733   1.916   5.035  11.069 -0.0343 -0.2209  0.3444
  189POPC  H11A21734   1.928   4.968  10.981 -2.0544 -0.2875  0.0719
  189POPC  H11B21735   1.984   5.120  11.048 -1.0719  0.6493  0.4500
  189POPC     P21736   1.650   5.022  11.059  0.2757  0.6807 -0.1833
  189POPC   O1321737   1.538   5.105  11.108 -0.5308 -0.3286 -0.3956
  189POPC   O1421738   1.654   4.880  11.105  0.2800  0.4695  0.1438
  189POPC   O1221739   1.788   5.094  11.095  0.0747  0.3073 -0.2502
  189POPC   O1121740   1.643   5.025  10.901 -0.3472 -0.3227 -0.0001
  189POPC    C121741   1.612   5.150  10.838 -0.0278 -0.2767  0.1443
  189POPC    HA21742   1.652   5.234  10.897  0.6251 -0.0247 -0.6350
  189POPC    HB21743   1.502   5.157  10.822 -0.0336 -0.3147  0.1672
  189POPC    C221744   1.680   5.166  10.703 -0.3494  1.0669  0.0175
  189POPC    HS21745   1.668   5.269  10.663  4.1650  1.3397 -1.1604
  189POPC   O2121746   1.634   5.068  10.608  0.1248 -0.1217 -0.3973
  189POPC   C2121747   1.586   5.111  10.496  0.5661  0.6525 -0.2007
  189POPC   O2221748   1.570   5.225  10.458 -0.6997  0.2485  0.2222
  189POPC   C2221749   1.548   4.989  10.414 -0.4734 -0.0004 -0.5426
  189POPC   H2R21750   1.441   5.002  10.386 -0.3505 -1.8422 -2.1167
  189POPC   H2S21751   1.557   4.905  10.485  1.1998  0.3763 -0.2734
  189POPC    C321752   1.836   5.150  10.714  0.0352  0.9161 -0.2119
  189POPC    HX21753   1.845   5.041  10.736  2.3844  1.0102 -0.3760
  189POPC    HY21754   1.871   5.221  10.793 -0.1858  0.4147  0.3449
  189POPC   O3121755   1.898   5.177  10.583 -0.6042 -0.1061 -0.3746
  189POPC   C3121756   1.921   5.303  10.550  0.8253 -0.0700 -0.0054
  189POPC   O3221757   1.906   5.396  10.633 -0.5127  0.3910 -0.1196
  189POPC   C3221758   1.961   5.307  10.403  0.4035  1.0304  0.2325
  189POPC   H2X21759   1.893   5.233  10.357  1.5409 -0.4687  0.8735
  189POPC   H2Y21760   2.063   5.265  10.393 -0.9259 -2.1037 -1.1739
  189POPC   C2321761   1.640   4.971  10.295  0.6823 -0.5441 -0.7205
  189POPC   H3R21762   1.625   4.864  10.272  0.8477 -1.0942  1.5093
  189POPC   H3S21763   1.747   4.981  10.324  0.7992 -0.0260 -1.3020
  189POPC   C2421764   1.607   5.053  10.170  1.2710 -1.2268  0.7581
  189POPC   H4R21765   1.661   5.150  10.176 -2.5151  1.3532 -2.2370
  189POPC   H4S21766   1.497   5.067  10.173  1.4328  0.7441 -1.1177
  189POPC   C2521767   1.648   4.980  10.041  0.0849 -0.9302 -0.7321
  189POPC   H5R21768   1.587   4.888  10.034  0.2611 -1.3249  1.9662
  189POPC   H5S21769   1.753   4.949  10.058  0.1079  0.5364  2.4550
  189POPC   C2621770   1.613   5.059   9.910  0.1827 -0.1559 -0.6211
  189POPC   H6R21771   1.661   5.159   9.913 -0.6136  0.2803 -1.8530
  189POPC   H6S21772   1.506   5.088   9.908  0.6212  1.5429 -1.2050
  189POPC   C2721773   1.657   4.998   9.782 -0.5024  0.5878 -0.4393
  189POPC   H7R21774   1.623   5.054   9.693 -1.2638  0.2114 -0.3984
  189POPC   H7S21775   1.611   4.898   9.781  1.0707 -0.2513  1.9379
  189POPC   C2821776   1.810   4.979   9.778  0.2472  0.1079 -0.8453
  189POPC   H8R21777   1.827   4.922   9.684  0.7300 -2.6835  0.8284
  189POPC   H8S21778   1.845   4.910   9.858 -1.1840  0.4242  0.0861
  189POPC   C2921779   1.887   5.107   9.777 -0.1873  0.1963 -0.5698
  189POPC   H9121780   1.886   5.159   9.875 -1.4470  0.9451 -0.9597
  189POPC  C21021781   1.952   5.160   9.672 -0.0509  0.3354  0.5121
  189POPC  H10121782   2.002   5.258   9.671  2.3447 -0.8174 -0.3384
  189POPC  C21121783   1.945   5.096   9.530  0.2118 -0.1025 -0.0697
  189POPC  H11R21784   1.950   4.986   9.544  0.4588  0.0239  0.9206
  189POPC  H11S21785   2.034   5.141   9.482 -1.1144  2.6863 -0.1505
  189POPC  C21221786   1.827   5.130   9.451 -0.0258  0.3328 -0.1686
  189POPC  H12R21787   1.739   5.112   9.516 -1.2627  1.2934 -1.4951
  189POPC  H12S21788   1.814   5.066   9.362 -1.7818  0.4987 -0.0545
  189POPC  C21321789   1.819   5.281   9.414  0.0492 -0.6365 -0.0846
  189POPC  H13R21790   1.917   5.308   9.370  0.7251 -2.0246  0.5101
  189POPC  H13S21791   1.809   5.328   9.515  0.8285  0.1256 -0.3529
  189POPC  C21421792   1.712   5.325   9.316  0.1972 -0.3360 -0.0730
  189POPC  H14R21793   1.683   5.429   9.340 -0.8819 -0.2978 -1.4419
  189POPC  H14S21794   1.628   5.254   9.335  0.8411 -0.3899  3.2722
  189POPC  C21521795   1.742   5.306   9.167 -0.3149  0.3466  0.2577
  189POPC  H15R21796   1.648   5.326   9.110 -0.9979  3.4436  2.2243
  189POPC  H15S21797   1.780   5.202   9.156 -1.4269 -0.0244 -0.2665
  189POPC  C21621798   1.842   5.409   9.104  0.2384 -0.1457 -0.2404
  189POPC  H16R21799   1.949   5.384   9.120  0.6938  0.3479 -2.2652
  189POPC  H16S21800   1.831   5.509   9.152  0.9007 -0.8380  1.4372
  189POPC  C21721801   1.829   5.431   8.949 -0.7771 -0.2844  0.1419
  189POPC  H17R21802   1.891   5.516   8.913 -1.6414  1.1898  1.9284
  189POPC  H17S21803   1.722   5.454   8.928 -1.0995  0.6987  2.4722
  189POPC  C21821804   1.868   5.301   8.871 -0.3119  0.1365  0.5270
  189POPC  H18R21805   1.809   5.219   8.917  1.3306 -0.4013  1.7691
  189POPC  H18S21806   1.978   5.301   8.889 -0.5355  1.8961  2.2571
  189POPC  H18T21807   1.854   5.304   8.761  1.5351  2.1523  0.2750
  189POPC   C3321808   1.932   5.439  10.336 -0.0741 -0.5793 -0.9675
  189POPC   H3X21809   2.023   5.501  10.353 -0.6620 -0.3595  1.8677
  189POPC   H3Y21810   1.854   5.501  10.386  2.1630  1.3171  0.3808
  189POPC   C3421811   1.904   5.416  10.193 -0.1340  0.3727  0.5783
  189POPC   H4X21812   1.820   5.345  10.178  0.5531 -0.1892 -0.8906
  189POPC   H4Y21813   1.997   5.359  10.168 -0.9586 -1.2001  0.9357
  189POPC   C3521814   1.876   5.546  10.108  0.1016  0.5267  0.1916
  189POPC   H5X21815   1.961   5.617  10.117  1.7620 -1.2211 -0.8028
  189POPC   H5Y21816   1.783   5.598  10.139 -0.4583 -0.2700 -0.1360
  189POPC   C3621817   1.862   5.496   9.959  0.1645 -0.3096 -0.3923
  189POPC   H6X21818   1.758   5.458   9.946  0.5729 -1.6282  0.0442
  189POPC   H6Y21819   1.924   5.406   9.942 -0.8595 -1.4531  1.5367
  189POPC   C3721820   1.888   5.612   9.858 -0.2406  0.4421 -0.4177
  189POPC   H7X21821   1.984   5.657   9.889 -0.8293  1.8049 -0.5112
  189POPC   H7Y21822   1.807   5.687   9.873 -0.2516  0.5640 -1.0592
  189POPC   C3821823   1.919   5.576   9.712  0.1551 -0.1753  0.3682
  189POPC   H8X21824   1.835   5.508   9.685  0.5719 -0.9576  0.9739
  189POPC   H8Y21825   2.012   5.516   9.701 -0.9442 -1.5995 -2.1456
  189POPC   C3921826   1.923   5.706   9.621  0.7040 -0.4788  0.3563
  189POPC   H9X21827   2.018   5.761   9.640  0.3259  1.0712 -1.9198
  189POPC   H9Y21828   1.835   5.771   9.642 -0.6786 -1.9741 -0.5862
  189POPC  C31021829   1.919   5.683   9.468  0.1461 -0.4444  0.1860
  189POPC  H10X21830   1.840   5.611   9.439  0.1254 -0.4963  0.3637
  189POPC  H10Y21831   2.007   5.634   9.421 -0.4242  1.1585 -2.7961
  189POPC  C31121832   1.907   5.818   9.391 -0.4813  0.5589  0.9049
  189POPC  H11X21833   1.991   5.883   9.424 -2.6654  3.0211  2.0091
  189POPC  H11Y21834   1.813   5.862   9.429  0.1742  0.6795  2.4604
  189POPC  C31221835   1.924   5.801   9.235  0.0973 -0.0908 -0.2764
  189POPC  H12X21836   1.897   5.895   9.183 -2.1778  0.4076  1.6423
  189POPC  H12Y21837   1.875   5.712   9.189  0.0092  0.3704 -1.1013
  189POPC  C31321838   2.068   5.775   9.180 -0.3283 -0.1234 -0.5059
  189POPC  H13X21839   2.105   5.678   9.220 -1.5913 -0.6728 -0.6049
  189POPC  H13Y21840   2.139   5.857   9.203 -1.2510  0.2750  1.0722
  189POPC  C31421841   2.074   5.756   9.028 -0.1068  0.3295 -0.3208
  189POPC  H14X21842   2.007   5.828   8.976 -0.6752 -0.5985 -0.9284
  189POPC  H14Y21843   2.058   5.649   9.001  0.2543  0.0827  0.4052
  189POPC  C31521844   2.218   5.783   8.972 -0.0670  0.9921  0.0133
  189POPC  H15X21845   2.293   5.710   9.012 -2.3820 -2.8688 -2.1054
  189POPC  H15Y21846   2.252   5.881   9.011  1.5208  0.2325  0.6650
  189POPC  C31621847   2.235   5.768   8.826  0.0727 -0.6795  0.6050
  189POPC  H16X21848   2.155   5.823   8.772 -0.3035  0.4676  2.2763
  189POPC  H16Y21849   2.236   5.663   8.787  0.6628 -1.0932  1.6883
  189POPC  H16Z21850   2.330   5.820   8.803 -1.0131  1.5513  0.9714
  190POPC     N21851   4.495   2.184  11.222 -0.3045  0.3119  0.0054
  190POPC   C1221852   4.558   2.264  11.109  0.0264 -0.9087 -0.0737
  190POPC  H12A21853   4.639   2.323  11.151 -0.7692 -0.8660  1.4876
  190POPC  H12B21854   4.489   2.340  11.077  0.9535  1.1004  2.3276
  190POPC   C1321855   4.359   2.139  11.175 -0.4314  0.0141 -0.7384
  190POPC  H13A21856   4.352   2.089  11.080  1.3371  0.3552 -1.0894
  190POPC  H13B21857   4.324   2.062  11.242 -0.7897  0.4807 -0.3864
  190POPC  H13C21858   4.293   2.224  11.174  0.4108  0.7199  0.4095
  190POPC   C1421859   4.573   2.061  11.263 -0.1372  0.4427 -0.1526
  190POPC  H14A21860   4.670   2.097  11.291 -1.2357  3.1682  0.4895
  190POPC  H14B21861   4.515   2.017  11.343 -0.9429  2.1860  0.2697
  190POPC  H14C21862   4.577   1.994  11.178  0.4822 -0.9968  0.9626
  190POPC   C1521863   4.487   2.258  11.355  0.0672 -0.0564  0.6172
  190POPC  H15A21864   4.584   2.291  11.388  0.0879  1.2387 -0.6421
  190POPC  H15B21865   4.443   2.193  11.430 -0.3317  0.4979  0.8697
  190POPC  H15C21866   4.428   2.347  11.339  1.1855  0.5001 -0.5967
  190POPC   C1121867   4.617   2.192  10.982 -0.3162  0.1084  0.8485
  190POPC  H11A21868   4.640   2.261  10.897 -0.0411 -0.5697  0.3611
  190POPC  H11B21869   4.534   2.128  10.946  0.3760  0.6238 -1.9473
  190POPC     P21870   4.868   2.160  11.048  0.0539  0.2494  0.1346
  190POPC   O1321871   4.955   2.043  11.051 -0.1947 -0.4562 -0.7454
  190POPC   O1421872   4.852   2.237  11.170 -0.1551 -0.7333 -0.5672
  190POPC   O1221873   4.728   2.105  11.009 -0.4548  0.3047  0.8282
  190POPC   O1121874   4.897   2.265  10.933  0.3364 -0.7533  0.5241
  190POPC    C121875   4.967   2.225  10.817 -0.1158  0.2779 -1.0889
  190POPC    HA21876   5.033   2.137  10.837 -2.1469 -1.0424  0.2535
  190POPC    HB21877   5.045   2.298  10.786  0.7273  0.1981  0.7288
  190POPC    C221878   4.879   2.166  10.700  0.0550 -1.0597  0.6733
  190POPC    HS21879   4.935   2.189  10.607  1.6750  2.0898  2.2779
  190POPC   O2121880   4.756   2.236  10.693 -0.4054 -0.6194 -0.3366
  190POPC   C2121881   4.743   2.339  10.610  0.6652  0.5647  1.2419
  190POPC   O2221882   4.838   2.392  10.550  0.8525  0.2403 -0.0471
  190POPC   C2221883   4.590   2.377  10.611 -0.3347  0.6294  0.3819
  190POPC   H2R21884   4.584   2.478  10.564  1.7768 -0.4256 -2.4620
  190POPC   H2S21885   4.569   2.398  10.718  2.4233 -0.8121  1.3290
  190POPC    C321886   4.837   2.022  10.713 -0.2117  0.6234 -0.3127
  190POPC    HX21887   4.759   2.015  10.792  0.6722 -1.2210  0.4601
  190POPC    HY21888   4.919   1.957  10.752 -1.0390 -0.6861 -0.6716
  190POPC   O3121889   4.780   1.968  10.593 -0.1161  0.1913  0.3068
  190POPC   C3121890   4.865   1.914  10.506  0.2092  0.0155  0.4330
  190POPC   O3221891   4.988   1.904  10.530  0.2110 -0.0641  0.4928
  190POPC   C3221892   4.786   1.859  10.388 -0.2124 -0.0246  0.1900
  190POPC   H2X21893   4.684   1.902  10.387  0.0781  0.7140 -1.8417
  190POPC   H2Y21894   4.795   1.749  10.403 -0.8230 -0.1538 -0.3419
  190POPC   C2321895   4.491   2.280  10.550 -0.3079 -0.1613 -0.3100
  190POPC   H3R21896   4.404   2.295  10.617  1.7486  0.6597  2.3769
  190POPC   H3S21897   4.533   2.179  10.566  3.9027  1.2414 -0.9450
  190POPC   C2421898   4.472   2.283  10.403 -0.8252 -0.0200  0.3749
  190POPC   H4R21899   4.451   2.388  10.374 -0.4767  0.2299  1.0098
  190POPC   H4S21900   4.393   2.214  10.367  2.5213 -4.1681  0.1210
  190POPC   C2521901   4.592   2.252  10.310 -0.2082  0.3713  0.2385
  190POPC   H5R21902   4.649   2.162  10.340 -0.3291  1.1450  3.1862
  190POPC   H5S21903   4.669   2.332  10.310  0.9222 -0.6380 -1.9107
  190POPC   C2621904   4.554   2.266  10.156  0.1401  0.1801 -0.3882
  190POPC   H6R21905   4.511   2.368  10.147 -0.0255  0.3157  1.4651
  190POPC   H6S21906   4.476   2.191  10.131  0.1863 -0.5905  1.6052
  190POPC   C2721907   4.678   2.241  10.070  0.3085  0.0660 -0.3720
  190POPC   H7R21908   4.720   2.148  10.114 -0.8497 -0.8114 -1.0536
  190POPC   H7S21909   4.762   2.311  10.086  1.1704 -0.5984 -1.8064
  190POPC   C2821910   4.648   2.236   9.921 -0.4954 -0.2064  0.2362
  190POPC   H8R21911   4.557   2.172   9.925 -0.7862  0.1885  0.0308
  190POPC   H8S21912   4.736   2.196   9.866  0.0013 -0.3457  1.1171
  190POPC   C2921913   4.617   2.379   9.862 -0.3032  0.6469 -0.5145
  190POPC   H9121914   4.678   2.451   9.918  1.5208 -1.4369  0.3146
  190POPC  C21021915   4.539   2.413   9.757 -0.5138  0.2010 -0.4014
  190POPC  H10121916   4.527   2.517   9.726  1.8820  0.4470 -0.6985
  190POPC  C21121917   4.467   2.309   9.670  0.1286  0.7862  0.3573
  190POPC  H11R21918   4.358   2.325   9.673  0.0513  0.2164  0.7099
  190POPC  H11S21919   4.492   2.206   9.704 -3.2176 -0.0367  0.6569
  190POPC  C21221920   4.507   2.314   9.518  0.1868 -0.3612  0.6664
  190POPC  H12R21921   4.463   2.228   9.462 -0.3546  0.7398 -0.6587
  190POPC  H12S21922   4.616   2.294   9.511  0.2209 -0.6066  1.7205
  190POPC  C21321923   4.464   2.440   9.438  0.2455 -0.2878  0.5704
  190POPC  H13R21924   4.492   2.538   9.482  1.9019 -1.5389  2.4422
  190POPC  H13S21925   4.353   2.452   9.438  0.3061  0.4173  1.3617
  190POPC  C21421926   4.500   2.431   9.288  0.0497 -0.0181 -0.3946
  190POPC  H14R21927   4.494   2.323   9.263  0.8354 -0.2763  0.4656
  190POPC  H14S21928   4.599   2.478   9.279 -0.0049  0.4212  1.0116
  190POPC  C21521929   4.400   2.510   9.200  0.2369  0.1516 -0.6620
  190POPC  H15R21930   4.397   2.618   9.229  1.4038 -0.6336  3.0315
  190POPC  H15S21931   4.300   2.474   9.231  0.3502  0.2410 -0.1796
  190POPC  C21621932   4.405   2.470   9.057  0.3922 -0.3164  0.4061
  190POPC  H16R21933   4.402   2.360   9.052 -0.7410 -0.2284 -2.2244
  190POPC  H16S21934   4.492   2.516   9.005 -0.7059  1.2343 -0.1237
  190POPC  C21721935   4.287   2.524   8.978  0.9222 -0.9069  0.4362
  190POPC  H17R21936   4.223   2.592   9.039 -1.1842 -0.2839 -2.2827
  190POPC  H17S21937   4.222   2.438   8.953 -1.5883  0.4487  1.9434
  190POPC  C21821938   4.332   2.611   8.868 -0.5002  0.3565 -0.3150
  190POPC  H18R21939   4.400   2.689   8.910  0.7006 -1.4521  1.2462
  190POPC  H18S21940   4.244   2.660   8.820 -1.0507 -0.5858 -0.2934
  190POPC  H18T21941   4.364   2.546   8.784 -0.3387  0.6152 -0.4537
  190POPC   C3321942   4.848   1.892  10.245  0.0619  0.4720  0.5757
  190POPC   H3X21943   4.933   1.823  10.224 -2.2720 -2.6629  0.8208
  190POPC   H3Y21944   4.882   1.997  10.235  1.8674 -0.1350 -0.2157
  190POPC   C3421945   4.745   1.871  10.142  0.7398 -0.0398  0.1433
  190POPC   H4X21946   4.670   1.953  10.146  0.6967 -0.1283  3.0401
  190POPC   H4Y21947   4.687   1.778  10.159  1.3704  0.0328  3.2022
  190POPC   C3521948   4.817   1.885  10.004  0.4587 -0.3847  0.1937
  190POPC   H5X21949   4.903   1.818   9.983  0.4278 -0.1007 -0.8807
  190POPC   H5Y21950   4.840   1.993   9.998 -0.8286 -0.0646  0.6360
  190POPC   C3621951   4.725   1.855   9.893  0.3304  0.3416 -0.4438
  190POPC   H6X21952   4.639   1.923   9.909  0.4651  0.2398  0.7680
  190POPC   H6Y21953   4.695   1.748   9.903  2.2881  0.0061  4.4190
  190POPC   C3721954   4.779   1.896   9.754 -0.6868 -0.2333  0.2076
  190POPC   H7X21955   4.872   1.837   9.740  0.8799  1.9847  0.7983
  190POPC   H7Y21956   4.805   2.004   9.747  2.1863 -0.9225 -1.2964
  190POPC   C3821957   4.685   1.872   9.640  0.0950 -0.0483  0.1466
  190POPC   H8X21958   4.633   1.964   9.605  0.8962 -0.2571 -1.6637
  190POPC   H8Y21959   4.605   1.798   9.663 -0.5725  0.8508  0.7756
  190POPC   C3921960   4.764   1.821   9.509  0.3164  0.5129 -0.1703
  190POPC   H9X21961   4.865   1.866   9.501  0.1655  1.0735  0.9255
  190POPC   H9Y21962   4.698   1.844   9.422 -0.2064 -0.4356 -0.0455
  190POPC  C31021963   4.768   1.670   9.518 -0.5946 -0.3321  0.1627
  190POPC  H10X21964   4.667   1.641   9.480 -0.3637 -0.4804 -0.3493
  190POPC  H10Y21965   4.766   1.633   9.622  1.5252 -3.0352 -0.6413
  190POPC  C31121966   4.873   1.600   9.429  0.1788  1.0316 -0.3084
  190POPC  H11X21967   4.888   1.494   9.458 -1.7092  0.1769 -2.1634
  190POPC  H11Y21968   4.967   1.651   9.459 -1.2886  2.0973  2.9872
  190POPC  C31221969   4.846   1.600   9.275 -0.5522 -0.6102 -0.2524
  190POPC  H12X21970   4.861   1.702   9.234  3.7702 -1.0162 -0.0766
  190POPC  H12Y21971   4.741   1.565   9.270 -0.6460 -0.1873 -1.5416
  190POPC  C31321972   4.921   1.496   9.187 -0.2751 -0.0597 -0.5039
  190POPC  H13X21973   4.885   1.402   9.234  0.6497  0.3933  1.1822
  190POPC  H13Y21974   5.032   1.500   9.195 -0.0750 -2.9619 -0.7061
  190POPC  C31421975   4.881   1.502   9.038  0.4989 -0.3102 -0.2014
  190POPC  H14X21976   4.915   1.599   8.997 -1.7592  1.5463  2.0636
  190POPC  H14Y21977   4.771   1.520   9.037  0.4537  0.1796  3.3561
  190POPC  C31521978   4.905   1.377   8.953  0.5041  0.2203 -0.3806
  190POPC  H15X21979   4.864   1.392   8.851 -1.7150 -0.4461  0.3667
  190POPC  H15Y21980   4.838   1.296   8.988 -0.5568  1.6782  1.1969
  190POPC  C31621981   5.053   1.326   8.955 -0.7802 -1.5100  0.2180
  190POPC  H16X21982   5.100   1.299   9.052 -0.4310  1.0210  0.8193
  190POPC  H16Y21983   5.116   1.404   8.908 -1.6575 -0.2669  1.0129
  190POPC  H16Z21984   5.051   1.237   8.889 -2.1034 -0.3668 -1.3974
  191POPC     N21985   2.600   2.814   5.947 -0.1123  0.6821  0.9479
  191POPC   C1221986   2.546   2.844   6.087 -0.3758 -0.6854  0.3432
  191POPC  H12A21987   2.483   2.766   6.126 -1.5280 -0.9246 -1.8466
  191POPC  H12B21988   2.473   2.923   6.080 -0.5027 -0.6358  1.8980
  191POPC   C1321989   2.664   2.943   5.897 -0.5587  0.0674 -0.3564
  191POPC  H13A21990   2.716   2.934   5.803  0.2937  2.6069 -0.1844
  191POPC  H13B21991   2.593   3.023   5.885 -0.0673  0.4531 -0.6971
  191POPC  H13C21992   2.739   2.973   5.968 -0.2085  0.1513 -0.7614
  191POPC   C1421993   2.701   2.693   5.953 -0.1777 -0.4836 -0.1496
  191POPC  H14A21994   2.652   2.601   5.980 -1.2808  0.3680  0.8427
  191POPC  H14B21995   2.754   2.679   5.859  0.3527  0.0652  0.0613
  191POPC  H14C21996   2.770   2.710   6.034  0.4918 -2.2955 -0.2993
  191POPC   C1521997   2.493   2.779   5.844  1.2231 -0.3996  0.0695
  191POPC  H15A21998   2.445   2.688   5.877 -1.0610  0.6917 -0.0152
  191POPC  H15B21999   2.527   2.773   5.742 -3.4352  1.0968 -1.8599
  191POPC  H15C22000   2.409   2.847   5.846  0.8746 -0.7410  3.7872
  191POPC   C1122001   2.651   2.876   6.193 -0.0133 -0.1646  0.1435
  191POPC  H11A22002   2.610   2.938   6.276  0.0748 -0.5957  0.5143
  191POPC  H11B22003   2.736   2.939   6.159 -1.0176  0.9602 -0.3381
  191POPC     P22004   2.607   2.654   6.337 -0.0114  0.5418 -0.2155
  191POPC   O1322005   2.695   2.543   6.382 -0.1285  0.1793  0.6861
  191POPC   O1422006   2.482   2.624   6.266  0.2923 -0.4105  0.4416
  191POPC   O1222007   2.694   2.755   6.249 -0.8088 -0.6655 -0.0081
  191POPC   O1122008   2.574   2.742   6.457 -0.2259  0.3577  0.0279
  191POPC    C122009   2.662   2.830   6.532 -0.3447 -0.0953 -0.0292
  191POPC    HA22010   2.621   2.933   6.539 -1.1274 -0.4436  0.7629
  191POPC    HB22011   2.766   2.833   6.493 -1.0700 -0.8212 -2.1574
  191POPC    C222012   2.671   2.792   6.687  0.7940 -0.0611  0.2150
  191POPC    HS22013   2.707   2.687   6.682  0.3926 -0.2439  1.0133
  191POPC   O2122014   2.537   2.811   6.743 -0.5121  0.2953  0.1386
  191POPC   C2122015   2.503   2.732   6.849 -0.8360 -0.7154 -0.3807
  191POPC   O2222016   2.567   2.642   6.897  0.0770 -0.5662  0.1835
  191POPC   C2222017   2.365   2.765   6.895 -0.9670  0.4300  0.0642
  191POPC   H2R22018   2.319   2.680   6.949  0.8333 -0.9766 -0.5084
  191POPC   H2S22019   2.300   2.792   6.810 -1.6836  2.3915  1.1765
  191POPC    C322020   2.777   2.878   6.765  0.0078 -0.0749  0.5457
  191POPC    HX22021   2.727   2.978   6.763 -0.2642 -0.1889 -2.5857
  191POPC    HY22022   2.871   2.910   6.715 -0.6193  1.2259  0.1312
  191POPC   O3122023   2.797   2.833   6.900  0.2131  0.3997 -0.0152
  191POPC   C3122024   2.872   2.736   6.925 -0.3012 -0.0328  0.2222
  191POPC   O3222025   2.938   2.672   6.841  0.0663  0.3665 -0.0424
  191POPC   C3222026   2.882   2.697   7.074 -0.2783 -0.3860 -0.3344
  191POPC   H2X22027   2.986   2.664   7.093  0.1728  0.6620 -0.9158
  191POPC   H2Y22028   2.821   2.607   7.098  2.0352 -1.5877  1.3763
  191POPC   C2322029   2.368   2.886   6.994  0.0979  0.1886 -1.0408
  191POPC   H3R22030   2.265   2.922   7.015  1.0154  0.9241  3.0047
  191POPC   H3S22031   2.422   2.967   6.940 -0.5945  0.5029 -1.2707
  191POPC   C2422032   2.415   2.847   7.137 -0.3393 -1.2823  0.0360
  191POPC   H4R22033   2.498   2.773   7.143 -0.0415 -0.9800 -0.3225
  191POPC   H4S22034   2.339   2.807   7.207  0.5470 -1.3608  0.9783
  191POPC   C2522035   2.463   2.977   7.209  1.4328 -0.1612  0.2476
  191POPC   H5R22036   2.508   3.052   7.140 -1.5964  1.5993  0.0198
  191POPC   H5S22037   2.530   2.951   7.294  0.7812 -0.2896  0.7300
  191POPC   C2622038   2.341   3.063   7.264  0.3461  0.5135  0.1165
  191POPC   H6R22039   2.278   2.997   7.327 -0.1557 -0.4756 -1.3702
  191POPC   H6S22040   2.283   3.097   7.176  2.1819 -1.2240 -1.8908
  191POPC   C2722041   2.383   3.179   7.356 -0.8559 -0.2348 -0.2122
  191POPC   H7R22042   2.288   3.237   7.366 -3.2197 -4.0836  3.0751
  191POPC   H7S22043   2.461   3.247   7.317 -1.0677  0.0196 -0.2000
  191POPC   C2822044   2.409   3.120   7.499 -0.1923 -0.7332 -0.9462
  191POPC   H8R22045   2.489   3.043   7.493 -1.8564 -2.6961  0.7457
  191POPC   H8S22046   2.308   3.097   7.538 -0.2902  2.3629  0.9937
  191POPC   C2922047   2.487   3.222   7.578  0.4842 -0.3752 -0.0271
  191POPC   H9122048   2.563   3.270   7.515  1.4961 -0.0902  1.3779
  191POPC  C21022049   2.480   3.258   7.712 -0.5371  0.0841  0.2328
  191POPC  H10122050   2.554   3.334   7.741 -0.5883  0.9932 -1.8490
  191POPC  C21122051   2.390   3.206   7.820 -0.4857  0.5227  0.0978
  191POPC  H11R22052   2.320   3.135   7.770 -1.2851  1.2252  0.2069
  191POPC  H11S22053   2.332   3.289   7.864 -1.6375  1.0074 -2.1502
  191POPC  C21222054   2.468   3.141   7.932  0.5112 -0.5211  0.1041
  191POPC  H12R22055   2.537   3.058   7.906  1.6128  0.0173  1.2113
  191POPC  H12S22056   2.398   3.098   8.008 -0.0534 -2.5556 -1.4599
  191POPC  C21322057   2.549   3.241   8.011  0.3151  0.1742 -0.2166
  191POPC  H13R22058   2.487   3.331   8.030 -3.7110 -2.2540 -0.6414
  191POPC  H13S22059   2.639   3.272   7.953  0.7301 -0.2679  0.1871
  191POPC  C21422060   2.589   3.175   8.149 -0.7190  0.1417 -0.6097
  191POPC  H14R22061   2.667   3.100   8.124 -2.2197 -2.5370  2.1030
  191POPC  H14S22062   2.500   3.128   8.196  0.6481 -0.9803  0.9732
  191POPC  C21522063   2.644   3.277   8.249  0.4076 -0.0948 -0.7789
  191POPC  H15R22064   2.563   3.348   8.277  1.7467  0.8760  0.8544
  191POPC  H15S22065   2.724   3.345   8.215  0.4229  0.9497  1.1493
  191POPC  C21622066   2.687   3.214   8.383  0.2395 -0.3448  0.2131
  191POPC  H16R22067   2.786   3.163   8.380  0.7955  0.6184  1.5047
  191POPC  H16S22068   2.619   3.132   8.416  0.5515  0.4988  3.2192
  191POPC  C21722069   2.694   3.300   8.509  0.7377  0.2852 -0.8249
  191POPC  H17R22070   2.722   3.226   8.587 -0.5604 -0.1509 -0.7534
  191POPC  H17S22071   2.595   3.345   8.531  0.8915  0.6787 -0.9106
  191POPC  C21822072   2.792   3.416   8.496  0.0784  0.8982 -0.4760
  191POPC  H18R22073   2.804   3.470   8.593 -1.8918 -0.7619  0.7560
  191POPC  H18S22074   2.771   3.481   8.408 -0.1976  1.2504 -0.1545
  191POPC  H18T22075   2.887   3.369   8.464 -0.1221  0.1569  0.0009
  191POPC   C3322076   2.851   2.797   7.182 -0.4714 -0.6656 -0.0984
  191POPC   H3X22077   2.765   2.859   7.149  1.4138  1.3535 -1.5297
  191POPC   H3Y22078   2.926   2.872   7.213 -0.4826  0.3415 -2.3623
  191POPC   C3422079   2.801   2.726   7.305 -0.9487 -0.1739  0.6465
  191POPC   H4X22080   2.871   2.646   7.338 -1.6866 -0.4664  1.5233
  191POPC   H4Y22081   2.704   2.676   7.285  0.5062 -2.1236 -2.2093
  191POPC   C3522082   2.785   2.816   7.426  0.2196 -0.3011  0.2221
  191POPC   H5X22083   2.706   2.891   7.405 -0.1419 -0.8919 -0.5529
  191POPC   H5Y22084   2.881   2.865   7.452 -0.8643  1.1406  1.7188
  191POPC   C3622085   2.738   2.739   7.545  0.8354 -0.8783 -0.3846
  191POPC   H6X22086   2.820   2.676   7.588 -1.0105 -2.8414  0.4289
  191POPC   H6Y22087   2.658   2.665   7.523 -0.4152 -0.8013  3.2641
  191POPC   C3722088   2.689   2.834   7.661  0.2082  0.3490  0.6801
  191POPC   H7X22089   2.583   2.866   7.649  0.1726  1.0045  2.4387
  191POPC   H7Y22090   2.739   2.934   7.658  0.4700  0.2354  1.1590
  191POPC   C3822091   2.690   2.761   7.790 -0.2521  0.2955  0.5144
  191POPC   H8X22092   2.676   2.834   7.873 -2.4888  1.5385 -0.8550
  191POPC   H8Y22093   2.794   2.724   7.804  0.5765  1.1824 -2.4245
  191POPC   C3922094   2.582   2.647   7.795  0.1608 -0.5295  0.1806
  191POPC   H9X22095   2.618   2.568   7.726  0.0391 -1.7256  1.4484
  191POPC   H9Y22096   2.485   2.686   7.758 -0.8943 -1.2607  2.0575
  191POPC  C31022097   2.553   2.595   7.938 -0.1334 -0.3828 -0.3455
  191POPC  H10X22098   2.472   2.520   7.930  0.9446 -1.8015  1.3205
  191POPC  H10Y22099   2.526   2.672   8.014  0.4408 -1.2581  0.7783
  191POPC  C31122100   2.673   2.513   7.985 -0.2467  0.1184  0.2208
  191POPC  H11X22101   2.760   2.581   7.995  1.2179 -1.4431 -1.2377
  191POPC  H11Y22102   2.716   2.437   7.917  5.2882  2.0018  1.1607
  191POPC  C31222103   2.651   2.456   8.122 -0.0954 -0.3885 -0.3240
  191POPC  H12X22104   2.558   2.395   8.127  1.0452 -2.2273 -0.8039
  191POPC  H12Y22105   2.635   2.551   8.177  0.7499 -0.6122  0.3223
  191POPC  C31322106   2.771   2.370   8.172 -0.6774  0.7520 -0.3615
  191POPC  H13X22107   2.855   2.442   8.186 -0.4391  0.8100 -1.8898
  191POPC  H13Y22108   2.788   2.294   8.093 -0.4569  1.0260 -0.5847
  191POPC  C31422109   2.727   2.294   8.297 -0.1427 -0.5892 -0.7408
  191POPC  H14X22110   2.656   2.214   8.268 -1.0243 -0.2967  0.5461
  191POPC  H14Y22111   2.680   2.354   8.377  0.0744 -0.5943 -0.6092
  191POPC  C31522112   2.854   2.217   8.353 -0.0715  0.8629 -0.8735
  191POPC  H15X22113   2.894   2.151   8.273  2.0903 -0.4064  1.1589
  191POPC  H15Y22114   2.811   2.156   8.435  0.4309  0.3912 -0.9571
  191POPC  C31622115   2.971   2.298   8.407  0.0713 -0.2260  0.1066
  191POPC  H16X22116   3.031   2.346   8.327 -1.4446  0.2326 -0.8184
  191POPC  H16Y22117   3.037   2.231   8.465  0.7495  1.2949  1.1526
  191POPC  H16Z22118   2.937   2.381   8.474 -0.1825  0.4984 -0.8973
  192POPC     N22119   2.290   5.665   5.760  0.2355 -0.3587  0.0663
  192POPC   C1222120   2.245   5.792   5.831  0.0556 -0.4348 -0.1331
  192POPC  H12A22121   2.150   5.823   5.788  0.8116  1.9492 -0.2557
  192POPC  H12B22122   2.309   5.872   5.796 -1.2900  0.7616  0.0248
  192POPC   C1322123   2.333   5.692   5.620 -0.3499 -0.0368 -0.7901
  192POPC  H13A22124   2.349   5.602   5.562 -1.9422  0.6002 -2.3116
  192POPC  H13B22125   2.261   5.749   5.564 -0.1782  0.6459 -0.3187
  192POPC  H13C22126   2.426   5.747   5.623  0.2429 -0.9394 -1.7212
  192POPC   C1422127   2.410   5.612   5.837 -0.4508 -0.4153 -0.1129
  192POPC  H14A22128   2.484   5.689   5.856 -1.4796  0.6892 -0.4283
  192POPC  H14B22129   2.371   5.564   5.925 -0.7626  1.2496  0.7050
  192POPC  H14C22130   2.456   5.536   5.776  1.2961  0.6618 -0.2189
  192POPC   C1522131   2.180   5.560   5.763 -0.5859 -0.2748 -0.0743
  192POPC  H15A22132   2.145   5.552   5.864 -0.0821 -0.4399  0.0886
  192POPC  H15B22133   2.209   5.469   5.714 -0.1099  0.4712 -1.2301
  192POPC  H15C22134   2.096   5.595   5.704  0.8624 -0.8976 -2.6821
  192POPC   C1122135   2.226   5.805   5.984 -0.7244 -0.2077 -0.9245
  192POPC  H11A22136   2.177   5.714   6.025  1.3671 -0.1591  2.0160
  192POPC  H11B22137   2.160   5.890   6.012 -1.9131 -1.3350 -0.2076
  192POPC     P22138   2.449   5.933   6.028 -0.6300 -0.2245 -0.1383
  192POPC   O1322139   2.376   6.040   5.952 -0.0602  0.0625 -0.2912
  192POPC   O1422140   2.577   5.883   5.968  0.1982  0.3814  0.5086
  192POPC   O1222141   2.357   5.810   6.050  0.0853 -0.0926  0.2733
  192POPC   O1122142   2.477   5.983   6.171 -0.1673  0.2095 -0.3617
  192POPC    C122143   2.368   6.013   6.266 -0.8377  0.2311  0.0423
  192POPC    HA22144   2.334   5.918   6.311 -1.7296  0.8972  0.8265
  192POPC    HB22145   2.285   6.053   6.204  0.2171 -0.0654 -1.6297
  192POPC    C222146   2.401   6.122   6.376 -0.7074 -0.1708 -0.3216
  192POPC    HS22147   2.456   6.207   6.331  0.9667 -1.1619 -0.2354
  192POPC   O2122148   2.474   6.060   6.478  0.0986  0.0495  0.4312
  192POPC   C2122149   2.559   6.138   6.557 -0.2185 -0.0271  0.2634
  192POPC   O2222150   2.602   6.249   6.521 -0.0377  0.5016 -0.0832
  192POPC   C2222151   2.608   6.056   6.680 -0.3882 -0.2292  0.0877
  192POPC   H2R22152   2.515   6.019   6.728 -2.4767  1.2369 -2.5575
  192POPC   H2S22153   2.663   6.131   6.740 -0.5935 -0.9328  1.1885
  192POPC    C322154   2.255   6.179   6.420 -0.4549  0.3234 -0.6164
  192POPC    HX22155   2.207   6.213   6.326 -0.6048 -2.1185 -1.4791
  192POPC    HY22156   2.266   6.276   6.473 -0.2983 -0.4911  0.8969
  192POPC   O3122157   2.180   6.076   6.483  0.1296 -0.4969 -0.2686
  192POPC   C3122158   2.179   6.082   6.612 -0.2113 -0.3331  0.1534
  192POPC   O3222159   2.254   6.152   6.680  0.8287  0.4105  0.5137
  192POPC   C3222160   2.058   6.001   6.664 -0.2636  0.3277  0.1190
  192POPC   H2X22161   2.026   5.930   6.584 -1.4119  0.3078  0.5701
  192POPC   H2Y22162   1.972   6.071   6.673 -0.4720  0.1809 -0.6699
  192POPC   C2322163   2.688   5.934   6.644  0.5831 -0.8030 -0.3525
  192POPC   H3R22164   2.744   5.946   6.549 -2.4939 -1.6677 -2.4264
  192POPC   H3S22165   2.605   5.864   6.622 -0.8260  0.0943  1.7666
  192POPC   C2422166   2.772   5.876   6.757  0.2834 -0.0403 -0.6428
  192POPC   H4R22167   2.855   5.950   6.755 -0.8403  1.2689 -0.0245
  192POPC   H4S22168   2.807   5.772   6.737 -1.2386 -0.6243 -0.4427
  192POPC   C2522169   2.702   5.881   6.899 -0.1277  0.3535 -0.6906
  192POPC   H5R22170   2.653   5.979   6.916 -2.3006 -0.8098  0.0295
  192POPC   H5S22171   2.779   5.881   6.979 -1.4556  2.3203  0.6819
  192POPC   C2622172   2.597   5.766   6.918  0.1455 -0.5114  0.4767
  192POPC   H6R22173   2.654   5.671   6.910 -0.2078 -1.0984  3.6159
  192POPC   H6S22174   2.522   5.768   6.835  2.0986 -0.3567 -1.3593
  192POPC   C2722175   2.522   5.766   7.048 -0.5957  0.2091 -0.4637
  192POPC   H7R22176   2.463   5.672   7.034  0.4366 -0.0190 -4.4560
  192POPC   H7S22177   2.443   5.844   7.042  0.9391  1.6818 -2.9011
  192POPC   C2822178   2.606   5.771   7.172  0.4754 -0.5339 -0.1891
  192POPC   H8R22179   2.679   5.854   7.172  1.0718 -1.0226 -1.6446
  192POPC   H8S22180   2.666   5.677   7.178  0.3822 -0.4938  2.9777
  192POPC   C2922181   2.512   5.785   7.291 -0.1859  0.3445 -0.2380
  192POPC   H9122182   2.405   5.803   7.272 -0.1265  0.9293 -0.0384
  192POPC  C21022183   2.547   5.765   7.418 -0.5578  0.8025 -0.5643
  192POPC  H10122184   2.472   5.784   7.497  0.7173  0.0933  0.8617
  192POPC  C21122185   2.686   5.722   7.462  0.0314  0.5787  0.1792
  192POPC  H11R22186   2.727   5.810   7.516  1.4778 -0.7518  1.3196
  192POPC  H11S22187   2.741   5.696   7.369 -3.2742 -0.3113 -1.6968
  192POPC  C21222188   2.687   5.595   7.558  0.5279 -0.8068 -0.8592
  192POPC  H12R22189   2.791   5.555   7.555  1.0476  0.4808 -0.7085
  192POPC  H12S22190   2.629   5.519   7.502 -0.2151 -1.2043  0.4220
  192POPC  C21322191   2.636   5.605   7.706 -0.5275 -0.6868  0.0317
  192POPC  H13R22192   2.529   5.637   7.711  0.1487  1.6452  1.6639
  192POPC  H13S22193   2.696   5.688   7.750  0.5070 -1.1371 -0.5157
  192POPC  C21422194   2.657   5.474   7.783  0.2896  0.3611 -0.8084
  192POPC  H14R22195   2.761   5.435   7.774  0.0632 -0.5296  0.1707
  192POPC  H14S22196   2.589   5.397   7.740 -0.4103  0.6113 -0.1842
  192POPC  C21522197   2.637   5.500   7.933  0.1486  1.0439  0.6497
  192POPC  H15R22198   2.536   5.523   7.974  1.7948  0.8868  5.5233
  192POPC  H15S22199   2.702   5.587   7.961 -0.6554  2.1674 -0.8289
  192POPC  C21622200   2.681   5.375   8.003  0.9929  0.1174 -0.2592
  192POPC  H16R22201   2.786   5.344   7.981  0.5903  0.0376 -2.1869
  192POPC  H16S22202   2.618   5.293   7.963  0.5317  0.5978 -0.5220
  192POPC  C21722203   2.663   5.382   8.154  0.2790  0.0676  0.2403
  192POPC  H17R22204   2.598   5.467   8.183  1.6637  1.6597 -1.0792
  192POPC  H17S22205   2.759   5.417   8.198  0.1371  2.6927 -1.2989
  192POPC  C21822206   2.623   5.251   8.214 -0.0807 -0.0718 -0.5379
  192POPC  H18R22207   2.533   5.201   8.174  0.8991 -1.8697 -0.5691
  192POPC  H18S22208   2.611   5.268   8.324 -0.7965  1.3612 -0.8116
  192POPC  H18T22209   2.703   5.176   8.203  1.3349  1.4264 -0.8543
  192POPC   C3322210   2.082   5.927   6.797  0.2085  0.5405 -0.1605
  192POPC   H3X22211   2.187   5.891   6.804 -0.6313 -1.6580  4.2939
  192POPC   H3Y22212   2.009   5.843   6.802  0.2126  0.6215  2.3365
  192POPC   C3422213   2.050   6.009   6.924  0.0668 -0.3506 -0.8387
  192POPC   H4X22214   1.946   6.050   6.928  0.2982  0.1732  0.6488
  192POPC   H4Y22215   2.106   6.105   6.922  1.0480 -0.9169 -1.3648
  192POPC   C3522216   2.090   5.927   7.049  0.1093 -0.0699 -0.2595
  192POPC   H5X22217   2.192   5.887   7.029  0.2000 -0.3730  0.7593
  192POPC   H5Y22218   2.027   5.836   7.062  2.0552 -1.3677  0.5481
  192POPC   C3622219   2.089   6.018   7.175  0.8611  0.4416  0.3886
  192POPC   H6X22220   1.992   6.071   7.174  0.7034  0.1558  0.3550
  192POPC   H6Y22221   2.169   6.093   7.159  1.3701 -0.5107 -2.0242
  192POPC   C3722222   2.126   5.937   7.299  0.7556 -0.4279  0.7983
  192POPC   H7X22223   2.231   5.902   7.292  0.4307 -1.6032  1.4335
  192POPC   H7Y22224   2.050   5.856   7.308 -1.4033  1.0926 -2.0960
  192POPC   C3822225   2.116   6.019   7.426  0.4968 -0.4229  0.2798
  192POPC   H8X22226   2.010   6.053   7.434  0.6911 -0.2884  3.8917
  192POPC   H8Y22227   2.167   6.118   7.426 -1.1301  0.5028 -1.9370
  192POPC   C3922228   2.134   5.930   7.541  0.5329 -0.1015 -0.1990
  192POPC   H9X22229   2.232   5.879   7.530  0.3871 -1.0439  2.2311
  192POPC   H9Y22230   2.051   5.857   7.535 -0.2116  0.7042  0.0409
  192POPC  C31022231   2.128   6.008   7.675 -0.4194  0.2972 -0.6098
  192POPC  H10X22232   2.021   6.028   7.696 -1.1259 -4.4493  1.6867
  192POPC  H10Y22233   2.182   6.104   7.662  0.7420  0.1322  2.2070
  192POPC  C31122234   2.183   5.920   7.793 -0.2614 -0.6397 -0.5492
  192POPC  H11X22235   2.272   5.859   7.765 -1.3423 -1.6437 -2.0150
  192POPC  H11Y22236   2.101   5.845   7.804 -0.2512 -0.6578 -0.5963
  192POPC  C31222237   2.208   6.007   7.912 -1.1547 -0.2443  0.3694
  192POPC  H12X22238   2.110   6.050   7.941  0.3555  1.8024  2.8760
  192POPC  H12Y22239   2.274   6.089   7.875 -1.6606 -0.6079 -1.4796
  192POPC  C31322240   2.262   5.933   8.035  0.2392 -0.1154  0.0044
  192POPC  H13X22241   2.337   5.856   8.006  0.7414  0.6761 -0.9006
  192POPC  H13Y22242   2.174   5.879   8.076 -0.7613  1.3255 -0.1742
  192POPC  C31422243   2.311   6.028   8.148 -0.2914  0.1678 -0.5362
  192POPC  H14X22244   2.225   6.091   8.181  1.1310  1.0936  1.6075
  192POPC  H14Y22245   2.394   6.098   8.127 -0.3361  0.4757  0.2628
  192POPC  C31522246   2.380   5.957   8.265 -0.5809  0.7408  0.8425
  192POPC  H15X22247   2.428   6.030   8.333  1.8419 -2.2406  2.6487
  192POPC  H15Y22248   2.463   5.896   8.223  0.1455  0.8488  2.0597
  192POPC  C31622249   2.280   5.881   8.354  0.2695 -0.3313  0.1091
  192POPC  H16X22250   2.334   5.835   8.439  0.6490 -1.6444 -0.8228
  192POPC  H16Y22251   2.224   5.799   8.304 -1.2426 -0.9390  2.6101
  192POPC  H16Z22252   2.194   5.938   8.396  0.2702 -1.3546  1.5753
  193SOD    SOD22253   3.224   3.512  14.679  0.2342  0.2361 -0.1832
  194SOD    SOD22254   0.677   4.729  16.915  0.3436 -0.1037 -0.6169
  195SOD    SOD22255   6.498   5.863   0.945  0.3244  0.4486  0.0603
  196SOD    SOD22256   0.453   2.406  16.227 -0.3558 -0.2636 -0.6314
  197SOD    SOD22257   0.450   1.243   2.417  0.0099 -0.3755 -0.1835
  198SOD    SOD22258   6.300   5.207   3.352  0.2303  0.0617 -0.0690
  199SOD    SOD22259   3.241   2.230   6.441 -0.4765  0.7481 -0.0617
  200SOD    SOD22260   0.909   2.138   5.183 -0.1360  0.2871  0.0332
  201SOD    SOD22261   2.654   6.553   1.730 -0.4682 -0.2540 -0.3939
  202SOD    SOD22262   0.331   5.109  10.905  0.0878  0.0889  0.1105
  203SOD    SOD22263   4.826   2.103   1.655  0.0514  0.2811  0.5928
  204SOD    SOD22264   0.395   2.941  11.750 -0.7052 -0.3187 -0.6584
  205SOD    SOD22265   2.145   5.710  10.607 -0.2549  0.2268  0.1658
  206SOD    SOD22266   0.792   1.588   4.929 -0.1098  0.1690 -0.2294
  207SOD    SOD22267   2.883   4.054   1.667 -0.2898 -0.6215  0.5025
  208SOD    SOD22268   2.949   5.724   0.736  0.1630 -0.0537 -0.0782
  209SOD    SOD22269   2.951   4.779  13.979  0.0423  0.2052 -0.2482
  210SOD    SOD22270   1.872   6.412  10.795  0.0162  0.1323  0.0442
  211SOD    SOD22271   5.386   4.519  16.729 -0.2995 -0.3417  0.1158
  212SOD    SOD22272   6.302   2.329  11.505 -0.1238 -0.3558  0.0818
  213SOD    SOD22273   0.313   4.754   1.901 -0.1423  0.0645 -0.0635
  214SOD    SOD22274   1.303   3.429   6.138  0.1908  0.0465  0.3894
  215SOD    SOD22275   1.641   3.076  14.947 -0.2717 -0.2046 -0.8185
  216SOD    SOD22276   2.914   0.680   1.231 -0.5958  0.2245 -0.5052
  217SOD    SOD22277   6.189   5.128   5.241 -0.0538  0.2597  0.6468
  218SOD    SOD22278   2.947   5.337  13.143  0.3067 -0.1871 -0.2617
  219SOD    SOD22279   1.649   4.663   3.192  0.2919  0.0771 -0.1498
  220SOD    SOD22280   4.598   3.289  11.637  0.0293 -0.0319  0.0758
  221SOD    SOD22281   4.270   5.060  11.409  0.1923 -0.1812 -0.2267
  222SOD    SOD22282   5.976   0.208  10.876  0.1380  0.8075  0.1243
  223SOD    SOD22283   2.138   3.650   4.823 -0.5290 -0.0772 -0.1429
  224SOD    SOD22284   3.097   1.204  11.250  0.0819 -0.4599  0.0750
  225SOD    SOD22285   1.152   0.665   3.283  0.5862 -0.3204 -0.1786
  226SOD    SOD22286   5.281   6.060  15.037  0.4793  0.4981  0.0943
  227SOD    SOD22287   0.360   6.766   6.305  0.0881  0.5385 -0.3033
  228SOD    SOD22288   1.621   0.362  11.075 -0.2037  0.0666 -0.5035
  229SOD    SOD22289   3.881   4.938  13.401  0.1354  0.0488  0.7592
  230SOD    SOD22290   1.122   1.222  10.863  0.1428  0.4126  0.2839
  231SOD    SOD22291   3.344   0.604  14.812  0.1586 -0.1177  0.3626
  232SOD    SOD22292   5.948   5.783  13.630 -0.3029  0.2744  0.3797
  233SOD    SOD22293   6.480   1.474  14.361 -0.1237 -0.9110  0.2205
  234SOD    SOD22294   6.197   1.655  16.871 -0.5871  0.1293 -0.4875
  235SOD    SOD22295   5.389   2.559   0.481 -0.0668 -0.3207  0.2471
  236SOD    SOD22296   2.050   2.022   6.054 -0.0419  0.1367 -0.4184
  237SOD    SOD22297   3.780   5.110  11.727 -0.1724 -0.0539  0.0901
  238SOD    SOD22298   6.324   0.055  17.007 -0.2866  0.1749 -0.2418
  239SOD    SOD22299   4.841   1.428  16.374 -0.0603 -0.2728 -0.4525
  240SOD    SOD22300   4.973   5.336   4.603 -0.4156  0.2121 -0.1193
  241SOD    SOD22301   5.467   4.110  15.440 -0.1293  0.3867 -0.3728
  242SOD    SOD22302   6.663   2.295  14.828 -0.0957 -0.2511 -0.1196
  243SOD    SOD22303   3.188   6.067   4.414 -0.1081 -0.2943 -0.1136
  244SOD    SOD22304   3.534   3.461   4.911  0.0504 -0.0176  0.2730
  245SOD    SOD22305   3.342   2.197   5.430  0.3409 -0.5153  0.3552
  246SOD    SOD22306   2.797   3.810  15.371 -0.2237  0.0957 -0.6585
  247SOD    SOD22307   4.065   3.162   3.787 -0.4024  0.1616 -0.2246
  248SOD    SOD22308   3.002   2.978  16.699 -0.4972  0.1175 -0.2263
  249SOD    SOD22309   0.804   2.287  15.594 -0.0425 -0.0780  0.7173
  250SOD    SOD22310   4.276   5.941  11.457 -0.5115  0.1541  0.2739
  251SOD    SOD22311   5.915   3.698  14.114  0.5457 -0.3317  0.0052
  252SOD    SOD22312   0.401   4.407   6.610  0.1300 -0.1180 -0.1689
  253SOD    SOD22313   3.346   4.709  13.939  0.6972  0.1058  0.1257
  254SOD    SOD22314   5.444   5.404   2.874  0.5352  0.2748  0.4561
  255SOD    SOD22315   5.020   2.495   6.246  0.1418 -0.0631  0.4375
  256SOD    SOD22316   1.111   4.359   5.021  0.1292 -0.2347 -0.2585
  257SOD    SOD22317   5.604   1.823  13.202 -0.1519  0.2530  0.1847
  258SOD    SOD22318   4.850   5.445   0.299 -0.3708 -0.3339 -0.4078
  259SOD    SOD22319   3.343   2.059  11.989  0.6323 -0.7333 -0.2890
  260SOD    SOD22320   0.311   4.969   1.363 -0.3941 -0.3975 -0.0038
  261SOD    SOD22321   2.488   2.774  14.969  0.8117  0.1535  0.0425
  262SOD    SOD22322   0.991   4.129  11.044 -0.1579 -0.0513  0.0811
  263SOD    SOD22323   0.853   4.851   6.172  0.1175  0.1413  0.6038
  264SOD    SOD22324   5.223   0.485   1.751 -0.1297  0.0419 -0.3563
  265SOD    SOD22325   5.590   5.430  13.875 -0.2337  0.1728 -0.3496
  266SOD    SOD22326   1.606   6.709   5.645 -0.4204  0.5747 -0.2415
  267SOD    SOD22327   3.339   2.494  12.855 -0.3820 -0.0912  0.0837
  268SOD    SOD22328   0.920   1.453   4.320 -0.5752 -0.0512 -0.1933
  269SOD    SOD22329   5.109   5.430  16.642 -0.3306  0.1417  0.3750
  270CLA    CLA22330   0.295   2.077  14.872 -0.1100  0.1743 -0.3031
  271CLA    CLA22331   5.360   1.140  13.113  0.0715  0.1472  0.6228
  272CLA    CLA22332   6.179   3.521   4.999  0.2393  0.1709  0.1934
  273CLA    CLA22333   1.903   4.998  14.385 -0.3990 -0.2164 -0.3189
  274CLA    CLA22334   0.524   1.321  17.040  0.1172 -0.0538 -0.2320
  275CLA    CLA22335   5.265   2.099  16.584  0.4045 -0.0054  0.1374
  276CLA    CLA22336   3.541   4.171  12.607 -0.2644  0.0282 -0.5315
  277CLA    CLA22337   3.120   3.987  16.821 -0.0786 -0.0763 -0.0610
  278CLA    CLA22338   1.409   5.535   4.738 -0.0111 -0.1436  0.3737
  279CLA    CLA22339   6.265   1.410   3.321 -0.5080  0.3930  0.2166
  280CLA    CLA22340   5.384   4.700   0.384  0.2462 -0.1946  0.0634
  281CLA    CLA22341   3.446   5.404   1.749 -0.3088 -0.2398  0.5532
  282CLA    CLA22342   3.068   6.067  15.498  0.0819 -0.2380 -0.1788
  283CLA    CLA22343   1.393   3.207   0.153 -0.0006 -0.0969 -0.2426
  284CLA    CLA22344   4.855   1.412  12.102 -0.0293  0.3619 -0.1602
  285CLA    CLA22345   2.146   1.974   2.944  0.1776  0.1812  0.1192
  286CLA    CLA22346   6.401   5.141   2.949  0.0725  0.0154  0.1531
  287CLA    CLA22347   1.130   5.962  15.716  0.6850 -0.5190 -0.0677
  288CLA    CLA22348   3.931   2.431  14.602  0.1909  0.4054  0.0707
  289CLA    CLA22349   6.103   1.074  14.713 -0.0673  0.4090  0.2564
  290CLA    CLA22350   6.432   4.980  13.215 -0.1431  0.0232  0.0750
  291CLA    CLA22351   5.863   2.423  16.687  0.1082 -0.3419 -0.2886
  292CLA    CLA22352   5.415   4.577  12.808 -0.1142  0.0264 -0.1234
  293CLA    CLA22353   2.846   3.935  15.854  0.0837  0.0937  0.0943
  294CLA    CLA22354   4.746   3.764  11.849 -0.0131  0.6519 -0.0618
  295CLA    CLA22355   6.524   0.035   3.403  0.0709  0.3405  0.0988
  296CLA    CLA22356   4.861   2.937   3.611 -0.0183  0.0939 -0.1482
  297CLA    CLA22357   4.612   1.256   1.870 -0.1644  0.0827 -0.1726
  298CLA    CLA22358   3.762   3.787   3.979  0.2778  0.5350 -0.1437
  299CLA    CLA22359   3.801   6.094  11.266 -0.1515  0.0383 -0.3236
  300CLA    CLA22360   4.087   2.245   5.779 -0.1400  0.3094  0.0855
  301CLA    CLA22361   6.782   4.720   4.502  0.0023 -0.3137 -0.1422
  302CLA    CLA22362   3.968   0.994  16.849 -0.3014 -0.3636 -0.3771
  303CLA    CLA22363   3.639   6.290   3.368 -0.1280 -0.0095  0.4241
  304CLA    CLA22364   3.110   5.643  12.245  0.2388 -0.0101 -0.6008
  305CLA    CLA22365   6.206   4.724   3.193 -0.2381  0.0265 -0.5771
  306CLA    CLA22366   3.212   2.304   3.637 -0.1761  0.1599  0.0106
  307CLA    CLA22367   6.500   5.443   0.412  0.2696 -0.2186 -0.2232
  308CLA    CLA22368   5.589   0.602  14.656 -0.0189  0.3541 -0.0012
  309CLA    CLA22369   1.724   5.592   1.197 -0.6212  0.0402 -0.2088
  310CLA    CLA22370   5.345   5.040  16.756  0.1625 -0.2703 -0.2057
  311CLA    CLA22371   0.877   2.388  15.363  0.2890 -0.4063 -0.0777
  312CLA    CLA22372   3.676   6.018  15.222  0.1636 -0.0842  0.0013
  313CLA    CLA22373   1.054   1.227   3.260  0.2927 -0.1989 -0.1853
  314CLA    CLA22374   2.341   0.188  14.759  0.4076  0.0419  0.1915
  315CLA    CLA22375   2.949   3.790   4.553  0.2794  0.3557  0.1988
  316CLA    CLA22376   5.012   3.284  14.294  0.0676  0.0759  0.0109
  317CLA    CLA22377   4.824   0.095   1.955  0.0720 -0.1741  0.2348
  318CLA    CLA22378   3.874   5.088   1.129 -0.0959 -0.0938 -0.1438
  319CLA    CLA22379   2.209   0.284  12.413 -0.0761 -0.2145 -0.0167
  320CLA    CLA22380   5.864   2.416   0.077 -0.1223 -0.2424  0.1006
  321CLA    CLA22381   4.670   0.051  14.562 -0.2400  0.1535 -0.0685
  322CLA    CLA22382   2.617   5.837  10.792 -0.1381 -0.3781 -0.0885
  323TIP3   OH222383   5.970   5.507   5.914 -0.1580  0.2868 -0.3564
  323TIP3    H122384   5.892   5.560   5.899  0.4155  1.2536  0.0487
  323TIP3    H222385   6.030   5.531   5.844  0.3610  0.6691  0.2160
  324TIP3   OH222386   6.319   0.478  13.546  0.4211  0.1230 -0.7444
  324TIP3    H122387   6.237   0.467  13.498  0.5290  1.7728 -1.3735
  324TIP3    H222388   6.384   0.431  13.494  0.0318 -0.5276 -0.6549
  325TIP3   OH222389   4.963   1.741  15.206 -0.1396  0.4622  0.0080
  325TIP3    H122390   4.934   1.798  15.135 -0.9141  2.5875  1.9000
  325TIP3    H222391   5.028   1.793  15.253  0.2262 -0.8059  0.9625
  326TIP3   OH222392   5.494   3.113  12.229  0.0181 -0.1656  0.9566
  326TIP3    H122393   5.407   3.134  12.262 -0.0646  0.7166  0.1932
  326TIP3    H222394   5.493   3.140  12.138  0.7788 -1.0732  0.6667
  327TIP3   OH222395   4.574   4.519   3.179  0.6352  0.0649 -0.3437
  327TIP3    H122396   4.480   4.534   3.169  0.5149  0.3519  1.0171
  327TIP3    H222397   4.614   4.604   3.164  0.7394 -0.1515 -1.3884
  328TIP3   OH222398   6.265   6.210  14.239 -0.2655 -0.1444  0.2476
  328TIP3    H122399   6.341   6.220  14.297  0.1520 -1.4668 -0.0374
  328TIP3    H222400   6.302   6.199  14.152 -0.7762 -0.8522  0.1107
  329TIP3   OH222401   6.187   4.941  14.734  0.0997  0.1624  0.5163
  329TIP3    H122402   6.175   4.916  14.825  1.7851 -0.3754  0.6350
  329TIP3    H222403   6.159   4.864  14.683  1.0452 -0.3279  0.6980
  330TIP3   OH222404   3.330   0.400   1.227 -0.2340  0.0603  0.1301
  330TIP3    H122405   3.272   0.474   1.210  0.7411  1.1619  1.3554
  330TIP3    H222406   3.394   0.403   1.156 -0.7337 -0.1970 -0.3421
  331TIP3   OH222407   2.222   3.100  14.741  0.0277  0.3294  0.1972
  331TIP3    H122408   2.182   3.132  14.660 -1.0410  0.2981  0.7021
  331TIP3    H222409   2.184   3.154  14.809  1.1589  0.5657  0.6663
  332TIP3   OH222410   1.539   0.299  11.740 -0.3735  0.3894 -0.1292
  332TIP3    H122411   1.479   0.310  11.813  0.5642 -0.5090  0.8136
  332TIP3    H222412   1.626   0.297  11.780  0.0952 -1.2056 -1.1305
  333TIP3   OH222413   0.672   6.668  10.063  0.3032 -0.1085  0.0269
  333TIP3    H122414   0.648   6.594  10.119 -1.2963 -0.1896 -0.7097
  333TIP3    H222415   0.767   6.660  10.052  0.1984 -1.9162  0.1437
  334TIP3   OH222416   5.452   6.177  11.683 -0.0773 -0.5923  0.1347
  334TIP3    H122417   5.473   6.109  11.620  0.5857  0.6889 -1.0643
  334TIP3    H222418   5.536   6.217  11.706 -0.3695 -0.6315  1.3863
  335TIP3   OH222419   1.623   0.295  14.737 -0.0150  0.1053 -0.1980
  335TIP3    H122420   1.588   0.340  14.660  2.4353  2.3799 -0.1452
  335TIP3    H222421   1.671   0.363  14.785  0.1514 -1.6617  2.3506
  336TIP3   OH222422   3.501   5.463   1.466 -0.5489 -0.3483  0.2252
  336TIP3    H122423   3.486   5.440   1.557 -0.8057 -0.5865  0.1242
  336TIP3    H222424   3.413   5.481   1.431 -0.5038 -0.7758 -0.1123
  337TIP3   OH222425   4.981   2.439   4.716 -0.0660  0.5219 -0.2716
  337TIP3    H122426   5.057   2.392   4.682  0.9827  1.9074  0.0550
  337TIP3    H222427   4.976   2.519   4.663 -0.9756  0.7029  0.0548
  338TIP3   OH222428   6.665   0.289  12.524  1.4922  0.0659  0.2728
  338TIP3    H122429   6.572   0.306  12.534  1.8232  1.5044  1.2452
  338TIP3    H222430   6.671   0.195  12.505 -0.0731 -0.3009  1.4258
  339TIP3   OH222431   3.334   3.172   1.139 -0.3092  0.6446 -0.0324
  339TIP3    H122432   3.368   3.086   1.115  0.4099  0.4003  1.7306
  339TIP3    H222433   3.411   3.229   1.138 -0.0413  0.4225  2.4886
  340TIP3   OH222434   1.831   2.358   4.515  0.0226 -0.3595 -0.5670
  340TIP3    H122435   1.914   2.312   4.508 -0.9450 -2.1459 -0.9040
  340TIP3    H222436   1.794   2.353   4.426 -0.2223  0.8934 -0.5552
  341TIP3   OH222437   1.890   1.831   2.832  0.0098  0.2338  0.7510
  341TIP3    H122438   1.970   1.864   2.873 -0.1545  1.4459  0.1526
  341TIP3    H222439   1.921   1.763   2.772  0.6218  0.7509  0.4551
  342TIP3   OH222440   2.924   0.262   0.384  0.0204 -0.4022 -0.0993
  342TIP3    H122441   2.981   0.337   0.400  2.1045 -1.9077  0.0179
  342TIP3    H222442   2.980   0.186   0.401 -1.7585 -1.9865 -0.9942
  343TIP3   OH222443   5.518   4.110   6.153  0.5391 -0.0058  0.4425
  343TIP3    H122444   5.585   4.156   6.203  1.2235 -1.0980  0.5510
  343TIP3    H222445   5.451   4.087   6.218  0.4235  0.3900  0.4702
  344TIP3   OH222446   3.895   1.596   3.944  0.0479 -0.1203 -0.1704
  344TIP3    H122447   3.913   1.547   3.864  1.2270  0.2884 -0.1659
  344TIP3    H222448   3.846   1.673   3.915  1.1770  0.4447 -0.6193
  345TIP3   OH222449   1.167   5.480   1.845  0.1921 -0.0551  0.1890
  345TIP3    H122450   1.166   5.405   1.786 -0.7989 -0.7922  1.1025
  345TIP3    H222451   1.206   5.446   1.926  1.7526  0.9972 -0.0691
  346TIP3   OH222452   6.549   3.779   0.968  0.2327  0.4144  0.2012
  346TIP3    H122453   6.606   3.849   0.935  0.9539 -0.1518  0.2118
  346TIP3    H222454   6.605   3.701   0.968 -0.3119  0.0119  0.9810
  347TIP3   OH222455   1.846   5.002  12.343 -0.3000 -0.1609  0.1326
  347TIP3    H122456   1.836   4.933  12.277 -0.1219  0.5783 -0.6840
  347TIP3    H222457   1.829   4.958  12.426 -0.6993 -1.0773 -0.4166
  348TIP3   OH222458   6.164   1.096   3.765  0.3847 -0.1235 -0.5283
  348TIP3    H122459   6.179   1.178   3.718  0.8543 -0.7997 -1.6010
  348TIP3    H222460   6.250   1.070   3.797  0.3103 -0.4125 -0.5538
  349TIP3   OH222461   6.587   2.571  12.997 -0.2669 -0.3385  0.5503
  349TIP3    H122462   6.531   2.498  12.968 -1.5365  0.1371  1.6716
  349TIP3    H222463   6.665   2.529  13.033 -0.8354 -1.1502  0.8788
  350TIP3   OH222464   1.391   6.749  16.961  0.1485  0.7761  0.0020
  350TIP3    H122465   1.397   6.719  17.051 -0.7627 -0.0830 -0.2082
  350TIP3    H222466   1.367   6.841  16.968  0.6219  0.8556  0.6395
  351TIP3   OH222467   6.624   2.645  15.549  0.0057  0.1880  0.0086
  351TIP3    H122468   6.540   2.603  15.536  0.1921  0.3751 -2.1990
  351TIP3    H222469   6.605   2.739  15.550  0.2717  0.2715 -1.4824
  352TIP3   OH222470   6.185   1.944   0.998 -0.5251  0.2736  0.2757
  352TIP3    H122471   6.111   1.894   0.964 -0.3304 -0.3648  0.7815
  352TIP3    H222472   6.200   2.012   0.932  1.0048 -1.9950 -1.8964
  353TIP3   OH222473   6.232   6.760  11.794  0.6203 -0.1809  0.2785
  353TIP3    H122474   6.203   6.790  11.708  2.5991  0.7641 -0.1045
  353TIP3    H222475   6.240   6.665  11.784 -0.6373 -0.2659 -0.0929
  354TIP3   OH222476   1.450   2.036   5.333 -0.4216  0.1051  0.3775
  354TIP3    H122477   1.384   2.106   5.337  1.3296  2.1017 -2.2110
  354TIP3    H222478   1.503   2.049   5.412 -0.2885  1.5977  0.0763
  355TIP3   OH222479   6.319   5.806   5.631  0.4937  0.6747  0.0959
  355TIP3    H122480   6.367   5.749   5.691 -0.3582  0.2497  0.3926
  355TIP3    H222481   6.313   5.889   5.678  0.6629  0.6357  0.1899
  356TIP3   OH222482   3.802   4.372   1.556 -0.0113  0.3735 -0.0721
  356TIP3    H122483   3.739   4.441   1.537  1.1958  1.2709 -0.9466
  356TIP3    H222484   3.887   4.417   1.557  0.8955 -1.2245 -1.4720
  357TIP3   OH222485   1.726   5.570  12.397 -0.5364 -0.0540  0.6093
  357TIP3    H122486   1.814   5.607  12.398 -0.6096  0.1902 -0.3536
  357TIP3    H222487   1.733   5.492  12.342 -1.1626  0.6540 -0.5097
  358TIP3   OH222488   0.857   5.149   3.920 -0.6703 -0.1307  0.6107
  358TIP3    H122489   0.844   5.188   4.006 -0.0760 -1.0556  1.1341
  358TIP3    H222490   0.894   5.220   3.867  0.4093  0.0383  1.5454
  359TIP3   OH222491   1.574   5.769   2.864 -0.5133  0.0547  0.3898
  359TIP3    H122492   1.637   5.834   2.893 -0.3994  0.6429 -1.1191
  359TIP3    H222493   1.493   5.818   2.849 -0.6834 -0.3054  0.0981
  360TIP3   OH222494   4.153   5.570  15.367 -0.1895  0.0536  0.5644
  360TIP3    H122495   4.150   5.662  15.341 -0.3391 -0.3268 -0.8573
  360TIP3    H222496   4.226   5.564  15.428  0.7825  0.8441 -0.4856
  361TIP3   OH222497   1.562   1.991   4.914 -0.8141  0.5785 -0.5327
  361TIP3    H122498   1.588   1.946   4.834 -1.6366  0.6998 -0.8741
  361TIP3    H222499   1.610   2.073   4.912  0.6247 -0.2199  0.0464
  362TIP3   OH222500   2.078   0.501  11.079 -0.1108  0.3609 -0.1368
  362TIP3    H122501   2.171   0.483  11.061 -0.0155  1.1547 -0.5232
  362TIP3    H222502   2.079   0.585  11.126 -0.5479 -0.3595  1.1985
  363TIP3   OH222503   3.101   5.520   0.403  0.6136 -0.2961 -0.0019
  363TIP3    H122504   3.007   5.530   0.416  0.3050 -1.2884 -1.3197
  363TIP3    H222505   3.121   5.572   0.325  1.4803  1.2182  1.1651
  364TIP3   OH222506   2.502   3.799   5.136 -0.4062 -0.8093 -0.3906
  364TIP3    H122507   2.444   3.817   5.063 -0.6636 -2.0745 -0.5237
  364TIP3    H222508   2.446   3.807   5.214  0.1200  1.6688 -0.1858
  365TIP3   OH222509   4.183   6.302   1.662  0.0844  0.2005 -0.0552
  365TIP3    H122510   4.264   6.350   1.647  0.7957 -0.4875  1.4490
  365TIP3    H222511   4.209   6.223   1.709 -1.4684  0.0474  0.6229
  366TIP3   OH222512   1.678   3.333   1.435 -0.0764  0.2954  0.3440
  366TIP3    H122513   1.734   3.309   1.362 -1.7439 -3.4732  0.0694
  366TIP3    H222514   1.729   3.311   1.513  0.3169  0.7541  0.2175
  367TIP3   OH222515   4.366   1.481   5.368 -0.3818 -0.5439  0.0376
  367TIP3    H122516   4.289   1.450   5.416 -2.4763  0.2697 -2.5662
  367TIP3    H222517   4.376   1.572   5.393 -0.8273 -0.4098 -0.2632
  368TIP3   OH222518   1.718   3.666   2.524 -0.9644  0.0569  0.8824
  368TIP3    H122519   1.792   3.609   2.545  0.2925  0.5656 -1.7366
  368TIP3    H222520   1.664   3.612   2.466 -1.2336  0.5900  0.6389
  369TIP3   OH222521   2.007   1.975  16.747 -0.1056 -0.1457 -0.5750
  369TIP3    H122522   1.954   1.927  16.811 -0.7457  0.8183 -0.3469
  369TIP3    H222523   2.069   1.911  16.713  0.5633 -0.6051  1.3436
  370TIP3   OH222524   5.144   2.151   2.677 -0.3308 -0.5620  0.0203
  370TIP3    H122525   5.157   2.107   2.761 -0.7504  2.1485  1.6282
  370TIP3    H222526   5.051   2.175   2.677 -0.1010  0.3859 -0.7237
  371TIP3   OH222527   4.794   6.198   2.476  0.2088  0.0411  0.7566
  371TIP3    H122528   4.747   6.276   2.447  2.1591  1.2842  0.6961
  371TIP3    H222529   4.851   6.177   2.402  1.3423 -0.0249  1.6134
  372TIP3   OH222530   2.742   0.626   4.295 -0.1909  0.0287 -0.0010
  372TIP3    H122531   2.829   0.586   4.304 -0.2159 -0.0474 -0.0928
  372TIP3    H222532   2.754   0.694   4.228 -0.1278  0.2362  0.2195
  373TIP3   OH222533   1.571   6.332   6.277  0.3616  0.1091 -0.1712
  373TIP3    H122534   1.502   6.290   6.224  0.7396  0.0991 -0.6670
  373TIP3    H222535   1.559   6.426   6.261 -0.8535  0.2564  1.3966
  374TIP3   OH222536   0.651   5.953   0.164  0.0258 -0.1752 -0.4689
  374TIP3    H122537   0.678   5.864   0.186 -1.4145 -0.3773  0.6023
  374TIP3    H222538   0.729   6.006   0.181  0.0270 -0.8231  1.9681
  375TIP3   OH222539   0.603   2.408  16.795 -0.0084 -0.4042 -0.7410
  375TIP3    H122540   0.691   2.442  16.812  0.5351 -1.4187 -1.4931
  375TIP3    H222541   0.574   2.455  16.717 -1.0211  1.4984  0.6882
  376TIP3   OH222542   1.787   3.826   1.381 -0.1074 -0.0406 -0.0642
  376TIP3    H122543   1.723   3.754   1.387 -1.0052  0.8619  2.1045
  376TIP3    H222544   1.847   3.811   1.454 -0.1710  1.2857  0.2687
  377TIP3   OH222545   1.627   3.456   0.955 -0.3221 -0.1199 -0.0790
  377TIP3    H122546   1.570   3.388   0.990 -1.0558 -0.6796 -2.2245
  377TIP3    H222547   1.586   3.539   0.981 -1.0925 -0.5196 -0.0096
  378TIP3   OH222548   2.356   1.415  14.571 -0.3485 -0.0720 -0.1249
  378TIP3    H122549   2.388   1.488  14.623 -0.7284  0.5717 -0.7723
  378TIP3    H222550   2.344   1.343  14.634 -2.2857  1.1395  0.9861
  379TIP3   OH222551   1.571   4.214   4.409  0.2238 -0.2789  0.6385
  379TIP3    H122552   1.607   4.260   4.485 -2.0510 -0.1214  1.6952
  379TIP3    H222553   1.507   4.153   4.445 -0.5706 -0.5574 -1.1166
  380TIP3   OH222554   0.339   4.254   5.820 -0.6805 -0.2472 -0.3593
  380TIP3    H122555   0.359   4.161   5.820 -0.1445 -0.1382 -0.1506
  380TIP3    H222556   0.379   4.287   5.900  0.3586  0.4122 -1.1266
  381TIP3   OH222557   4.974   0.683   0.858  0.3675  0.2182 -0.0854
  381TIP3    H122558   5.055   0.733   0.864 -0.0006  0.8047  0.0018
  381TIP3    H222559   4.976   0.624   0.933  1.1902 -0.4971 -0.6426
  382TIP3   OH222560   2.038   6.201  12.925  0.2173 -0.2628  0.4474
  382TIP3    H122561   1.964   6.254  12.956  0.9308  0.8240  0.3536
  382TIP3    H222562   2.113   6.235  12.974  1.3268  1.2062 -2.0581
  383TIP3   OH222563   6.268   3.342  13.323 -0.2915  0.1598 -0.5022
  383TIP3    H122564   6.345   3.349  13.379 -1.3381 -1.7402  1.3339
  383TIP3    H222565   6.276   3.255  13.282 -2.3335 -0.9873  1.3082
  384TIP3   OH222566   3.191   0.942  15.462 -0.1705 -0.3836  0.6642
  384TIP3    H122567   3.124   1.000  15.498  0.7253  0.7089  0.6122
  384TIP3    H222568   3.142   0.883  15.404 -0.8477  1.8002 -1.1258
  385TIP3   OH222569   4.645   4.575  14.998 -0.0377  1.0932  0.2114
  385TIP3    H122570   4.590   4.610  14.928 -0.0691 -2.2035 -1.6056
  385TIP3    H222571   4.734   4.594  14.971 -0.0868  0.6261 -0.3016
  386TIP3   OH222572   0.421   6.226   4.187 -0.5574 -0.3466  0.6006
  386TIP3    H122573   0.471   6.287   4.133  0.2676 -0.5649  1.1066
  386TIP3    H222574   0.408   6.149   4.131  0.5851 -0.7082  0.8150
  387TIP3   OH222575   5.691   1.601   5.115 -0.2554  0.3147 -0.0931
  387TIP3    H122576   5.617   1.547   5.088  0.0860  0.9127 -2.4541
  387TIP3    H222577   5.712   1.654   5.038 -0.1235  3.3616  1.8616
  388TIP3   OH222578   5.295   0.372  15.554  0.3780 -0.2081  0.2148
  388TIP3    H122579   5.222   0.323  15.591  1.6604 -1.1635  1.5783
  388TIP3    H222580   5.258   0.416  15.477 -1.3958 -1.3770  0.3550
  389TIP3   OH222581   2.294   2.536  13.171 -0.0634  0.3631 -0.4735
  389TIP3    H122582   2.300   2.501  13.260  0.2513 -0.7341 -0.9104
  389TIP3    H222583   2.263   2.626  13.183 -2.4576 -0.5042  0.6308
  390TIP3   OH222584   2.323   3.756   5.368 -0.0778 -0.5234  0.2011
  390TIP3    H122585   2.367   3.838   5.391  1.7853 -1.4915  0.2670
  390TIP3    H222586   2.230   3.777   5.373  0.3306  1.7885 -0.5019
  391TIP3   OH222587   3.281   1.759   1.234 -0.1068  0.0732 -0.2259
  391TIP3    H122588   3.220   1.819   1.277 -2.4678 -0.1284 -2.9722
  391TIP3    H222589   3.358   1.758   1.291 -1.7925  2.0416  2.3282
  392TIP3   OH222590   2.539   0.247  12.691 -0.4917  0.3121 -0.0650
  392TIP3    H122591   2.522   0.311  12.622  1.2219 -0.8388 -1.6773
  392TIP3    H222592   2.494   0.168  12.660  0.1355 -0.1621  0.2269
  393TIP3   OH222593   5.371   5.736  14.909 -0.0027 -0.1683  0.2872
  393TIP3    H122594   5.453   5.688  14.897  0.1020 -0.4739  1.9472
  393TIP3    H222595   5.395   5.812  14.962 -0.3376  1.2591 -1.5195
  394TIP3   OH222596   4.637   0.041   5.774  0.3008  0.0038 -0.4052
  394TIP3    H122597   4.588  -0.013   5.836 -0.2241 -0.2389 -1.0123
  394TIP3    H222598   4.577   0.051   5.699  0.6299  0.9020 -0.5649
  395TIP3   OH222599   0.906   2.751  12.088 -0.3139  1.1623  0.4056
  395TIP3    H122600   0.902   2.783  11.998 -0.2769 -1.4660 -0.6232
  395TIP3    H222601   0.986   2.699  12.092 -0.8925  0.2961  1.6170
  396TIP3   OH222602   1.653   0.150   1.991 -0.6822  0.1523 -0.1475
  396TIP3    H122603   1.615   0.234   1.966  0.7313  0.5644 -1.0324
  396TIP3    H222604   1.702   0.168   2.071  1.7588  0.8545 -1.6856
  397TIP3   OH222605   0.386   4.336  14.250  0.4101 -0.6020 -0.8091
  397TIP3    H122606   0.296   4.367  14.239  1.0650  1.7960  0.0697
  397TIP3    H222607   0.391   4.309  14.341  1.0278  0.9802 -0.3495
  398TIP3   OH222608   2.631   4.420  12.818  0.0566  0.3339 -0.6239
  398TIP3    H122609   2.675   4.440  12.735  0.9014 -0.6478 -0.4431
  398TIP3    H222610   2.678   4.343  12.851 -1.3526 -0.3077 -0.0540
  399TIP3   OH222611   2.940   5.522   1.425 -0.0403 -0.1834  0.0650
  399TIP3    H122612   2.920   5.613   1.447  0.9755 -0.3936  2.0738
  399TIP3    H222613   2.909   5.472   1.500 -0.1741 -1.4586 -0.8170
  400TIP3   OH222614   6.594   2.878  11.882  0.1619 -0.4496 -0.0299
  400TIP3    H122615   6.571   2.805  11.825  2.1725 -0.8713 -0.3767
  400TIP3    H222616   6.558   2.856  11.967 -1.3332 -0.6639 -0.6819
  401TIP3   OH222617   3.213   5.989   1.066  0.4109  0.1101 -0.6014
  401TIP3    H122618   3.241   5.901   1.042  1.2915  0.5715 -1.3425
  401TIP3    H222619   3.269   6.013   1.140 -0.1662 -0.1285 -0.0779
  402TIP3   OH222620   0.318   3.156  13.126 -0.0086  0.2592 -0.0166
  402TIP3    H122621   0.337   3.069  13.091 -0.8692 -0.1861  0.6001
  402TIP3    H222622   0.364   3.216  13.067 -1.1341 -0.4685 -1.7085
  403TIP3   OH222623   6.182   2.432   3.380 -0.1908 -0.0743  0.5654
  403TIP3    H122624   6.257   2.395   3.334  0.3848  0.5567  0.9725
  403TIP3    H222625   6.214   2.449   3.469 -0.1827  2.0736  0.2013
  404TIP3   OH222626   1.890   2.542  16.649 -0.2774 -0.5063 -0.4716
  404TIP3    H122627   1.880   2.637  16.659  2.3944 -0.2387  0.5980
  404TIP3    H222628   1.896   2.528  16.555 -0.6687  0.3815 -0.6353
  405TIP3   OH222629   3.066   6.325   1.539  0.1900 -0.3392  0.4922
  405TIP3    H122630   3.050   6.387   1.611  0.1206  1.2606 -0.8407
  405TIP3    H222631   2.979   6.292   1.517  0.1889 -0.6875  1.0112
  406TIP3   OH222632   1.231   2.886  16.142  0.4496  0.3768  0.3660
  406TIP3    H122633   1.248   2.871  16.049 -2.0389  0.2100 -0.1133
  406TIP3    H222634   1.315   2.915  16.177  1.6721 -0.4242 -1.7334
  407TIP3   OH222635   0.798   5.945   5.475 -0.0676  0.4853  0.3744
  407TIP3    H122636   0.891   5.930   5.459 -0.0775 -0.0138  0.7569
  407TIP3    H222637   0.754   5.908   5.398  0.0485  0.7920  0.1570
  408TIP3   OH222638   4.801   6.272  15.661  0.2506 -0.2022 -0.3360
  408TIP3    H122639   4.745   6.336  15.705  1.9806  0.1344  1.5619
  408TIP3    H222640   4.742   6.202  15.634 -1.0718  0.0860  1.6219
  409TIP3   OH222641   5.939   1.259  16.944  0.5685 -0.0052  0.3282
  409TIP3    H122642   6.010   1.276  17.006  1.2759 -0.0730 -0.4411
  409TIP3    H222643   5.971   1.186  16.890 -1.0133 -1.5815  1.4142
  410TIP3   OH222644   2.707   5.634   0.096 -0.7038  0.0666  0.1177
  410TIP3    H122645   2.761   5.706   0.063  0.3423  0.1866  1.9910
  410TIP3    H222646   2.688   5.582   0.018  0.3692  1.1548 -0.9285
  411TIP3   OH222647   6.159   1.890  16.949 -0.0737  0.0910 -0.2567
  411TIP3    H122648   6.134   1.972  16.904 -0.9750  0.4388  0.8259
  411TIP3    H222649   6.221   1.918  17.016 -3.5319  0.6595  2.9927
  412TIP3   OH222650   4.802   4.774   5.147  0.1647 -0.2665  0.0159
  412TIP3    H122651   4.889   4.768   5.108  0.5864  1.1358  0.6694
  412TIP3    H222652   4.751   4.706   5.103  1.7795 -1.6366  0.1547
  413TIP3   OH222653   2.980   6.466   6.511  0.2696 -0.0651  0.3172
  413TIP3    H122654   3.069   6.490   6.535  0.2579  1.4898 -1.0386
  413TIP3    H222655   2.991   6.398   6.444  0.3932 -0.6030  0.8704
  414TIP3   OH222656   5.516   1.599   4.806 -0.7483 -0.4808 -0.1096
  414TIP3    H122657   5.587   1.660   4.824 -1.3647  0.7526 -1.6425
  414TIP3    H222658   5.559   1.516   4.786  0.0882 -0.8357  2.7142
  415TIP3   OH222659   5.613   1.403   5.435  0.5324  0.4569  0.1684
  415TIP3    H122660   5.523   1.401   5.468  0.0624 -0.3365 -1.0751
  415TIP3    H222661   5.654   1.326   5.473  0.4780  0.4390  0.1913
  416TIP3   OH222662   0.990   0.148  11.073 -0.2992 -0.2071  0.2678
  416TIP3    H122663   1.062   0.172  11.014 -0.6323  0.4827  0.1367
  416TIP3    H222664   0.913   0.144  11.017 -0.6963  0.8626  0.7179
  417TIP3   OH222665   0.581   1.190   4.610  0.2157  0.5642 -0.6129
  417TIP3    H122666   0.522   1.149   4.673  0.4325  0.5085 -0.4459
  417TIP3    H222667   0.641   1.242   4.664  1.8883 -1.3171 -0.5707
  418TIP3   OH222668   2.035   2.652   0.131 -0.3206  0.5631 -0.0455
  418TIP3    H122669   2.101   2.594   0.091  1.9186  2.0163  1.3097
  418TIP3    H222670   1.975   2.673   0.059  1.4625  0.2030 -1.7234
  419TIP3   OH222671   3.347   3.611  13.616  0.1494 -0.4140 -0.2363
  419TIP3    H122672   3.383   3.694  13.649 -0.6291  0.9154 -2.5265
  419TIP3    H222673   3.395   3.544  13.665  1.9171  1.3433  0.6166
  420TIP3   OH222674   4.564   2.697   3.900  0.2484  0.0905  0.5430
  420TIP3    H122675   4.632   2.668   3.839  0.2570 -0.0828  0.6344
  420TIP3    H222676   4.607   2.761   3.956  0.0358  0.8752 -0.1515
  421TIP3   OH222677   6.005   2.574   1.950 -0.1277 -0.3627  0.2561
  421TIP3    H122678   6.077   2.628   1.916 -0.4309  0.8267  1.3841
  421TIP3    H222679   6.031   2.554   2.040 -1.4154  0.5386  0.8631
  422TIP3   OH222680   5.423   0.794   2.420 -0.2228  0.2343 -0.0555
  422TIP3    H122681   5.435   0.868   2.359 -0.5194 -0.8945 -1.5572
  422TIP3    H222682   5.414   0.718   2.362  0.5579 -1.0546  1.4621
  423TIP3   OH222683   6.633   4.946   4.683 -0.1524  0.9939  0.0285
  423TIP3    H122684   6.546   4.905   4.683  0.4063 -0.2624  0.8546
  423TIP3    H222685   6.686   4.890   4.626  0.0563  1.9140 -0.6958
  424TIP3   OH222686   6.110   2.839  11.750 -0.1695 -0.2828  0.1361
  424TIP3    H122687   6.106   2.934  11.762  0.4452 -0.3134  0.5784
  424TIP3    H222688   6.032   2.819  11.697 -0.6105  0.3885  0.5142
  425TIP3   OH222689   3.334   1.063  12.363 -0.1167 -0.0956 -0.5357
  425TIP3    H122690   3.315   0.970  12.378 -0.1979  0.1573  1.1723
  425TIP3    H222691   3.413   1.080  12.414 -0.0719  0.7677 -0.8731
  426TIP3   OH222692   1.261   1.324  11.335 -0.9113  0.4331  0.1116
  426TIP3    H122693   1.247   1.234  11.308 -0.1477  0.0449  0.9631
  426TIP3    H222694   1.193   1.340  11.401  0.4334 -0.3609  1.7813
  427TIP3   OH222695   6.596   3.568   5.308  0.9152 -0.1761  0.3807
  427TIP3    H122696   6.567   3.481   5.339  3.8251 -1.1559  0.6581
  427TIP3    H222697   6.601   3.558   5.213 -1.2712  0.6060  0.1250
  428TIP3   OH222698   3.319   2.574   2.362 -0.2195  0.4245 -0.5514
  428TIP3    H122699   3.357   2.656   2.394 -1.3769  1.2871 -1.2965
  428TIP3    H222700   3.341   2.572   2.269  0.5497 -0.5613 -0.3553
  429TIP3   OH222701   2.722   5.906   2.756 -0.1849  0.4205  0.6170
  429TIP3    H122702   2.780   5.981   2.762  1.8573 -1.0269 -0.0321
  429TIP3    H222703   2.702   5.884   2.848  1.1162  0.3592  0.9049
  430TIP3   OH222704   1.575   1.660   3.459  0.2953  0.0645  0.0356
  430TIP3    H122705   1.494   1.711   3.462  1.1323  1.3933  1.3666
  430TIP3    H222706   1.626   1.701   3.390  1.3720  1.7618  1.7514
  431TIP3   OH222707   3.613   6.298  15.031 -0.5608  0.1418 -0.5192
  431TIP3    H122708   3.645   6.213  15.061 -1.7178  0.0959  0.6582
  431TIP3    H222709   3.627   6.357  15.106  0.0549  0.9578 -1.2488
  432TIP3   OH222710   1.630   1.576  15.735 -0.1948 -0.0217  0.1889
  432TIP3    H122711   1.614   1.482  15.727  1.7336 -0.2473 -1.8297
  432TIP3    H222712   1.558   1.617  15.686 -0.1287 -0.5310 -0.3440
  433TIP3   OH222713   3.095   5.795   4.741  0.4614  0.1876 -0.2511
  433TIP3    H122714   3.082   5.701   4.730  1.4171 -0.2599  2.0120
  433TIP3    H222715   3.180   5.813   4.701 -0.0107  0.2329 -1.2577
  434TIP3   OH222716   5.613   1.886   1.260 -0.1254 -0.1883 -0.3330
  434TIP3    H122717   5.542   1.934   1.302 -0.1531  0.8591 -1.5437
  434TIP3    H222718   5.580   1.865   1.173  0.7994 -0.2891 -0.6685
  435TIP3   OH222719   6.764   0.804  11.508 -0.2487 -0.3961 -0.0125
  435TIP3    H122720   6.685   0.846  11.475 -0.4261 -1.1082 -0.5058
  435TIP3    H222721   6.822   0.877  11.529 -0.1832  0.0977 -1.7453
  436TIP3   OH222722   3.367   5.569  12.983 -0.6039  0.7881  0.1724
  436TIP3    H122723   3.441   5.601  13.035 -1.6518 -0.0270  2.3127
  436TIP3    H222724   3.405   5.505  12.923  0.5152  0.7152  0.9222
  437TIP3   OH222725   1.143   3.975  10.986  0.3349 -0.3612 -0.4416
  437TIP3    H122726   1.144   3.880  11.001 -1.4678 -0.2334  0.7844
  437TIP3    H222727   1.223   3.992  10.937  1.8360 -2.1971  1.2056
  438TIP3   OH222728   4.852   3.324  11.976 -1.1227  0.1770  0.5672
  438TIP3    H122729   4.782   3.278  11.930  0.4767 -1.5565 -0.2761
  438TIP3    H222730   4.922   3.331  11.912 -0.0238  0.6380  1.7776
  439TIP3   OH222731   5.793   2.999   4.431  0.2627 -0.1518  0.2941
  439TIP3    H122732   5.731   2.934   4.467  0.4488 -0.8514 -0.6150
  439TIP3    H222733   5.812   2.967   4.343 -0.6304  1.8432 -0.6781
  440TIP3   OH222734   6.654   5.866  16.480 -0.0498  0.0212 -0.1870
  440TIP3    H122735   6.568   5.879  16.441  0.8321  2.0720 -1.5960
  440TIP3    H222736   6.715   5.874  16.406  1.5363  1.7102  1.2355
  441TIP3   OH222737   6.637   2.218  13.310  0.2350  0.2348 -0.0525
  441TIP3    H122738   6.658   2.124  13.314  0.6861  0.2846 -0.8968
  441TIP3    H222739   6.573   2.225  13.239  0.8062  0.6590 -0.5361
  442TIP3   OH222740   3.183   5.576   5.880  0.2548  0.5339 -0.5235
  442TIP3    H122741   3.127   5.514   5.927  1.1640 -0.9920 -1.3553
  442TIP3    H222742   3.125   5.615   5.815 -0.7260  1.8091  1.0425
  443TIP3   OH222743   2.920   0.330   0.805  0.3398 -0.0803 -0.5077
  443TIP3    H122744   2.945   0.248   0.847 -0.4690  1.0953  2.4792
  443TIP3    H222745   2.848   0.364   0.857  2.0741  3.6310 -0.1669
  444TIP3   OH222746   0.528   4.763  15.222 -0.0113  0.1943  1.2338
  444TIP3    H122747   0.458   4.702  15.244  0.8741 -1.2560  0.2119
  444TIP3    H222748   0.604   4.732  15.273  1.1763 -1.2715 -1.2417
  445TIP3   OH222749   5.371   5.942  12.286 -0.3222  0.2378  0.9161
  445TIP3    H122750   5.407   5.892  12.213 -1.1969 -1.9562  1.8931
  445TIP3    H222751   5.294   5.986  12.250  0.4055  0.8385  0.0562
  446TIP3   OH222752   3.593   3.818   1.236  0.1395  0.4597  0.5634
  446TIP3    H122753   3.591   3.723   1.219 -0.0284  0.3154  1.3298
  446TIP3    H222754   3.663   3.829   1.300  0.3737  0.8985  0.2273
  447TIP3   OH222755   3.528   0.270   4.678  1.0676 -0.2798  0.5017
  447TIP3    H122756   3.581   0.344   4.709  0.0891  0.5845  0.1394
  447TIP3    H222757   3.442   0.283   4.717 -0.3884  1.1194 -2.7905
  448TIP3   OH222758   1.228   6.624  16.151 -0.0376 -0.4786 -0.3233
  448TIP3    H122759   1.163   6.661  16.092 -2.1907 -0.9464  1.5956
  448TIP3    H222760   1.217   6.529  16.142  0.9207 -0.5718 -0.5262
  449TIP3   OH222761   0.201   5.365  15.314 -0.0984 -0.2443  0.1022
  449TIP3    H122762   0.200   5.278  15.273 -1.5028 -0.7673  1.1694
  449TIP3    H222763   0.260   5.356  15.388 -1.0848 -0.6326  0.8625
  450TIP3   OH222764   5.728   5.383   2.384 -0.3090 -0.5555  0.1562
  450TIP3    H122765   5.765   5.403   2.298 -1.3524 -1.2821 -0.4924
  450TIP3    H222766   5.789   5.320   2.422  0.2522 -0.0990  0.0118
  451TIP3   OH222767   5.032   3.854  14.419 -0.6618 -0.3635 -0.1985
  451TIP3    H122768   5.093   3.923  14.443 -1.0735 -0.6309  1.8376
  451TIP3    H222769   4.980   3.890  14.347  0.4813  0.6361 -0.5476
  452TIP3   OH222770   2.280   4.542  15.700  0.2112  0.1526 -0.0221
  452TIP3    H122771   2.361   4.522  15.652 -0.1002 -1.4192  0.0521
  452TIP3    H222772   2.311   4.565  15.788  0.5976  0.0509 -0.1269
  453TIP3   OH222773   4.057   1.527   1.580 -0.0937  0.0859  0.3398
  453TIP3    H122774   4.073   1.563   1.667  0.5371 -0.4041  0.4413
  453TIP3    H222775   3.965   1.545   1.562 -0.0804  0.7030  0.8632
  454TIP3   OH222776   4.834   3.627  11.454  0.3335 -0.1414  0.5063
  454TIP3    H122777   4.857   3.694  11.390  2.2030 -1.3526 -0.1644
  454TIP3    H222778   4.759   3.582  11.416 -0.4916  1.0744  0.6393
  455TIP3   OH222779   6.281   2.161   2.715 -0.2613  0.3721 -0.3926
  455TIP3    H122780   6.314   2.140   2.802  0.5768 -1.7261 -1.1378
  455TIP3    H222781   6.270   2.256   2.715  1.5227  0.6433  1.3878
  456TIP3   OH222782   2.150   1.614   2.770  0.5424 -0.6473  0.2077
  456TIP3    H122783   2.171   1.707   2.780 -0.6867 -0.3294  0.0120
  456TIP3    H222784   2.210   1.583   2.702  1.7622 -0.2995  1.0814
  457TIP3   OH222785   4.530   4.666  12.208 -0.0226  0.0043  0.1662
  457TIP3    H122786   4.482   4.672  12.125  1.1571  2.5860 -0.4121
  457TIP3    H222787   4.621   4.682  12.185  0.4486 -0.0419  1.8690
  458TIP3   OH222788   4.999   0.032   5.929 -0.0712  0.4945  0.9660
  458TIP3    H122789   5.061  -0.001   5.994 -1.3136  0.3897  2.1451
  458TIP3    H222790   4.996  -0.036   5.862  2.8504  1.5423 -0.4037
  459TIP3   OH222791   0.860   5.884  11.176 -0.1203 -0.0404 -0.2381
  459TIP3    H122792   0.834   5.811  11.233  1.7503  0.1463  0.9417
  459TIP3    H222793   0.822   5.961  11.219 -0.8810 -0.1517 -0.6915
  460TIP3   OH222794   0.100   4.668  13.595 -0.1670  0.0092  0.1169
  460TIP3    H122795   0.025   4.625  13.637 -0.4788  0.9754  0.5886
  460TIP3    H222796   0.083   4.661  13.501 -0.3544 -0.6233  0.1936
  461TIP3   OH222797   2.911   3.674  16.022 -0.2426 -0.3919 -0.2915
  461TIP3    H122798   2.909   3.761  15.980  0.9444 -0.4954 -0.5964
  461TIP3    H222799   3.002   3.663  16.050 -0.4966 -1.3342  0.2044
  462TIP3   OH222800   2.334   5.479   4.731  0.0013 -0.2697 -0.0350
  462TIP3    H122801   2.286   5.561   4.724  0.5807  0.0289 -0.6530
  462TIP3    H222802   2.362   5.459   4.641  2.8435  0.6813  0.5263
  463TIP3   OH222803   4.695   5.613  12.510 -0.1587 -0.6665  0.0446
  463TIP3    H122804   4.634   5.663  12.566  0.1591 -0.0486 -0.1473
  463TIP3    H222805   4.675   5.643  12.421  0.9543  0.1463  0.0439
  464TIP3   OH222806   0.153   4.232   0.478  0.3829 -0.2020  0.2596
  464TIP3    H122807   0.155   4.326   0.498 -2.1662  0.1601 -0.8468
  464TIP3    H222808   0.189   4.190   0.556  2.4304  1.6874  0.4388
  465TIP3   OH222809   5.576   5.067  14.316  0.1971  0.2787  0.4390
  465TIP3    H122810   5.615   5.132  14.374  0.0363  0.7987 -0.0311
  465TIP3    H222811   5.651   5.018  14.282  0.2486 -0.5502  1.6725
  466TIP3   OH222812   2.487   3.259  11.562 -0.3126  0.1252 -0.2954
  466TIP3    H122813   2.503   3.174  11.604 -3.2406 -0.3062  0.2099
  466TIP3    H222814   2.485   3.322  11.634  0.8748  0.4951 -0.5622
  467TIP3   OH222815   4.998   2.793   0.146  0.0832  0.7034 -0.1947
  467TIP3    H122816   5.014   2.800   0.240 -0.2615 -0.6604 -0.0181
  467TIP3    H222817   4.908   2.762   0.139 -0.1450  1.5119 -1.0012
  468TIP3   OH222818   2.980   2.426   4.450 -0.1590 -0.1795 -0.6245
  468TIP3    H122819   2.940   2.492   4.395 -1.0652 -1.4891 -1.5920
  468TIP3    H222820   2.951   2.342   4.414  2.3017 -1.1953 -0.4971
  469TIP3   OH222821   6.716   4.944   1.536 -0.1273 -0.0350  0.2817
  469TIP3    H122822   6.714   5.010   1.467 -0.1513  2.1159  2.2596
  469TIP3    H222823   6.627   4.907   1.536 -0.4898  0.8149 -0.0157
  470TIP3   OH222824   5.011   3.377  16.037  0.3297 -0.0796  0.6461
  470TIP3    H122825   4.932   3.378  16.092 -0.2948  0.4025 -0.2458
  470TIP3    H222826   5.077   3.422  16.091 -0.6741  1.7551  0.4513
  471TIP3   OH222827   0.981   1.662  14.144 -0.3372 -0.1715 -0.0556
  471TIP3    H122828   0.977   1.688  14.237  0.1837  0.3255 -0.1654
  471TIP3    H222829   0.969   1.744  14.096 -0.7705 -0.4530 -0.4339
  472TIP3   OH222830   0.747   6.389   5.936 -0.1556 -0.0520  0.2063
  472TIP3    H122831   0.791   6.323   5.990  2.0855  0.4454 -0.9091
  472TIP3    H222832   0.741   6.349   5.849 -0.3750  0.5547 -0.0624
  473TIP3   OH222833   6.658   5.862   5.998  0.6304 -0.0852 -0.5329
  473TIP3    H122834   6.736   5.865   6.054  0.4304  0.9043 -0.2969
  473TIP3    H222835   6.691   5.876   5.909  0.7948 -0.3084 -0.5067
  474TIP3   OH222836   1.659   2.019   3.890  0.5042  0.5861  1.1528
  474TIP3    H122837   1.726   2.044   3.826 -0.6850  1.8913  0.3649
  474TIP3    H222838   1.611   1.948   3.848 -0.6455  1.8272  0.2895
  475TIP3   OH222839   6.375   4.270   6.736  0.3309 -0.8119 -0.2251
  475TIP3    H122840   6.426   4.301   6.661 -0.3469  2.7363  0.6038
  475TIP3    H222841   6.438   4.269   6.809  0.1939 -0.7602 -0.1066
  476TIP3   OH222842   3.800   5.906   0.135  0.8337 -0.1877  0.0947
  476TIP3    H122843   3.740   5.980   0.139  0.8581 -0.1561 -0.1427
  476TIP3    H222844   3.783   5.857   0.216  0.8437  0.0958  0.2704
  477TIP3   OH222845   1.692   5.119  15.874 -0.1323 -0.1209  0.1640
  477TIP3    H122846   1.625   5.131  15.807  0.5982  0.9197 -0.4099
  477TIP3    H222847   1.744   5.045  15.843 -0.1539 -0.0232 -0.1073
  478TIP3   OH222848   2.997   2.847   4.476  0.3031 -0.3384 -0.1480
  478TIP3    H122849   2.978   2.928   4.523  1.1692  0.4152 -1.0451
  478TIP3    H222850   2.988   2.871   4.384  0.3653 -1.3198 -0.4136
  479TIP3   OH222851   6.427   4.556  13.923 -0.0130  0.0218  0.1802
  479TIP3    H122852   6.475   4.474  13.920  1.2142  0.7439 -0.8774
  479TIP3    H222853   6.470   4.607  13.991 -0.9251 -0.2842  1.0031
  480TIP3   OH222854   3.939   5.353   2.811  0.0474  0.5593 -0.2122
  480TIP3    H122855   3.972   5.310   2.890 -0.4470  1.0514  0.2697
  480TIP3    H222856   3.845   5.333   2.810  0.0047  0.7573 -0.5524
  481TIP3   OH222857   1.667   5.906  15.159  0.3708 -0.2794 -0.2392
  481TIP3    H122858   1.726   5.960  15.213  0.6180 -0.9190  0.1370
  481TIP3    H222859   1.723   5.873  15.088  0.7421 -1.7262  0.6858
  482TIP3   OH222860   0.882   5.458  14.510  0.0583  0.1047  0.3182
  482TIP3    H122861   0.798   5.415  14.526  0.4484 -0.5793  0.5956
  482TIP3    H222862   0.934   5.437  14.587  0.3239  0.9375  0.3714
  483TIP3   OH222863   6.482   1.529  15.221 -0.2543 -0.3518 -0.0054
  483TIP3    H122864   6.412   1.475  15.184 -0.5942 -0.2557  0.4861
  483TIP3    H222865   6.553   1.523  15.158 -1.2541  0.7810 -1.2905
  484TIP3   OH222866   0.281   0.393   3.657 -0.0577 -0.6396  0.6533
  484TIP3    H122867   0.315   0.340   3.730  1.3398  0.2517  0.6845
  484TIP3    H222868   0.330   0.475   3.662 -1.2029  0.1306 -0.2398
  485TIP3   OH222869   1.660   1.194   4.797  0.2732 -0.0897  0.5100
  485TIP3    H122870   1.598   1.127   4.824  0.8941 -0.2156  1.6824
  485TIP3    H222871   1.744   1.167   4.835  1.1517 -0.1079 -1.3168
  486TIP3   OH222872   1.485   1.564   6.034  0.4085 -0.5128  0.1775
  486TIP3    H122873   1.485   1.479   5.991  2.2840 -1.0160  1.0616
  486TIP3    H222874   1.399   1.570   6.076 -1.0539 -0.4708 -2.6408
  487TIP3   OH222875   0.276   2.620   4.621 -0.5753 -0.7540  0.3734
  487TIP3    H122876   0.275   2.674   4.542  0.7722 -1.3376 -0.0774
  487TIP3    H222877   0.368   2.617   4.647 -0.7433 -2.0549  0.9163
  488TIP3   OH222878   0.877   4.730  15.907 -0.1304 -0.7785  0.2590
  488TIP3    H122879   0.848   4.707  15.819 -1.6180 -1.0233  0.7902
  488TIP3    H222880   0.973   4.726  15.902 -0.1076  0.7853 -1.7577
  489TIP3   OH222881   5.179   3.112  11.862 -0.1820  0.0687 -0.2117
  489TIP3    H122882   5.161   3.128  11.770  0.0250  1.1449 -0.0835
  489TIP3    H222883   5.093   3.103  11.903 -0.2792 -0.1103 -0.4533
  490TIP3   OH222884   1.919   2.499  13.117 -0.6325  0.0083 -0.3045
  490TIP3    H122885   1.824   2.491  13.129 -0.5265 -0.0735  0.5198
  490TIP3    H222886   1.954   2.507  13.206  0.0412  1.0584 -0.6432
  491TIP3   OH222887   4.825   1.986  13.974 -0.1615  0.1998 -0.2729
  491TIP3    H122888   4.812   2.055  13.910 -0.4841  1.3302  0.9526
  491TIP3    H222889   4.738   1.948  13.986 -0.0603 -0.1558 -0.6555
  492TIP3   OH222890   3.086   3.114  16.533  0.4056 -0.1367  0.2361
  492TIP3    H122891   3.157   3.160  16.578  0.0903  1.0405 -0.4280
  492TIP3    H222892   3.063   3.171  16.459 -0.2278 -1.2135 -0.4306
  493TIP3   OH222893   1.653   4.695   4.035  0.1810  0.6405 -0.3334
  493TIP3    H122894   1.571   4.743   4.022  0.1716  0.5925 -0.4532
  493TIP3    H222895   1.721   4.762   4.031  0.0801  0.8115  0.6881
  494TIP3   OH222896   0.620   3.828  10.468 -0.0837 -0.1265  0.0634
  494TIP3    H122897   0.536   3.811  10.511 -0.1730 -0.2409 -0.1519
  494TIP3    H222898   0.685   3.789  10.526 -0.2088 -0.3374  0.0671
  495TIP3   OH222899   1.012   5.935   1.015  0.2530  0.7889  0.2694
  495TIP3    H122900   1.099   5.953   1.051  0.0302  0.4357  1.0033
  495TIP3    H222901   0.968   6.020   1.017  0.7449  1.0734 -0.5795
  496TIP3   OH222902   0.902   0.827  13.144  0.0431  0.6616 -0.1233
  496TIP3    H122903   0.965   0.870  13.086 -1.8457  3.3346 -0.3797
  496TIP3    H222904   0.847   0.775  13.086  1.1245 -0.6551 -0.0392
  497TIP3   OH222905   6.238   5.185  11.779 -0.3023  0.1190 -0.1593
  497TIP3    H122906   6.325   5.147  11.768 -0.8087 -0.6144 -2.0099
  497TIP3    H222907   6.220   5.177  11.873  1.9642  1.1207  0.4298
  498TIP3   OH222908   1.812   1.683   4.054  0.6126  0.6747 -0.1464
  498TIP3    H122909   1.825   1.667   3.961  1.9929  1.6621 -0.1334
  498TIP3    H222910   1.881   1.743   4.079  0.4662  0.1746  1.6024
  499TIP3   OH222911   2.598   4.514   2.505  0.3023  0.3050 -0.0107
  499TIP3    H122912   2.664   4.573   2.542 -0.3238  0.3264  1.1176
  499TIP3    H222913   2.631   4.493   2.418  1.9358  0.1111  0.6202
  500TIP3   OH222914   5.406   5.753  15.381  0.6118 -0.5510 -0.4792
  500TIP3    H122915   5.362   5.668  15.379 -1.6763  0.5107  0.8599
  500TIP3    H222916   5.497   5.732  15.361 -0.2125 -3.0326 -2.2131
  501TIP3   OH222917   1.487   1.275  13.675 -0.2120 -0.3866 -0.1459
  501TIP3    H122918   1.556   1.306  13.616 -3.0698  0.7997 -3.1047
  501TIP3    H222919   1.483   1.181  13.660 -0.8894 -0.1065 -1.9423
  502TIP3   OH222920   1.571   5.451  12.613  0.3495 -0.2507 -0.2828
  502TIP3    H122921   1.599   5.517  12.550 -1.5048 -0.4594 -1.4176
  502TIP3    H222922   1.613   5.370  12.584  1.5285  0.1383  0.2963
  503TIP3   OH222923   3.854   3.874  11.635  0.1963  0.2929  0.2296
  503TIP3    H122924   3.944   3.862  11.604  0.1598 -1.9459  0.8369
  503TIP3    H222925   3.839   3.800  11.695 -3.1646 -1.4355 -2.3989
  504TIP3   OH222926   2.632   4.220  16.931 -0.0358  0.3041 -0.1264
  504TIP3    H122927   2.657   4.238  17.022  0.2929 -3.7223  0.7700
  504TIP3    H222928   2.701   4.261  16.879  1.1678  0.5730  1.6036
  505TIP3   OH222929   2.193   5.250   0.079 -0.1508  0.0496  0.2637
  505TIP3    H122930   2.142   5.171   0.063  1.8493 -1.3930  0.5670
  505TIP3    H222931   2.251   5.257   0.003  0.3935  0.6325  0.7232
  506TIP3   OH222932   6.538   6.788   4.685  0.1492 -0.6894  0.1951
  506TIP3    H122933   6.515   6.708   4.637 -1.4202 -0.3335  0.2951
  506TIP3    H222934   6.514   6.769   4.776  1.2699 -0.6545  0.5150
  507TIP3   OH222935   1.270   4.475  11.686 -0.4010 -0.1203 -0.4010
  507TIP3    H122936   1.292   4.556  11.732 -2.4529 -0.7203  1.8421
  507TIP3    H222937   1.355   4.433  11.671  0.5801  1.7038 -0.2150
  508TIP3   OH222938   0.108   3.492   0.298  0.5529  0.3673  0.4910
  508TIP3    H122939   0.074   3.491   0.209  0.6526 -0.4899  0.4502
  508TIP3    H222940   0.044   3.440   0.348  0.7877  0.3727  0.8031
  509TIP3   OH222941   6.277   2.498  15.086 -1.1507  0.3791  0.3057
  509TIP3    H122942   6.194   2.536  15.058 -2.0855 -0.4454  1.8167
  509TIP3    H222943   6.320   2.568  15.136 -1.0600  0.7020 -0.2135
  510TIP3   OH222944   4.450   2.766   4.250  0.8215  0.5190  0.6515
  510TIP3    H122945   4.451   2.763   4.154  3.8020  1.1459  0.5707
  510TIP3    H222946   4.358   2.784   4.272 -0.4107 -1.8146 -1.9326
  511TIP3   OH222947   0.665   4.036   2.479 -0.0476 -0.6401 -0.6997
  511TIP3    H122948   0.682   4.001   2.567 -0.3384 -3.1600 -1.5475
  511TIP3    H222949   0.572   4.059   2.481  0.0072 -0.4454 -0.2681
  512TIP3   OH222950   1.349   2.849   4.836 -0.1880  0.2200 -0.2524
  512TIP3    H122951   1.367   2.824   4.746 -1.5838 -3.1176  0.2716
  512TIP3    H222952   1.255   2.865   4.838 -0.4118 -1.0753  0.8440
  513TIP3   OH222953   4.694   2.280   2.280  0.2529 -0.6495 -0.0326
  513TIP3    H122954   4.711   2.194   2.242  0.0641 -0.9012  0.4333
  513TIP3    H222955   4.780   2.321   2.287  0.1311  0.1199 -2.3325
  514TIP3   OH222956   4.522   2.288  14.203  0.1136  0.0344  0.6394
  514TIP3    H122957   4.595   2.251  14.252  0.5217  0.8860  0.6855
  514TIP3    H222958   4.445   2.241  14.236  0.3984  0.4501  1.9619
  515TIP3   OH222959   5.870   6.046   5.368 -0.6056 -0.3938  0.0920
  515TIP3    H122960   5.873   6.092   5.285  0.6905  1.9264  1.3178
  515TIP3    H222961   5.785   6.068   5.406 -0.5710 -0.1736  0.0427
  516TIP3   OH222962   5.144   6.607   1.091 -0.0203  0.6734  0.2259
  516TIP3    H122963   5.149   6.682   1.031  0.1374  0.3264 -0.2040
  516TIP3    H222964   5.211   6.625   1.157  1.9990 -0.4129 -1.4279
  517TIP3   OH222965   4.398   2.171  13.900 -0.4818 -0.4919  0.3555
  517TIP3    H122966   4.305   2.188  13.885  0.1414  1.6196 -1.8138
  517TIP3    H222967   4.416   2.209  13.986 -1.2053  1.3498 -0.2470
  518TIP3   OH222968   3.534   3.564  16.334  0.2065  0.0328  0.3204
  518TIP3    H122969   3.620   3.586  16.368  0.1436  2.6268 -0.9360
  518TIP3    H222970   3.473   3.612  16.389 -0.4624 -1.4004  0.8952
  519TIP3   OH222971   5.123   2.060  13.358 -0.5096  0.0635  0.1168
  519TIP3    H122972   5.163   2.103  13.434 -3.7463 -0.6200  2.4148
  519TIP3    H222973   5.046   2.113  13.338  0.3422  0.3596 -3.0226
  520TIP3   OH222974   6.705   3.385   0.486  0.4112  0.3088 -0.1683
  520TIP3    H122975   6.692   3.304   0.535  1.4983 -1.3309 -2.4344
  520TIP3    H222976   6.624   3.397   0.436  0.5194  0.2405 -0.3606
  521TIP3   OH222977   6.073   5.410  13.407 -0.4298  0.0216  0.7885
  521TIP3    H122978   5.991   5.381  13.368  0.2006  0.8198 -1.2321
  521TIP3    H222979   6.094   5.343  13.472 -1.5888 -1.3185 -0.1806
  522TIP3   OH222980   4.619   2.400   5.704 -0.0580 -0.1147 -0.6305
  522TIP3    H122981   4.640   2.425   5.614 -1.6109 -1.0614 -1.3072
  522TIP3    H222982   4.525   2.382   5.703  0.0678 -1.1327  0.9362
  523TIP3   OH222983   4.500   0.626   2.264 -0.8004 -0.2363 -0.6762
  523TIP3    H122984   4.549   0.559   2.310  0.9204  2.1503  1.1767
  523TIP3    H222985   4.555   0.649   2.189 -0.1216  0.8794  0.1477
  524TIP3   OH222986   1.690   0.674  10.818  0.0939 -0.2947 -0.4094
  524TIP3    H122987   1.715   0.620  10.742 -1.7045 -0.9155 -0.6020
  524TIP3    H222988   1.645   0.749  10.780  0.9779  0.4595 -0.0285
  525TIP3   OH222989   3.307   6.633  16.020 -0.3004 -0.1877 -0.6105
  525TIP3    H122990   3.395   6.666  16.036  0.0504  0.3355 -3.1466
  525TIP3    H222991   3.319   6.544  15.988 -0.7343 -0.3632 -0.2938
  526TIP3   OH222992   1.686   4.292  11.055  0.3473  0.0753 -0.0624
  526TIP3    H122993   1.772   4.263  11.085  0.4498  0.9271  0.5127
  526TIP3    H222994   1.703   4.338  10.973  0.4329  0.1931  0.0217
  527TIP3   OH222995   2.950   2.527  16.241  0.2924 -0.3215 -0.2989
  527TIP3    H122996   2.987   2.614  16.226  3.1774 -1.8019 -2.7857
  527TIP3    H222997   2.864   2.530  16.200 -0.3541  1.7233  1.0279
  528TIP3   OH222998   0.169   4.940   1.869  0.1779  0.6101  0.0001
  528TIP3    H122999   0.090   4.931   1.922  0.2878  0.1282  0.0873
  528TIP3    H223000   0.193   5.032   1.879  0.0403  0.5933  0.5745
  529TIP3   OH223001   4.616   3.196   4.899 -0.1819  0.2185 -0.2625
  529TIP3    H123002   4.649   3.191   4.989 -0.5053  0.5363 -0.1201
  529TIP3    H223003   4.644   3.115   4.858  0.5906  0.3885 -0.0853
  530TIP3   OH223004   0.545   0.927  15.561  0.2302 -0.0194  0.0547
  530TIP3    H123005   0.577   0.953  15.648  0.0460  1.7829 -0.3622
  530TIP3    H223006   0.555   0.832  15.559  1.3899  0.0216  1.5871
  531TIP3   OH223007   3.234   0.520  16.086 -0.2451  0.1522  0.3980
  531TIP3    H123008   3.278   0.605  16.083 -0.9021  0.5606  1.6268
  531TIP3    H223009   3.304   0.457  16.108  0.3314  0.2868 -0.9893
  532TIP3   OH223010   6.677   4.835   6.539 -0.4111  0.2076  0.4526
  532TIP3    H123011   6.726   4.813   6.460  0.2891 -0.4635  1.0647
  532TIP3    H223012   6.594   4.788   6.530 -0.2115 -0.1084  0.2602
  533TIP3   OH223013   1.193   2.367   1.127  0.6923  0.0583 -0.0539
  533TIP3    H123014   1.122   2.418   1.165  0.1295 -0.4581 -0.3926
  533TIP3    H223015   1.227   2.315   1.200  1.1336  0.7520  0.2461
  534TIP3   OH223016   1.518   0.886   1.041  0.6148 -0.4163 -0.5456
  534TIP3    H123017   1.589   0.884   0.977  2.5698  0.5766  1.4391
  534TIP3    H223018   1.548   0.949   1.107 -2.5027  0.6450 -0.0033
  535TIP3   OH223019   1.298   3.773   0.821 -0.7225  0.5322  0.6027
  535TIP3    H123020   1.362   3.813   0.880  1.7773 -1.7269 -0.3356
  535TIP3    H223021   1.268   3.695   0.867  1.3407 -1.3228 -0.9665
  536TIP3   OH223022   0.264   2.871  13.899  0.0942 -0.5403  0.2898
  536TIP3    H123023   0.247   2.817  13.823 -1.1579 -0.8276  0.7540
  536TIP3    H223024   0.204   2.945  13.891  1.5675  0.6669 -0.1835
  537TIP3   OH223025   3.592   3.842  11.894 -0.0799 -0.8377  0.4009
  537TIP3    H123026   3.669   3.877  11.939 -0.3681 -0.2606  0.4630
  537TIP3    H223027   3.543   3.796  11.962  0.0028 -0.8465  0.4554
  538TIP3   OH223028   2.949   6.412   3.151  1.0383 -0.4442 -0.0135
  538TIP3    H123029   2.917   6.330   3.113  0.7157  0.0462 -0.8256
  538TIP3    H223030   2.896   6.480   3.110  0.2310  0.0807  1.7817
  539TIP3   OH223031   3.707   4.728  11.915  0.1866  0.1017 -0.0952
  539TIP3    H123032   3.771   4.672  11.960  0.9873  0.8630 -0.2798
  539TIP3    H223033   3.649   4.758  11.985 -0.2227 -0.8899  0.0209
  540TIP3   OH223034   1.743   6.125  14.415 -0.1612  0.2685  0.0391
  540TIP3    H123035   1.680   6.170  14.359  0.2652 -0.0670 -0.7217
  540TIP3    H223036   1.804   6.194  14.442 -0.2662  0.3991 -0.0556
  541TIP3   OH223037   0.781   1.311   4.416  0.0285  0.1266 -0.2311
  541TIP3    H123038   0.689   1.283   4.412 -0.1946  0.5927  1.1040
  541TIP3    H223039   0.811   1.283   4.502  0.5300  1.7417  0.1628
  542TIP3   OH223040   3.030   5.918  13.505  0.3379  0.2889 -0.6231
  542TIP3    H123041   2.999   5.972  13.578 -0.1394 -1.1410  0.2668
  542TIP3    H223042   2.966   5.932  13.435 -1.6113 -1.5528  0.7057
  543TIP3   OH223043   5.522   2.981  16.047 -0.8460 -0.2015 -0.4423
  543TIP3    H123044   5.443   2.962  16.098 -0.3577 -2.0078 -0.2951
  543TIP3    H223045   5.489   3.016  15.965 -1.7374  0.4688  0.1788
  544TIP3   OH223046   5.291   2.992   3.652  0.7790 -0.2460  0.4016
  544TIP3    H123047   5.380   3.010   3.621  1.1912 -3.2099 -0.4491
  544TIP3    H223048   5.235   3.015   3.578  1.0321 -0.1589  0.2365
  545TIP3   OH223049   2.305   5.534  10.531 -0.6173 -0.0201  0.2570
  545TIP3    H123050   2.306   5.439  10.520 -1.5196  0.0763 -0.8328
  545TIP3    H223051   2.395   5.556  10.556 -0.2834 -1.1054  0.0705
  546TIP3   OH223052   3.882   0.215   4.912 -0.4370 -0.3044 -0.0678
  546TIP3    H123053   3.917   0.146   4.969 -1.0016 -0.3364  0.2454
  546TIP3    H223054   3.928   0.202   4.829 -0.8413 -1.3316 -0.1510
  547TIP3   OH223055   1.972   2.736   5.367  0.4041  0.8294 -0.0461
  547TIP3    H123056   1.937   2.656   5.407 -0.2432  0.4884 -1.2545
  547TIP3    H223057   2.052   2.754   5.416  0.7075 -0.7309  0.0779
  548TIP3   OH223058   0.826   2.514   1.974 -0.2663  0.0010 -0.5663
  548TIP3    H123059   0.871   2.500   1.890  0.3998 -0.7097 -0.1051
  548TIP3    H223060   0.893   2.497   2.040 -1.4340 -2.0026  0.1781
  549TIP3   OH223061   2.891   1.802  11.225 -0.4195 -0.4671  0.2422
  549TIP3    H123062   2.891   1.836  11.135  1.2725  0.4875  0.5523
  549TIP3    H223063   2.862   1.876  11.278 -2.2676 -1.2919  0.4382
  550TIP3   OH223064   0.812   6.251   0.134  0.8890  0.5561  0.2549
  550TIP3    H123065   0.842   6.335   0.100 -1.7548  1.1021 -0.9352
  550TIP3    H223066   0.737   6.228   0.080  0.1872 -1.5336  1.9598
  551TIP3   OH223067   4.064   0.738   0.654  0.2111  0.0031  0.1661
  551TIP3    H123068   4.006   0.727   0.579 -0.6085 -0.0787  0.8022
  551TIP3    H223069   4.063   0.832   0.672 -0.2457 -0.0741  0.5741
  552TIP3   OH223070   5.510   2.331  16.215  0.2581 -0.1686  0.0639
  552TIP3    H123071   5.546   2.261  16.270 -0.0334  0.1289  0.6526
  552TIP3    H223072   5.419   2.340  16.246 -0.1675 -0.5573 -1.0396
  553TIP3   OH223073   5.492   2.478   1.781  0.3774  0.9557  0.4685
  553TIP3    H123074   5.584   2.468   1.803  0.5459  1.2259 -0.1307
  553TIP3    H223075   5.489   2.548   1.717  0.0546 -0.7744 -1.5241
  554TIP3   OH223076   0.889   1.702  15.035 -0.1805  0.1733  0.0235
  554TIP3    H123077   0.924   1.787  15.008 -0.5392  0.9967  2.0019
  554TIP3    H223078   0.797   1.720  15.058 -0.4252 -0.8708 -0.0813
  555TIP3   OH223079   3.301   1.879   4.394  0.0082  0.1535  0.1013
  555TIP3    H123080   3.248   1.799   4.391  1.0715 -0.5844  0.3328
  555TIP3    H223081   3.316   1.900   4.302 -1.8042  1.1782 -0.0196
  556TIP3   OH223082   6.731   5.059  12.546  0.5833 -0.1519  0.2840
  556TIP3    H123083   6.649   5.022  12.579  0.2261  0.2204 -0.1686
  556TIP3    H223084   6.753   5.004  12.470  0.4756  0.0699  0.0920
  557TIP3   OH223085   5.446   6.079  13.341 -0.0272 -0.1104 -0.5021
  557TIP3    H123086   5.380   6.011  13.330  1.3543 -1.5706 -0.1046
  557TIP3    H223087   5.441   6.103  13.433 -1.8124  1.7562 -1.0303
  558TIP3   OH223088   0.457   3.908  16.732  0.4070  0.1770  0.1963
  558TIP3    H123089   0.390   3.975  16.723  1.3799  0.8813 -3.3114
  558TIP3    H223090   0.408   3.826  16.740 -0.8080  0.9876  1.4855
  559TIP3   OH223091   3.858   4.214   2.367  0.0812  0.0738  0.2979
  559TIP3    H123092   3.851   4.301   2.406  1.6331  0.7876 -0.8858
  559TIP3    H223093   3.786   4.211   2.303  0.0078  0.4908  0.3590
  560TIP3   OH223094   2.169   2.851  12.820 -0.4106 -0.0526 -0.7756
  560TIP3    H123095   2.104   2.856  12.889  0.6438  0.1644  0.2332
  560TIP3    H223096   2.164   2.760  12.789 -2.4519  0.4332 -2.0215
  561TIP3   OH223097   2.652   2.154  14.824 -0.9183  0.4667  0.2595
  561TIP3    H123098   2.584   2.088  14.817  0.6286 -1.3533  1.4691
  561TIP3    H223099   2.732   2.110  14.793 -0.3083  2.6622 -1.5781
  562TIP3   OH223100   4.336   4.356  10.522  0.1230  0.0330  0.4564
  562TIP3    H123101   4.417   4.404  10.508  1.0707 -1.6513 -0.1235
  562TIP3    H223102   4.278   4.384  10.452  0.8090  0.0201 -0.1216
  563TIP3   OH223103   0.656   5.452  15.654 -0.2836  0.0957 -0.1291
  563TIP3    H123104   0.626   5.496  15.733 -0.0736  0.4104 -0.2216
  563TIP3    H223105   0.688   5.367  15.684 -0.4450  0.1111  0.0867
  564TIP3   OH223106   6.256   3.581   4.384 -0.1283 -0.1365  0.0716
  564TIP3    H123107   6.188   3.599   4.449  0.6127 -1.2185  1.1795
  564TIP3    H223108   6.260   3.661   4.332 -2.4358 -0.1468 -0.2175
  565TIP3   OH223109   5.490   4.982  11.236 -0.0622  0.0267  0.9824
  565TIP3    H123110   5.433   5.037  11.181 -1.0857  0.0555  2.0340
  565TIP3    H223111   5.546   5.044  11.281  0.7460  0.0071  0.0503
  566TIP3   OH223112   5.301   5.375  11.941  0.5118 -0.0436 -0.6028
  566TIP3    H123113   5.367   5.343  12.003 -0.7569 -1.9671 -0.1796
  566TIP3    H223114   5.319   5.326  11.861  1.2413  1.4017 -1.3695
  567TIP3   OH223115   4.063   2.452   4.373 -0.4868  0.1536 -0.3254
  567TIP3    H123116   4.125   2.495   4.434  0.3816  0.5499 -1.4551
  567TIP3    H223117   4.106   2.457   4.288 -1.9979  0.2343 -1.1112
  568TIP3   OH223118   4.280   6.404  16.055  0.1536  0.3116 -0.0770
  568TIP3    H123119   4.204   6.371  16.102 -0.0069  1.0185  0.1739
  568TIP3    H223120   4.244   6.472  15.997  0.5386  0.3974 -0.2159
  569TIP3   OH223121   0.221   3.124  12.373 -0.4025 -0.2215  0.0087
  569TIP3    H123122   0.257   3.213  12.377  1.2362 -0.9032  2.5193
  569TIP3    H223123   0.128   3.135  12.390 -0.5577  1.1338 -1.4674
  570TIP3   OH223124   4.901   3.405  12.235  0.7131  0.0417  0.1382
  570TIP3    H123125   4.890   3.319  12.277  1.5321  0.7208  1.8483
  570TIP3    H223126   4.873   3.391  12.145  0.8352 -2.0366  0.3632
  571TIP3   OH223127   2.997   3.528  12.231 -0.2186  0.0639  0.6798
  571TIP3    H123128   2.981   3.623  12.230  0.0001  0.0989  0.5578
  571TIP3    H223129   3.069   3.517  12.293 -0.6656 -0.0885  1.1781
  572TIP3   OH223130   3.804   6.509  12.817  0.0234  0.8332  0.4806
  572TIP3    H123131   3.863   6.557  12.759 -1.5743  1.7771 -0.4540
  572TIP3    H223132   3.717   6.522  12.778 -0.5102 -3.1724 -0.0803
  573TIP3   OH223133   3.310   1.217  13.951  0.1690 -0.1135 -0.4830
  573TIP3    H123134   3.319   1.294  13.895 -0.1874 -1.9196 -3.1857
  573TIP3    H223135   3.396   1.207  13.992 -0.1937  2.5065  1.1628
  574TIP3   OH223136   2.809   3.241   4.416 -0.1556 -0.1412  0.3512
  574TIP3    H123137   2.876   3.194   4.465  0.2649 -1.0977 -1.0650
  574TIP3    H223138   2.829   3.222   4.324 -2.6044 -0.8136 -0.1282
  575TIP3   OH223139   3.353   2.538  16.913 -0.7957  0.9254 -0.2567
  575TIP3    H123140   3.358   2.479  16.988 -0.4458  0.7951 -0.3827
  575TIP3    H223141   3.410   2.498  16.847 -1.5131  0.7538 -0.7850
  576TIP3   OH223142   5.148   0.692  14.891  0.2098  0.0378 -0.0143
  576TIP3    H123143   5.208   0.746  14.839  1.4079  0.7565  2.0030
  576TIP3    H223144   5.061   0.727  14.872  0.7844  1.3920 -0.2428
  577TIP3   OH223145   1.286   6.172  11.046 -0.1151 -0.3401  0.0053
  577TIP3    H123146   1.223   6.212  11.105  1.8421  0.9124  1.3913
  577TIP3    H223147   1.234   6.141  10.972 -2.2052  1.7548  0.4671
  578TIP3   OH223148   2.205   0.989  11.711  0.8271 -0.2997  0.1207
  578TIP3    H123149   2.265   1.062  11.724  0.3572  0.7676 -2.9351
  578TIP3    H223150   2.227   0.954  11.625 -3.3646  0.7883 -1.6896
  579TIP3   OH223151   3.247   3.365  10.809  0.4113  0.0640  0.2717
  579TIP3    H123152   3.241   3.270  10.797  1.6665 -0.1861  1.3650
  579TIP3    H223153   3.341   3.382  10.820  0.0381  1.0990  2.4596
  580TIP3   OH223154   1.249   4.555   4.896  0.3136  0.1604 -0.2181
  580TIP3    H123155   1.193   4.618   4.850 -1.2575  1.3514  3.0339
  580TIP3    H223156   1.269   4.489   4.830 -1.0665  2.1180 -2.7906
  581TIP3   OH223157   6.373   4.948   5.167  0.1198 -0.2631 -0.5244
  581TIP3    H123158   6.455   4.903   5.146  0.0126 -0.6070 -0.2121
  581TIP3    H223159   6.353   4.922   5.257 -1.1912 -1.5108 -1.1429
  582TIP3   OH223160   6.101   4.839   1.332  0.0446  0.2678  0.2108
  582TIP3    H123161   6.182   4.789   1.323  1.3240  1.9399  1.6689
  582TIP3    H223162   6.126   4.929   1.311 -1.2845  0.9013  1.2048
  583TIP3   OH223163   6.177   0.612  16.489  0.8714  0.5984 -0.5183
  583TIP3    H123164   6.246   0.669  16.524  1.0276  1.0571 -1.5579
  583TIP3    H223165   6.133   0.578  16.567  1.3229  1.4711  0.1342
  584TIP3   OH223166   3.522   5.161  11.842 -0.4378 -0.1650  0.3251
  584TIP3    H123167   3.456   5.183  11.777 -1.0251  1.7123  1.4805
  584TIP3    H223168   3.562   5.244  11.866  0.7085 -0.9671  1.3796
  585TIP3   OH223169   4.259   3.038  15.465  0.2748 -0.1296 -0.1003
  585TIP3    H123170   4.221   3.094  15.398 -0.3206  0.7663  0.9537
  585TIP3    H223171   4.206   3.054  15.543  2.0099  0.2015  1.0682
  586TIP3   OH223172   1.610   4.458  12.335 -0.6560  0.1242 -0.4358
  586TIP3    H123173   1.699   4.438  12.364 -1.4054 -0.9925  1.2022
  586TIP3    H223174   1.578   4.522  12.399 -0.7696  1.1990 -1.5217
  587TIP3   OH223175   0.586   5.194  16.441 -0.1516 -0.1946 -0.0604
  587TIP3    H123176   0.533   5.179  16.519  0.7725  0.5515  0.7371
  587TIP3    H223177   0.523   5.211  16.372 -1.0111 -1.3899  0.3905
  588TIP3   OH223178   5.049   4.990  11.530  0.9007 -0.1519 -0.1542
  588TIP3    H123179   5.105   5.065  11.550 -0.9250  1.1057  0.4836
  588TIP3    H223180   5.023   5.004  11.439  0.1643  0.2914  0.1139
  589TIP3   OH223181   4.132   5.186  11.942  0.4114  0.5161  0.0562
  589TIP3    H123182   4.136   5.282  11.945  0.0705  0.5751 -0.9230
  589TIP3    H223183   4.216   5.157  11.977  0.2584  1.1507  0.9864
  590TIP3   OH223184   5.878   1.471   3.565 -0.3511  0.0298 -0.1302
  590TIP3    H123185   5.854   1.509   3.650  0.4103 -1.2193  0.6703
  590TIP3    H223186   5.973   1.478   3.561 -0.2005 -1.6181 -0.0197
  591TIP3   OH223187   1.244   4.494   3.284  0.3215  0.5355 -0.1096
  591TIP3    H123188   1.299   4.417   3.300  0.0018  0.4146  0.4224
  591TIP3    H223189   1.183   4.496   3.358  0.1354  1.1316 -0.2757
  592TIP3   OH223190   1.486   3.484  15.030  0.3945 -0.2701  0.0606
  592TIP3    H123191   1.553   3.420  15.055  2.4020  1.4951 -0.5228
  592TIP3    H223192   1.463   3.528  15.112  0.2253 -0.6287  0.2066
  593TIP3   OH223193   3.063   0.126   2.356  0.2056  0.0646 -0.0334
  593TIP3    H123194   3.123   0.078   2.413  0.3412  0.5724  0.2507
  593TIP3    H223195   2.982   0.074   2.358  0.7375 -0.8150 -0.7067
  594TIP3   OH223196   6.226   0.001   2.903 -0.1665 -0.3075 -0.2724
  594TIP3    H123197   6.218   0.078   2.958 -3.1594 -1.4994  1.1950
  594TIP3    H223198   6.286  -0.057   2.950 -1.8167 -0.8468  1.2778
  595TIP3   OH223199   4.516   4.292   1.873 -0.2245 -0.2543  0.1159
  595TIP3    H123200   4.544   4.233   1.944 -1.0039 -1.0040 -0.1811
  595TIP3    H223201   4.424   4.269   1.858 -0.8671  1.7818  0.7101
  596TIP3   OH223202   1.647   4.381  15.577  0.3103 -0.5114 -0.3224
  596TIP3    H123203   1.611   4.389  15.666  0.6214 -3.6879  0.2133
  596TIP3    H223204   1.689   4.465  15.560  0.6726  0.0393  2.7642
  597TIP3   OH223205   4.427   2.674  16.127  0.6539  0.3701  0.1665
  597TIP3    H123206   4.336   2.677  16.097  0.3957 -0.3098  0.8327
  597TIP3    H223207   4.478   2.709  16.054 -0.1791  1.2255 -0.0262
  598TIP3   OH223208   1.339   0.708  10.802  0.0429  0.3835 -0.1211
  598TIP3    H123209   1.331   0.613  10.795  0.0044  0.3702  0.0906
  598TIP3    H223210   1.275   0.742  10.740 -1.0152  0.2724  0.8664
  599TIP3   OH223211   1.286   4.799   4.193 -0.0486 -0.4634  0.3369
  599TIP3    H123212   1.368   4.774   4.235 -0.5236 -0.5945  1.2034
  599TIP3    H223213   1.225   4.728   4.215 -1.0679  0.7794  1.7481
  600TIP3   OH223214   0.199   2.801   4.049 -0.7293  0.1117  0.2439
  600TIP3    H123215   0.277   2.764   4.089 -1.3556  0.2465  1.6364
  600TIP3    H223216   0.149   2.725   4.018 -0.4428 -0.0159  0.0957
  601TIP3   OH223217   5.979   6.694   2.930  0.1357 -0.0592 -0.4965
  601TIP3    H123218   5.955   6.716   3.020 -0.3886  1.6170 -0.9949
  601TIP3    H223219   6.064   6.736   2.917 -0.1428  0.3680 -0.9936
  602TIP3   OH223220   2.106   1.164  13.902 -0.5262 -0.1595  0.3900
  602TIP3    H123221   2.177   1.104  13.926  1.1159  1.6412  0.2033
  602TIP3    H223222   2.031   1.132  13.952 -0.1537 -3.2153 -0.7433
  603TIP3   OH223223   2.722   3.118  12.419  0.2478 -0.5181  0.3827
  603TIP3    H123224   2.629   3.134  12.434  0.5102  0.4233  1.0850
  603TIP3    H223225   2.758   3.204  12.397  0.7945 -1.0296 -0.8225
  604TIP3   OH223226   5.152   4.770   3.900 -0.0873  0.1002 -0.1496
  604TIP3    H123227   5.139   4.794   3.808 -0.0709 -1.6254 -0.6482
  604TIP3    H223228   5.064   4.758   3.934 -0.0779 -0.0545 -0.1784
  605TIP3   OH223229   3.756   4.458   3.772  0.4980 -0.6184 -0.0476
  605TIP3    H123230   3.683   4.496   3.724 -1.2307 -0.7607  2.2869
  605TIP3    H223231   3.748   4.364   3.757  0.6513 -0.5750 -0.3956
  606TIP3   OH223232   2.883   5.173  15.161 -0.3322  0.6840 -0.3803
  606TIP3    H123233   2.956   5.161  15.223 -0.5940 -0.3146 -0.2388
  606TIP3    H223234   2.883   5.266  15.141 -0.0261  0.9757  0.8748
  607TIP3   OH223235   2.386   1.372   1.951 -0.0925 -0.4151  0.3388
  607TIP3    H123236   2.375   1.440   1.885 -1.0053  0.0357  0.9376
  607TIP3    H223237   2.301   1.327   1.955  0.4307 -1.4714  0.0934
  608TIP3   OH223238   5.917   3.181  14.085  0.4753 -0.2645 -0.1954
  608TIP3    H123239   5.988   3.172  14.148  1.0422  0.7773 -0.6572
  608TIP3    H223240   5.937   3.118  14.016 -0.5494 -1.9582  0.9801
  609TIP3   OH223241   5.236   3.468   1.798  0.7268 -0.2901 -0.7369
  609TIP3    H123242   5.285   3.394   1.834 -0.8300 -0.7807  0.5142
  609TIP3    H223243   5.208   3.518   1.875 -1.1663 -0.3394 -1.3299
  610TIP3   OH223244   6.683   4.141   4.901  0.3362 -0.3316  0.0469
  610TIP3    H123245   6.769   4.104   4.884 -0.5128 -1.6603 -1.6509
  610TIP3    H223246   6.622   4.081   4.857 -1.2112  2.5575 -2.0377
  611TIP3   OH223247   1.550   6.018  12.610  0.0582 -0.0044  0.1255
  611TIP3    H123248   1.501   6.088  12.654 -0.5792 -0.8551  0.8017
  611TIP3    H223249   1.597   6.062  12.539 -1.6400  0.8573 -0.5176
  612TIP3   OH223250   3.145   5.952  11.305 -0.0908 -0.3498  0.5579
  612TIP3    H123251   3.204   5.884  11.336 -0.8481 -0.6947  1.2743
  612TIP3    H223252   3.176   6.032  11.348  0.0708 -0.4580  0.6434
  613TIP3   OH223253   4.531   5.462  16.612 -0.1661 -0.2992  0.5338
  613TIP3    H123254   4.491   5.394  16.667 -2.6095  1.4124  1.0516
  613TIP3    H223255   4.604   5.494  16.664  0.5042 -1.8998  0.6461
  614TIP3   OH223256   5.663   3.837   2.370  0.3799 -0.5086  0.5744
  614TIP3    H123257   5.666   3.924   2.411 -1.2914 -0.5850  0.9341
  614TIP3    H223258   5.686   3.777   2.442  0.9929 -0.4174  0.4633
  615TIP3   OH223259   3.093   6.200  12.520 -0.1227  0.1124 -0.1920
  615TIP3    H123260   3.084   6.274  12.460  1.3679  1.0556  0.6858
  615TIP3    H223261   3.062   6.125  12.470  1.8555  0.7064 -2.5092
  616TIP3   OH223262   3.113   5.732  12.548 -0.0741 -0.0796  0.5237
  616TIP3    H123263   3.094   5.736  12.454 -0.4388 -0.2005  0.5914
  616TIP3    H223264   3.200   5.691  12.553 -0.4988 -1.0396  0.2809
  617TIP3   OH223265   2.114   1.279  17.117 -0.6189  0.7510  0.8317
  617TIP3    H123266   2.078   1.204  17.069  2.8698 -0.2433 -0.5566
  617TIP3    H223267   2.087   1.264  17.208  0.5450 -2.7776  0.7734
  618TIP3   OH223268   3.308   5.238  11.695  0.2163  0.5030  0.0893
  618TIP3    H123269   3.304   5.285  11.612 -3.1477  0.2832  0.0094
  618TIP3    H223270   3.261   5.157  11.679 -0.0878  0.2475  2.0699
  619TIP3   OH223271   1.625   5.405  14.442 -0.6566  0.0131  0.8644
  619TIP3    H123272   1.628   5.309  14.445  0.6554 -0.1051 -1.5705
  619TIP3    H223273   1.703   5.433  14.489  0.3431 -0.2638 -0.5651
  620TIP3   OH223274   6.308   2.529  11.377 -0.2729  0.0555 -0.4474
  620TIP3    H123275   6.373   2.553  11.311  0.7203 -1.8043 -0.2096
  620TIP3    H223276   6.305   2.603  11.437  1.1874  0.4358 -0.8183
  621TIP3   OH223277   2.140   1.573  11.925 -0.7453 -0.0803 -0.2871
  621TIP3    H123278   2.145   1.538  11.836 -0.4474 -1.1996  0.1439
  621TIP3    H223279   2.057   1.539  11.959 -0.0059 -1.2097  0.4637
  622TIP3   OH223280   5.167   0.544   2.686  0.3732  0.5435 -0.0669
  622TIP3    H123281   5.242   0.515   2.738  0.7161 -1.8937 -1.7530
  622TIP3    H223282   5.176   0.639   2.681  3.1454  0.3555  0.0643
  623TIP3   OH223283   0.522   6.536  14.523 -0.1829 -0.1433  0.3834
  623TIP3    H123284   0.432   6.568  14.515 -0.1472 -0.2087 -0.3364
  623TIP3    H223285   0.575   6.616  14.533 -0.1193  0.0438 -1.1626
  624TIP3   OH223286   0.334   0.254   1.818  0.1262  0.5556 -0.7316
  624TIP3    H123287   0.388   0.181   1.847  0.6120  0.6461 -1.3725
  624TIP3    H223288   0.246   0.218   1.813 -0.0897  0.6926  1.3725
  625TIP3   OH223289   3.413   1.614   4.183 -0.4105 -0.6921 -0.7816
  625TIP3    H123290   3.397   1.521   4.201 -1.4689 -0.3523  0.1689
  625TIP3    H223291   3.447   1.649   4.266  0.4761 -0.3149 -1.2806
  626TIP3   OH223292   4.135   6.549  16.927 -0.5079 -0.2646 -0.5899
  626TIP3    H123293   4.054   6.565  16.878 -0.8083  0.7696  0.2065
  626TIP3    H223294   4.204   6.550  16.860 -0.5636  3.7005 -0.8636
  627TIP3   OH223295   0.573   3.113  15.231  0.1811  0.6404  0.4847
  627TIP3    H123296   0.637   3.080  15.294  1.9066  0.4317 -1.2384
  627TIP3    H223297   0.573   3.047  15.161  0.1899  1.9730 -0.8429
  628TIP3   OH223298   6.657   4.784   2.894 -0.1299 -0.7710 -0.2318
  628TIP3    H123299   6.576   4.766   2.941  0.5394 -0.3280  1.1642
  628TIP3    H223300   6.722   4.726   2.935  0.7200  0.4477  0.2155
  629TIP3   OH223301   1.642   2.627  12.300 -0.0323 -0.3822 -0.2409
  629TIP3    H123302   1.715   2.600  12.356  0.7812 -0.9890 -1.5485
  629TIP3    H223303   1.683   2.670  12.226 -1.0533 -0.2486 -0.7468
  630TIP3   OH223304   0.131   3.764   5.944 -0.3911  0.1888  0.1816
  630TIP3    H123305   0.224   3.756   5.968 -0.4609  0.8858  0.7337
  630TIP3    H223306   0.107   3.678   5.911  0.1749 -0.3267  1.0606
  631TIP3   OH223307   4.667   0.094  16.426  0.4513 -0.4261 -0.1893
  631TIP3    H123308   4.610   0.076  16.351  0.3454 -0.3368 -0.1301
  631TIP3    H223309   4.725   0.164  16.396 -0.7576  0.8695  0.3940
  632TIP3   OH223310   3.455   4.277  16.287 -0.3164 -0.7979  0.2409
  632TIP3    H123311   3.437   4.259  16.194  0.2994  1.0329 -0.2655
  632TIP3    H223312   3.391   4.343  16.312  0.1247 -0.5880  0.8535
  633TIP3   OH223313   3.491   1.335   4.675 -0.3516  0.0189  0.2838
  633TIP3    H123314   3.471   1.352   4.582  0.2985 -0.1283  0.1133
  633TIP3    H223315   3.488   1.422   4.715 -0.1250  0.1507  0.0223
  634TIP3   OH223316   4.652   3.324   6.383 -0.1997 -0.1699 -0.1203
  634TIP3    H123317   4.703   3.336   6.463  2.9438 -0.2900 -1.9168
  634TIP3    H223318   4.664   3.406   6.334 -0.5874 -0.7209 -1.1851
  635TIP3   OH223319   2.951   2.814  16.858 -0.7317  0.4765 -0.0607
  635TIP3    H123320   2.955   2.726  16.822  0.1271  0.5939 -0.2624
  635TIP3    H223321   2.941   2.800  16.953 -0.4230  0.1587 -0.0708
  636TIP3   OH223322   6.601   3.786  11.621  0.4229  0.3535  0.2171
  636TIP3    H123323   6.581   3.702  11.580 -1.1659  0.6638  0.2845
  636TIP3    H223324   6.669   3.825  11.567  1.1974 -0.9846  0.2074
  637TIP3   OH223325   0.578   4.790   5.277 -0.0423 -0.7656  0.3316
  637TIP3    H123326   0.622   4.719   5.229  0.9866 -0.3303  0.6019
  637TIP3    H223327   0.526   4.745   5.344  0.7594 -1.2749  0.6333
  638TIP3   OH223328   5.156   4.374   3.512  0.4811  0.0875 -0.0420
  638TIP3    H123329   5.191   4.344   3.428  0.6738 -0.8210  0.3465
  638TIP3    H223330   5.116   4.296   3.550  2.0621 -0.0045  1.5454
  639TIP3   OH223331   5.070   1.871   5.392 -0.0844 -0.0768  0.4570
  639TIP3    H123332   5.044   1.804   5.456 -0.1608 -1.1624 -0.6666
  639TIP3    H223333   5.055   1.830   5.307  0.1696  1.2750 -0.2685
  640TIP3   OH223334   6.472   3.858   3.003  0.1941  0.8214 -0.0376
  640TIP3    H123335   6.396   3.846   3.060 -0.4397  2.6847 -0.4369
  640TIP3    H223336   6.547   3.837   3.059 -0.5688 -1.1643  0.3289
  641TIP3   OH223337   6.750   5.352  13.546 -0.8557 -0.5468  0.1222
  641TIP3    H123338   6.741   5.440  13.509 -0.0890 -0.9609 -1.1090
  641TIP3    H223339   6.702   5.296  13.485  0.5631 -1.2688 -0.3870
  642TIP3   OH223340   0.873   0.046  14.291 -0.1601 -0.2674  0.0288
  642TIP3    H123341   0.932   0.034  14.366 -0.9185  1.7277  1.0351
  642TIP3    H223342   0.817  -0.032  14.293  0.3308 -0.6219  1.0845
  643TIP3   OH223343   2.540   6.709  11.601  0.5005 -0.4602  0.5236
  643TIP3    H123344   2.572   6.730  11.513 -0.6141  1.4954  0.5312
  643TIP3    H223345   2.550   6.791  11.650  0.1112 -1.2287  1.9235
  644TIP3   OH223346   0.611   5.955  15.568 -0.1120 -0.4592  0.0677
  644TIP3    H123347   0.532   5.967  15.622  0.4663 -1.0742  1.0707
  644TIP3    H223348   0.602   5.867  15.532 -0.7447  0.1324 -1.2928
  645TIP3   OH223349   1.333   6.622   0.885  0.6201 -0.4995  0.3431
  645TIP3    H123350   1.250   6.588   0.917 -0.8005  2.1806 -0.1217
  645TIP3    H223351   1.347   6.578   0.801  0.0309 -1.5035  0.7649
  646TIP3   OH223352   3.098   0.424  13.330 -0.1209 -0.5192 -0.2255
  646TIP3    H123353   3.146   0.360  13.277  0.6189  0.1993 -0.4458
  646TIP3    H223354   3.077   0.378  13.410  0.3797 -1.0530 -0.3963
  647TIP3   OH223355   5.587   5.150   4.160  0.1875 -0.6769  0.7352
  647TIP3    H123356   5.663   5.103   4.193  0.5888 -1.1782 -0.8407
  647TIP3    H223357   5.584   5.131   4.067 -2.0990 -0.9909  0.7960
  648TIP3   OH223358   4.331   1.689  14.081  0.1383  0.2080  0.1776
  648TIP3    H123359   4.298   1.605  14.050  0.2450 -0.1536  1.0319
  648TIP3    H223360   4.423   1.672  14.103  0.5154  0.8548 -0.7998
  649TIP3   OH223361   1.420   0.372   5.236  0.1067 -0.1463  0.1534
  649TIP3    H123362   1.341   0.423   5.253  0.4830  0.2833  0.6701
  649TIP3    H223363   1.412   0.343   5.145 -0.4399  0.2526  0.0742
  650TIP3   OH223364   3.326   2.902  16.096 -0.5598  0.5333 -0.1217
  650TIP3    H123365   3.348   2.870  16.183 -2.0629  1.2542  0.5766
  650TIP3    H223366   3.382   2.978  16.083  0.4795 -0.2502 -0.2781
  651TIP3   OH223367   6.775   0.407   2.026  0.5601  0.8043  0.0209
  651TIP3    H123368   6.743   0.491   2.057  0.2676  0.7014  0.0015
  651TIP3    H223369   6.837   0.428   1.957 -0.0908  0.9825 -0.5206
  652TIP3   OH223370   4.480   4.778  13.652  0.6824 -0.0038 -0.2316
  652TIP3    H123371   4.429   4.848  13.693 -1.2944 -0.7434 -1.2858
  652TIP3    H223372   4.520   4.819  13.575 -2.5685 -0.4779 -2.3521
  653TIP3   OH223373   4.339   3.633   2.275 -0.8709 -0.4236  0.2359
  653TIP3    H123374   4.273   3.569   2.248 -0.2798 -1.8310  1.9759
  653TIP3    H223375   4.377   3.597   2.355  1.0901  0.9987  0.0252
  654TIP3   OH223376   4.965   6.133  12.332  0.8841 -0.0060 -0.1675
  654TIP3    H123377   4.971   6.132  12.428  2.9087 -0.0672 -0.2415
  654TIP3    H223378   4.969   6.041  12.307 -4.6036 -0.5552 -0.2525
  655TIP3   OH223379   0.902   1.848   6.817  0.0366 -0.2348  0.0751
  655TIP3    H123380   0.822   1.882   6.778  0.6747 -0.3234 -1.3474
  655TIP3    H223381   0.928   1.777   6.760  0.5717 -0.9107  1.1279
  656TIP3   OH223382   5.707   2.957  10.562 -0.5403  0.0024 -0.3603
  656TIP3    H123383   5.716   3.038  10.513 -1.2214  0.0758 -0.3599
  656TIP3    H223384   5.723   2.982  10.653 -2.4782  0.4866 -0.1127
  657TIP3   OH223385   0.895   0.849   2.324 -0.3790 -0.3747 -0.3592
  657TIP3    H123386   0.955   0.865   2.396  0.6119 -0.4119 -1.1526
  657TIP3    H223387   0.824   0.799   2.363  0.2012 -0.5025  0.5645
  658TIP3   OH223388   4.213   5.775  11.861 -0.4555 -0.1899  0.1365
  658TIP3    H123389   4.253   5.861  11.851  0.9362 -0.7985  0.2067
  658TIP3    H223390   4.287   5.714  11.861 -1.4549 -1.4623 -0.7577
  659TIP3   OH223391   1.965   1.014   0.562 -0.1094 -0.6281 -0.2565
  659TIP3    H123392   1.919   0.942   0.519  1.2024 -0.5841 -1.8557
  659TIP3    H223393   1.900   1.053   0.620 -1.6882 -1.3439 -1.4540
  660TIP3   OH223394   4.590   5.202   5.620  0.1836 -0.3777 -0.3929
  660TIP3    H123395   4.570   5.213   5.713  0.8612 -1.6887 -0.0704
  660TIP3    H223396   4.622   5.113   5.612  2.1103  0.3412 -1.5413
  661TIP3   OH223397   3.185   1.942  12.949  0.2977 -0.0833 -0.0006
  661TIP3    H123398   3.115   1.962  13.011  0.6935 -0.0656  0.4532
  661TIP3    H223399   3.145   1.950  12.863 -0.8745 -2.3436  0.2718
  662TIP3   OH223400   2.459   6.170  13.210 -0.3627 -0.2821 -0.3412
  662TIP3    H123401   2.534   6.137  13.160 -0.4130  0.4764 -0.9387
  662TIP3    H223402   2.427   6.094  13.259  0.0615 -0.8979 -1.0002
  663TIP3   OH223403   0.369   2.266   4.548 -0.3248 -0.0136  0.2125
  663TIP3    H123404   0.393   2.180   4.512  2.3686  0.3927  0.8627
  663TIP3    H223405   0.332   2.313   4.474  0.1410 -1.0087 -0.6845
  664TIP3   OH223406   6.737   2.883  12.325 -0.5624  0.1720 -0.2916
  664TIP3    H123407   6.701   2.959  12.371 -0.8234  0.6575 -1.2617
  664TIP3    H223408   6.662   2.826  12.309 -0.7688  0.7367 -1.4664
  665TIP3   OH223409   0.134   4.688   0.996  0.0155 -0.0178 -0.1996
  665TIP3    H123410   0.192   4.688   0.920 -1.2321  0.0655 -1.1885
  665TIP3    H223411   0.180   4.635   1.062 -0.3235 -2.9687 -2.1589
  666TIP3   OH223412   4.329   1.850   3.914  0.9076  0.3479 -0.3278
  666TIP3    H123413   4.335   1.941   3.884  1.2676  0.9096  1.3445
  666TIP3    H223414   4.357   1.853   4.005 -1.2070 -1.1014  0.4461
  667TIP3   OH223415   3.443   4.241   3.788 -0.0771  0.0830  0.4045
  667TIP3    H123416   3.417   4.187   3.863 -1.7880  0.0142 -0.2084
  667TIP3    H223417   3.534   4.215   3.771  0.0783 -0.4779  1.9354
  668TIP3   OH223418   3.113   1.427   5.037 -0.0077 -0.4771 -0.4720
  668TIP3    H123419   3.200   1.460   5.018  0.4514 -1.2470  0.2003
  668TIP3    H223420   3.089   1.376   4.960 -0.5526  1.0267 -1.3388
  669TIP3   OH223421   6.727   1.814  12.588  0.3041 -0.0306 -0.0377
  669TIP3    H123422   6.817   1.819  12.620  0.1357 -0.0509  0.4529
  669TIP3    H223423   6.688   1.898  12.612 -0.6489 -1.0647  2.4188
  670TIP3   OH223424   0.653   2.997  14.978  0.0100  0.1000  0.6578
  670TIP3    H123425   0.720   3.053  14.938 -1.0763  1.1571  0.2557
  670TIP3    H223426   0.672   2.909  14.945  0.9579  0.4501  0.2393
  671TIP3   OH223427   5.011   2.053   5.138 -0.2894  0.3924  0.5616
  671TIP3    H123428   4.930   2.028   5.095 -0.3814 -0.3436  1.1480
  671TIP3    H223429   5.069   1.978   5.126  1.1667  1.7445 -1.8608
  672TIP3   OH223430   4.860   1.117   2.417  0.0843  0.2379  0.3086
  672TIP3    H123431   4.813   1.064   2.353 -1.4110  1.8886 -0.0221
  672TIP3    H223432   4.805   1.114   2.496 -0.1005  1.3922  0.2369
  673TIP3   OH223433   6.711   2.328   3.553  0.8530  0.5410 -0.2180
  673TIP3    H123434   6.734   2.406   3.604 -2.6151  1.6744 -0.1085
  673TIP3    H223435   6.634   2.293   3.597 -0.1949 -0.4824 -2.6746
  674TIP3   OH223436   3.285   1.167  11.398 -0.2053 -0.1084  0.0800
  674TIP3    H123437   3.379   1.149  11.396  0.1148  1.0770  2.0013
  674TIP3    H223438   3.248   1.096  11.450 -0.2062  0.0103  0.2427
  675TIP3   OH223439   1.641   0.689   4.534 -0.0010 -0.0456 -0.4811
  675TIP3    H123440   1.602   0.608   4.565 -0.8119  1.0813  1.6906
  675TIP3    H223441   1.734   0.669   4.523 -0.4356 -1.6341 -1.5068
  676TIP3   OH223442   5.628   0.399   5.204  0.0626  0.1170  0.1989
  676TIP3    H123443   5.606   0.490   5.226 -2.9059 -0.6421  0.7464
  676TIP3    H223444   5.642   0.357   5.289  0.3472 -0.1851  0.0025
  677TIP3   OH223445   5.226   2.802  14.348 -0.3106 -0.5649 -0.6358
  677TIP3    H123446   5.141   2.844  14.347 -0.2294 -0.3914 -0.2919
  677TIP3    H223447   5.248   2.789  14.255  0.9703  2.8235 -0.9540
  678TIP3   OH223448   3.386   1.723   0.981  0.3892  0.0215 -0.2333
  678TIP3    H123449   3.358   1.735   1.072  1.5954  1.2387  0.0141
  678TIP3    H223450   3.306   1.698   0.934 -0.1382 -1.2428  1.2544
  679TIP3   OH223451   6.080   6.109   1.525 -0.0834 -0.5229  0.1724
  679TIP3    H123452   6.078   6.115   1.620 -0.2494  0.7135  0.1057
  679TIP3    H223453   6.126   6.188   1.497  0.6110 -1.2293 -0.7522
  680TIP3   OH223454   4.233   3.943   2.637  0.0560 -0.9534  0.2731
  680TIP3    H123455   4.173   3.954   2.563 -0.5869 -3.2274  0.3793
  680TIP3    H223456   4.243   4.031   2.673  0.1069  0.1833 -2.2634
  681TIP3   OH223457   5.260   0.222  12.770 -0.8139 -0.0114 -0.0997
  681TIP3    H123458   5.237   0.282  12.841 -0.7594  1.3553 -1.1955
  681TIP3    H223459   5.193   0.237  12.703  0.9010  1.1037 -1.6656
  682TIP3   OH223460   2.571   0.211  10.161  0.3145  0.1752  0.1006
  682TIP3    H123461   2.509   0.264  10.211 -0.4323 -0.3422 -0.2523
  682TIP3    H223462   2.531   0.203  10.075  1.3389  0.6257 -0.4345
  683TIP3   OH223463   2.366   1.154   2.299 -0.4950  0.0004  0.9080
  683TIP3    H123464   2.461   1.162   2.301 -0.3103 -0.7873 -1.4553
  683TIP3    H223465   2.334   1.244   2.292  0.1943  0.1827 -0.1540
  684TIP3   OH223466   5.398   1.463   1.414  0.3086  0.3689  0.0961
  684TIP3    H123467   5.491   1.442   1.406  0.2303  0.4499 -1.3674
  684TIP3    H223468   5.356   1.380   1.437  0.7342  0.3402  0.8051
  685TIP3   OH223469   3.331   6.317  13.822  0.7270  0.0422 -0.5690
  685TIP3    H123470   3.380   6.311  13.740 -0.1050 -0.2786 -1.0554
  685TIP3    H223471   3.270   6.389  13.808  0.3049 -0.2767 -0.3939
  686TIP3   OH223472   0.578   1.814   5.231  0.5260  0.4920  0.4956
  686TIP3    H123473   0.522   1.884   5.266  1.6739  1.2119  0.9955
  686TIP3    H223474   0.571   1.743   5.295 -0.1712  0.3874  0.3078
  687TIP3   OH223475   5.462   2.048  11.972 -0.0593  0.8160 -0.0556
  687TIP3    H123476   5.529   1.980  11.981  0.5401  1.4563  0.3746
  687TIP3    H223477   5.381   1.999  11.955  0.7356  0.1026 -2.0017
  688TIP3   OH223478   4.991   6.063   1.201  0.1900 -0.7193 -0.6029
  688TIP3    H123479   4.902   6.091   1.222  0.3509 -1.0189  0.5589
  688TIP3    H223480   5.035   6.142   1.172 -0.1351 -0.3419 -0.0710
  689TIP3   OH223481   1.290   4.839   2.952 -0.1492  0.1885  0.5707
  689TIP3    H123482   1.266   4.931   2.946  0.7374  0.5673  2.2209
  689TIP3    H223483   1.355   4.826   2.882  1.8689  1.6032  2.0511
  690TIP3   OH223484   5.700   4.826  16.542  0.7453  0.3274  0.4816
  690TIP3    H123485   5.736   4.895  16.598  0.7884  0.0757  0.7709
  690TIP3    H223486   5.637   4.871  16.486 -0.0475  0.4390  1.4237
  691TIP3   OH223487   6.785   5.603  16.970  0.1972 -0.9549  0.1135
  691TIP3    H123488   6.800   5.686  16.925 -0.8509 -1.0492 -0.4453
  691TIP3    H223489   6.810   5.537  16.906 -0.4765 -1.0788 -0.0284
  692TIP3   OH223490   1.602   2.641   2.639 -0.5803 -0.1602 -0.2555
  692TIP3    H123491   1.560   2.673   2.719 -1.2453 -1.5216 -0.0278
  692TIP3    H223492   1.551   2.565   2.614  0.0113 -0.1285 -1.6414
  693TIP3   OH223493   0.329   1.130  12.023  0.3133 -0.4099 -0.1952
  693TIP3    H123494   0.371   1.045  12.010  1.0009 -0.3151  1.2196
  693TIP3    H223495   0.317   1.137  12.118 -1.9098  0.0639 -0.4447
  694TIP3   OH223496   0.828   4.152  13.819  0.4990  0.1128  0.1082
  694TIP3    H123497   0.857   4.224  13.762 -3.0275  2.0655  0.5005
  694TIP3    H223498   0.753   4.113  13.773  0.8718 -1.7993  1.0194
  695TIP3   OH223499   5.776   0.185   4.992 -0.8428  0.3818 -0.1155
  695TIP3    H123500   5.747   0.129   5.064 -1.3331 -0.6486 -1.0973
  695TIP3    H223501   5.843   0.242   5.032  0.0046 -1.1885  0.8071
  696TIP3   OH223502   5.865   3.384  16.278 -0.6931 -0.5399 -0.8904
  696TIP3    H123503   5.907   3.313  16.327  0.0251  0.2123 -0.3667
  696TIP3    H223504   5.814   3.341  16.210 -0.8776 -1.5733 -0.1052
  697TIP3   OH223505   6.158   2.322   2.440 -0.2332 -0.0404  0.1750
  697TIP3    H123506   6.097   2.305   2.511  1.5430 -0.7719  1.6105
  697TIP3    H223507   6.195   2.408   2.460 -2.1164  1.3134 -1.7542
  698TIP3   OH223508   0.230   3.402   5.003 -0.1516  0.2600 -0.3773
  698TIP3    H123509   0.212   3.421   4.911  0.9306 -0.8293 -0.8334
  698TIP3    H223510   0.304   3.458   5.025 -0.7796  0.9541  0.0183
  699TIP3   OH223511   6.390   2.429   5.500 -0.4555  0.2322  0.3616
  699TIP3    H123512   6.387   2.334   5.516  2.4581 -0.0403 -0.1640
  699TIP3    H223513   6.326   2.443   5.430 -0.8458 -1.3499  0.3517
  700TIP3   OH223514   6.131   3.735  14.971 -0.8579 -0.6653 -0.7999
  700TIP3    H123515   6.214   3.695  14.943 -0.0500 -0.2633  0.8874
  700TIP3    H223516   6.074   3.660  14.989  0.3693 -1.1496  1.5296
  701TIP3   OH223517   4.065   1.031  13.776 -0.5585 -0.0446 -0.2929
  701TIP3    H123518   3.996   1.015  13.711 -1.6829  1.5758  0.4426
  701TIP3    H223519   4.135   1.072  13.726 -0.4791 -0.8647 -0.8788
  702TIP3   OH223520   1.992   3.749   0.620  0.1790 -0.3591 -0.2300
  702TIP3    H123521   2.083   3.751   0.650  0.1072 -2.5809  0.3666
  702TIP3    H223522   1.956   3.671   0.662 -2.0463  0.5198 -0.3851
  703TIP3   OH223523   0.350   2.591  14.640  0.2727  0.3890  0.8146
  703TIP3    H123524   0.362   2.505  14.599  0.8456  0.4177  0.9198
  703TIP3    H223525   0.256   2.596  14.657 -0.1590  0.7638 -1.3601
  704TIP3   OH223526   3.873   6.056   3.001  0.3049  0.0653 -0.4494
  704TIP3    H123527   3.894   5.972   3.043  3.5068  0.5863 -0.7800
  704TIP3    H223528   3.790   6.039   2.956 -0.2618 -2.2490  1.2620
  705TIP3   OH223529   1.020   3.643  16.289 -0.0859  0.2016 -0.0363
  705TIP3    H123530   1.050   3.635  16.198 -0.9691  1.1003 -0.4238
  705TIP3    H223531   1.080   3.706  16.328  1.6325 -1.7501  0.6470
  706TIP3   OH223532   4.893   2.782  16.977 -0.1691 -0.6514  0.0137
  706TIP3    H123533   4.920   2.710  16.920  0.7459 -0.6052  0.3823
  706TIP3    H223534   4.967   2.796  17.036 -0.4879  0.3426  0.1983
  707TIP3   OH223535   3.449   2.701   2.785  0.1494  0.1159 -0.1128
  707TIP3    H123536   3.416   2.698   2.874 -3.2243 -2.3429 -1.2327
  707TIP3    H223537   3.415   2.783   2.749 -3.6671 -1.5227 -0.6853
  708TIP3   OH223538   5.810   5.059   2.442  0.1820  0.0115  0.6792
  708TIP3    H123539   5.853   5.139   2.411 -2.4745  1.3120  0.0156
  708TIP3    H223540   5.865   5.029   2.515  2.9049  0.6840 -0.9525
  709TIP3   OH223541   6.016   1.093  16.114 -0.1553 -0.2730 -0.4534
  709TIP3    H123542   6.108   1.091  16.142 -0.1616  0.2248 -0.3892
  709TIP3    H223543   6.005   1.014  16.061 -0.2295 -1.4572  1.2496
  710TIP3   OH223544   5.628   5.882   2.929 -0.5474  0.0371  0.4053
  710TIP3    H123545   5.641   5.852   2.838 -0.9561  0.7489  0.1022
  710TIP3    H223546   5.534   5.904   2.933 -0.3002  1.0997  0.6563
  711TIP3   OH223547   4.241   0.911   2.880  0.0455 -0.2698  0.4308
  711TIP3    H123548   4.264   1.004   2.890  1.5722 -0.3217 -1.8136
  711TIP3    H223549   4.146   0.910   2.884 -0.0708  1.5809 -0.5172
  712TIP3   OH223550   1.678   3.478  12.819  0.3517  0.3020 -0.2921
  712TIP3    H123551   1.629   3.498  12.898 -1.8633 -1.5929 -1.0811
  712TIP3    H223552   1.716   3.392  12.835  1.1441  0.5606 -0.7304
  713TIP3   OH223553   1.320   4.699   6.170 -0.2673 -0.1424 -0.2374
  713TIP3    H123554   1.348   4.633   6.107  0.9953 -0.0886  0.2214
  713TIP3    H223555   1.325   4.654   6.255 -0.2995  0.2629 -0.0178
  714TIP3   OH223556   2.983   3.117   6.698  0.0934 -0.1774  0.1134
  714TIP3    H123557   3.005   3.047   6.637  1.7319  0.6424 -0.2755
  714TIP3    H223558   2.991   3.197   6.646 -4.2887  0.2846 -0.2249
  715TIP3   OH223559   3.889   0.140   1.839  0.1810 -0.7389 -0.0043
  715TIP3    H123560   3.899   0.050   1.869  0.0298 -0.5916  0.5034
  715TIP3    H223561   3.899   0.135   1.744  0.6481 -1.2178  0.0651
  716TIP3   OH223562   1.568   3.661  11.297  0.1330  0.1352 -0.1676
  716TIP3    H123563   1.507   3.587  11.299  1.0905 -0.6725  1.8507
  716TIP3    H223564   1.627   3.641  11.225 -1.4174  0.5207 -1.6230
  717TIP3   OH223565   6.046   0.835   1.593  0.2000  0.6454 -0.1334
  717TIP3    H123566   6.008   0.812   1.678  0.0205  0.1934 -0.3336
  717TIP3    H223567   6.024   0.761   1.536  0.9271  0.6242 -0.3885
  718TIP3   OH223568   2.155   5.891  14.823  0.4424 -0.1300  0.3874
  718TIP3    H123569   2.168   5.797  14.834 -0.8345 -0.4593 -0.6915
  718TIP3    H223570   2.068   5.899  14.784  2.4009  1.1605 -4.3799
  719TIP3   OH223571   0.779   5.524   4.042 -0.3417 -0.7483 -0.5812
  719TIP3    H123572   0.793   5.455   4.106 -0.4595  0.2866  0.5897
  719TIP3    H223573   0.804   5.605   4.087  1.1353 -0.1413 -2.3671
  720TIP3   OH223574   2.446   1.163   1.703 -0.5782  0.2829  0.0163
  720TIP3    H123575   2.437   1.232   1.769  0.2711  0.7536 -0.3424
  720TIP3    H223576   2.527   1.184   1.656 -1.6483  0.5400 -1.8467
  721TIP3   OH223577   0.448   3.723  15.207 -0.2279 -0.5018 -0.0449
  721TIP3    H123578   0.439   3.801  15.151 -0.3490 -0.5879 -0.1458
  721TIP3    H223579   0.474   3.758  15.292  2.1013 -0.5238 -0.6788
  722TIP3   OH223580   3.837   0.003   1.322  0.0010  0.0379 -0.4287
  722TIP3    H123581   3.815  -0.084   1.290  1.2739 -0.6448  0.5044
  722TIP3    H223582   3.784   0.062   1.268 -0.3587 -1.2548 -1.5317
  723TIP3   OH223583   4.959   2.431   3.219  1.0490  0.6331  0.4754
  723TIP3    H123584   4.920   2.435   3.132 -0.0962  1.0374  0.9806
  723TIP3    H223585   5.036   2.376   3.209  0.2722 -0.3125 -0.5487
  724TIP3   OH223586   1.389   5.047  16.256  0.5701  0.0028 -0.7228
  724TIP3    H123587   1.330   5.120  16.239  1.7116  1.3757  0.7826
  724TIP3    H223588   1.421   5.021  16.169 -0.1053  1.0744 -1.3157
  725TIP3   OH223589   4.295   5.824   5.377 -0.3801  0.1431  0.6430
  725TIP3    H123590   4.354   5.764   5.332  0.0968 -0.0908  1.5391
  725TIP3    H223591   4.239   5.767   5.430 -1.5808  0.3487 -0.3672
  726TIP3   OH223592   2.551   2.015  16.458 -0.3641 -0.1604  0.7827
  726TIP3    H123593   2.645   2.020  16.442 -0.2071  3.2513  2.0636
  726TIP3    H223594   2.511   2.030  16.372  0.2268 -0.6702  0.4082
  727TIP3   OH223595   5.991   1.418  11.568 -0.6354  0.4370 -0.3449
  727TIP3    H123596   6.053   1.371  11.514 -0.8923  0.4146 -0.6216
  727TIP3    H223597   5.907   1.410  11.522 -1.2042 -0.9219  0.8137
  728TIP3   OH223598   4.113   2.681  14.539 -0.2483  0.7511  0.1655
  728TIP3    H123599   4.192   2.662  14.488  1.1840  1.7111  1.9062
  728TIP3    H223600   4.076   2.596  14.560  2.0736  0.0868  1.8892
  729TIP3   OH223601   5.694   6.263  13.027  0.6382  0.7640  0.2459
  729TIP3    H123602   5.645   6.229  12.952  2.3568  0.9595 -1.0391
  729TIP3    H223603   5.715   6.186  13.079  2.3771  0.0537 -1.3512
  730TIP3   OH223604   3.914   3.963  15.598  0.3372 -0.2772  0.2648
  730TIP3    H123605   3.908   4.040  15.655  0.3028  1.7981 -2.3441
  730TIP3    H223606   4.008   3.942  15.597  0.2836 -0.6280  1.3969
  731TIP3   OH223607   6.531   1.468   5.007 -0.5033  0.9412 -0.0245
  731TIP3    H123608   6.471   1.423   5.068  1.6679 -1.5541  0.4602
  731TIP3    H223609   6.595   1.511   5.064  1.8629 -1.8531 -0.3394
  732TIP3   OH223610   5.846   5.012   4.259 -0.1452 -0.0847  0.3131
  732TIP3    H123611   5.858   4.981   4.349  1.0196  2.1223  1.0045
  732TIP3    H223612   5.912   4.965   4.208 -1.6920 -2.3499  0.2792
  733TIP3   OH223613   6.507   4.993  11.995 -0.0320  0.2591  0.2993
  733TIP3    H123614   6.419   5.016  12.024 -0.4559 -0.3544 -0.4877
  733TIP3    H223615   6.508   4.897  11.994  0.7638  0.2479  0.6365
  734TIP3   OH223616   2.948   1.550   4.516  0.1643  0.5319  0.6492
  734TIP3    H123617   2.897   1.569   4.595 -0.0596 -1.8732  1.1735
  734TIP3    H223618   2.888   1.498   4.461  0.9272  0.6259 -0.3042
  735TIP3   OH223619   1.360   0.014   3.877 -0.1182  0.0046 -0.7871
  735TIP3    H123620   1.339  -0.065   3.828  1.0239 -0.7034 -0.1662
  735TIP3    H223621   1.447   0.040   3.844 -0.4383  0.9571 -0.9190
  736TIP3   OH223622   1.892   1.913  12.963 -0.2851  0.0227 -0.0705
  736TIP3    H123623   1.926   1.866  13.038 -0.3028  3.0044  1.9754
  736TIP3    H223624   1.797   1.912  12.975 -0.3146  0.1584 -0.2893
  737TIP3   OH223625   4.506   5.333  14.681  0.1802 -0.5253 -0.4595
  737TIP3    H123626   4.499   5.413  14.733  1.6314  0.1946 -1.3163
  737TIP3    H223627   4.535   5.266  14.743  0.7042  0.0341 -0.0889
  738TIP3   OH223628   6.462   3.162   0.696 -0.3786 -0.3686 -0.2665
  738TIP3    H123629   6.432   3.239   0.744  1.1676 -0.5967  1.1839
  738TIP3    H223630   6.418   3.089   0.739 -0.1193 -0.4596 -0.1516
  739TIP3   OH223631   1.665   5.326   1.409 -0.0891  0.1889  0.1813
  739TIP3    H123632   1.703   5.378   1.339  1.5017  0.2397  1.0539
  739TIP3    H223633   1.661   5.237   1.374  2.4148 -0.1604  0.5844
  740TIP3   OH223634   1.256   6.665   4.980 -0.2261  0.1489  0.4579
  740TIP3    H123635   1.205   6.735   4.939  1.1149  0.6582 -0.4210
  740TIP3    H223636   1.247   6.590   4.921 -0.3679  0.0876  0.5591
  741TIP3   OH223637   2.852   5.225  14.349 -0.1431 -0.2599  0.1403
  741TIP3    H123638   2.814   5.289  14.410  0.1864  1.0413 -0.9740
  741TIP3    H223639   2.945   5.245  14.349  0.4175 -2.5578  1.8318
  742TIP3   OH223640   0.983   2.185  12.282  0.2221  0.7309  0.6793
  742TIP3    H123641   1.055   2.208  12.341 -0.8137  1.2466  1.7967
  742TIP3    H223642   0.906   2.180  12.339 -0.3667 -1.4234 -0.2156
  743TIP3   OH223643   3.524   5.090   1.074  0.3696 -0.1091 -0.0975
  743TIP3    H123644   3.578   5.045   1.140 -1.4940 -2.0112  0.2264
  743TIP3    H223645   3.447   5.120   1.122  0.2811  1.0042 -0.8943
  744TIP3   OH223646   2.593   2.666   0.812  0.0951  0.2174 -0.0759
  744TIP3    H123647   2.596   2.573   0.789 -1.4286  0.3622 -1.0681
  744TIP3    H223648   2.638   2.710   0.739  0.0901  0.3009 -0.0288
  745TIP3   OH223649   3.421   2.179  15.002 -0.1562 -0.2193  0.2347
  745TIP3    H123650   3.456   2.094  14.973  0.7733 -0.6289  2.3958
  745TIP3    H223651   3.493   2.219  15.050 -0.5299  1.9205 -0.8900
  746TIP3   OH223652   1.016   2.890  11.357  0.2834 -0.0394 -0.1524
  746TIP3    H123653   0.980   2.802  11.361  1.1030 -0.3733  0.0585
  746TIP3    H223654   0.948   2.942  11.314 -0.9660 -0.3817  1.3468
  747TIP3   OH223655   4.243   4.419  15.267  0.3325  0.3224 -0.1305
  747TIP3    H123656   4.220   4.363  15.342  1.2665  0.4534  0.2802
  747TIP3    H223657   4.171   4.408  15.206 -0.2015 -0.2056  0.5668
  748TIP3   OH223658   2.818   3.966   1.460  0.3360 -0.6940  0.4645
  748TIP3    H123659   2.723   3.975   1.455  0.4657  0.7427 -0.0155
  748TIP3    H223660   2.849   3.995   1.374  1.2059 -1.1544  0.6144
  749TIP3   OH223661   0.482   3.632   6.277 -0.1952 -0.2819 -0.2393
  749TIP3    H123662   0.569   3.651   6.313 -0.0680  0.8644 -1.0970
  749TIP3    H223663   0.421   3.674   6.338 -0.1724 -1.2018  0.4375
  750TIP3   OH223664   6.406   0.386   0.044  0.3616 -0.3564 -0.1492
  750TIP3    H123665   6.499   0.371   0.030  0.3946 -2.3305  1.7994
  750TIP3    H223666   6.364   0.305   0.017 -0.6269 -0.1105  0.5958
  751TIP3   OH223667   4.847   5.390   4.801 -0.3991 -0.1633  0.8575
  751TIP3    H123668   4.803   5.323   4.851 -0.9878 -0.3749  0.0753
  751TIP3    H223669   4.846   5.467   4.857 -1.7074 -0.1825  0.8833
  752TIP3   OH223670   0.660   1.854  15.549 -0.2182  0.2619  0.8173
  752TIP3    H123671   0.572   1.891  15.559 -0.9563 -1.7327  2.1793
  752TIP3    H223672   0.648   1.779  15.491  1.2887  2.0805 -2.0840
  753TIP3   OH223673   3.767   2.607  11.737  0.5519  0.5673 -0.5731
  753TIP3    H123674   3.755   2.591  11.644  1.7245 -0.6983 -0.5247
  753TIP3    H223675   3.714   2.540  11.780 -0.1500  1.2724 -0.3041
  754TIP3   OH223676   4.687   2.406   2.016  0.0470 -0.1809 -0.3811
  754TIP3    H123677   4.771   2.405   2.061  0.3518 -1.2055 -0.9557
  754TIP3    H223678   4.661   2.314   2.010 -1.1021  0.1082 -0.2505
  755TIP3   OH223679   3.082   4.016   3.982 -0.1486  0.1226 -0.2482
  755TIP3    H123680   3.074   3.923   3.963  0.3218 -0.1170  0.6648
  755TIP3    H223681   3.048   4.026   4.071 -0.2367  0.8301 -0.3547
  756TIP3   OH223682   2.786   0.419  14.530  0.2109  0.3750  0.1434
  756TIP3    H123683   2.839   0.357  14.580  1.3453  2.3063  1.4701
  756TIP3    H223684   2.701   0.418  14.574 -0.0377 -0.7335 -0.3137
  757TIP3   OH223685   1.911   1.989   5.071 -0.0162 -0.7595  0.0819
  757TIP3    H123686   1.898   1.920   5.136  0.5477 -1.5038 -0.5717
  757TIP3    H223687   1.859   2.063   5.103 -2.5150 -2.2038 -0.3291
  758TIP3   OH223688   2.691   3.375  11.367 -0.6073  0.6312  0.0873
  758TIP3    H123689   2.658   3.310  11.429  1.8280 -1.5343 -0.7081
  758TIP3    H223690   2.771   3.409  11.408 -0.1021  0.7225 -0.9438
  759TIP3   OH223691   5.701   2.301  15.995  0.0214  0.2667 -0.7657
  759TIP3    H123692   5.653   2.351  16.061  1.6639 -0.9285  1.4688
  759TIP3    H223693   5.689   2.210  16.021  1.7181 -0.1702 -1.3963
  760TIP3   OH223694   2.571   6.420   4.857 -0.3279 -0.1963  0.5233
  760TIP3    H123695   2.485   6.420   4.899 -0.3298 -0.3297  0.5214
  760TIP3    H223696   2.585   6.328   4.834  0.5676 -0.4650  2.0396
  761TIP3   OH223697   1.170   4.118  12.034 -0.0445 -0.1137  0.2831
  761TIP3    H123698   1.242   4.160  11.986  0.3441 -1.3865 -0.2821
  761TIP3    H223699   1.103   4.101  11.968 -0.3021 -0.1621  0.5532
  762TIP3   OH223700   4.409   6.160  11.487 -0.0840  0.6461 -0.4929
  762TIP3    H123701   4.354   6.238  11.484 -1.1203 -0.0477 -3.0565
  762TIP3    H223702   4.481   6.179  11.427  0.5467  0.2328  0.1164
  763TIP3   OH223703   0.730   1.606   0.543 -0.3483  0.0418  0.3532
  763TIP3    H123704   0.810   1.555   0.553  0.1644  1.0807  1.8259
  763TIP3    H223705   0.672   1.549   0.493  1.7983 -0.1600 -2.1467
  764TIP3   OH223706   5.477   4.628  12.205 -0.0884 -0.2053  0.0472
  764TIP3    H123707   5.530   4.622  12.284 -1.4203  1.4576  1.1163
  764TIP3    H223708   5.480   4.540  12.167  1.2901 -0.7987  1.4529
  765TIP3   OH223709   5.357   0.208   3.548 -0.3550 -0.1348  0.0720
  765TIP3    H123710   5.381   0.116   3.550  0.6709  0.1053 -0.3032
  765TIP3    H223711   5.388   0.244   3.631  1.5731  0.3801 -0.8020
  766TIP3   OH223712   5.771   5.294   0.923  0.0245  0.2218  0.2796
  766TIP3    H123713   5.790   5.200   0.925 -0.3223  0.1497  0.2716
  766TIP3    H223714   5.692   5.303   0.977  0.7707  0.6799  1.3441
  767TIP3   OH223715   1.191   6.678  15.638 -0.1034  0.8762 -0.3265
  767TIP3    H123716   1.166   6.648  15.726 -1.4558 -0.8981 -1.2472
  767TIP3    H223717   1.108   6.691  15.593  0.5495 -0.3558 -1.9919
  768TIP3   OH223718   5.928   4.660   4.624  0.0139 -0.5584 -0.1470
  768TIP3    H123719   5.961   4.690   4.709 -3.0958 -2.5358  1.9937
  768TIP3    H223720   5.920   4.740   4.572  2.4565  0.6679  1.1800
  769TIP3   OH223721   5.673   1.378   1.315  0.4809  0.0869  0.4046
  769TIP3    H123722   5.754   1.428   1.321  0.6278 -0.0519 -0.3277
  769TIP3    H223723   5.655   1.350   1.405  1.5249 -0.3366  0.4948
  770TIP3   OH223724   4.576   3.545  14.577  0.2490 -0.2302 -0.2869
  770TIP3    H123725   4.572   3.480  14.507 -1.3732 -0.1531 -0.3220
  770TIP3    H223726   4.605   3.625  14.534 -2.1981  0.2162 -1.2745
  771TIP3   OH223727   6.235   3.056   1.780  0.0542 -0.0720  0.3812
  771TIP3    H123728   6.185   3.124   1.824 -1.9175 -0.0488 -1.7448
  771TIP3    H223729   6.221   2.977   1.832  0.1829  0.5482  1.3747
  772TIP3   OH223730   2.426   4.394  13.040  0.1369 -0.1603 -0.3445
  772TIP3    H123731   2.494   4.336  13.008  0.0894  0.0175 -0.7783
  772TIP3    H223732   2.402   4.447  12.964  2.4798  2.7255  0.7384
  773TIP3   OH223733   4.176   6.053  16.467 -0.3271 -0.1628  0.3832
  773TIP3    H123734   4.235   6.122  16.435 -2.5645  1.0626 -1.3575
  773TIP3    H223735   4.138   6.090  16.546 -0.5644  0.0599  0.1649
  774TIP3   OH223736   0.778   1.679  13.456  0.2671 -0.2550 -0.2713
  774TIP3    H123737   0.823   1.708  13.536  0.4305  0.6968 -0.6951
  774TIP3    H223738   0.759   1.760  13.409 -1.6534 -0.6486 -0.2404
  775TIP3   OH223739   5.741   2.601   5.854  0.3172 -0.2802  0.5055
  775TIP3    H123740   5.735   2.677   5.912  1.1102  0.4207 -0.2945
  775TIP3    H223741   5.832   2.571   5.863  0.0742 -1.0069  0.6457
  776TIP3   OH223742   1.668   0.966   2.983 -0.2784 -0.3191  0.9523
  776TIP3    H123743   1.606   0.950   2.912 -0.6829  0.6047  1.0819
  776TIP3    H223744   1.662   1.060   3.000  0.1056 -0.4538  1.9383
  777TIP3   OH223745   3.299   3.652  11.658  0.1661  0.0867  0.5043
  777TIP3    H123746   3.244   3.640  11.581  0.3967 -1.3582  0.5361
  777TIP3    H223747   3.375   3.700  11.626  0.1206 -0.2403 -0.1177
  778TIP3   OH223748   1.389   0.447   1.102  0.1247 -0.3296 -0.0582
  778TIP3    H123749   1.406   0.540   1.114  0.7534 -0.4191 -0.2126
  778TIP3    H223750   1.303   0.443   1.061 -0.0995  0.1632  0.3622
  779TIP3   OH223751   5.707   4.062   0.356 -0.3790 -0.4589  0.3921
  779TIP3    H123752   5.616   4.054   0.327 -0.6628  1.4992  0.5714
  779TIP3    H223753   5.705   4.037   0.448 -1.0477  0.8542  0.7707
  780TIP3   OH223754   4.281   3.267   0.576 -0.1975 -0.4457 -0.0225
  780TIP3    H123755   4.217   3.294   0.510  0.6128  0.8652 -0.2998
  780TIP3    H223756   4.342   3.210   0.529  0.1645  0.1867 -0.3263
  781TIP3   OH223757   0.375   0.681   2.531 -0.0257  0.3949  0.8050
  781TIP3    H123758   0.457   0.688   2.483 -1.2311  1.3348 -1.2445
  781TIP3    H223759   0.323   0.617   2.482 -0.9792  0.7184  1.3638
  782TIP3   OH223760   0.129   2.040   3.756 -0.0573  0.2630 -0.1141
  782TIP3    H123761   0.111   2.084   3.674  1.1157 -0.6592 -0.9031
  782TIP3    H223762   0.225   2.030   3.758  0.0708  1.3537  1.9463
  783TIP3   OH223763   1.664   1.325  16.333 -0.8597 -0.3667 -0.5700
  783TIP3    H123764   1.735   1.287  16.386 -2.4939 -1.8779  0.6313
  783TIP3    H223765   1.677   1.419  16.341  0.7594 -0.5931 -0.0359
  784TIP3   OH223766   1.635   4.723  14.136  0.3598 -0.0906  0.5174
  784TIP3    H123767   1.631   4.650  14.197  0.4924 -0.7431 -0.2399
  784TIP3    H223768   1.726   4.752  14.139  0.6328 -0.8356 -0.1732
  785TIP3   OH223769   4.580   2.876   2.324 -0.2802 -0.3848 -0.1203
  785TIP3    H123770   4.523   2.931   2.270  0.7235 -0.1590 -0.9900
  785TIP3    H223771   4.577   2.790   2.283  0.7597 -0.1259 -0.7826
  786TIP3   OH223772   4.348   0.083  13.181 -0.3032 -0.4810 -0.6627
  786TIP3    H123773   4.392   0.061  13.263 -3.1556  0.4065  1.2569
  786TIP3    H223774   4.334   0.178  13.186  1.4991  0.0039 -3.3231
  787TIP3   OH223775   0.791   4.071   0.903  0.2929 -0.4764  0.0977
  787TIP3    H123776   0.826   3.983   0.887  1.3826  0.1556 -1.2804
  787TIP3    H223777   0.781   4.108   0.815  1.6221  1.4122  0.6781
  788TIP3   OH223778   3.426   6.274   3.632 -0.0392 -0.0568  0.4769
  788TIP3    H123779   3.469   6.285   3.547  0.5405 -0.7151  0.6830
  788TIP3    H223780   3.451   6.187   3.661 -0.5988 -0.0088  1.1259
  789TIP3   OH223781   0.434   4.692   0.621 -0.2484  0.2348  0.1156
  789TIP3    H123782   0.398   4.780   0.631 -2.3131 -0.3915 -1.2441
  789TIP3    H223783   0.373   4.647   0.562  0.0011 -2.5362  1.7824
  790TIP3   OH223784   3.421   1.246  13.611  0.1444  0.1358 -0.1096
  790TIP3    H123785   3.371   1.231  13.531 -2.7245 -0.4766  1.6363
  790TIP3    H223786   3.418   1.162  13.657  1.5110  0.5319  0.7467
  791TIP3   OH223787   0.119   0.651  14.920 -0.3169 -0.0235 -0.0734
  791TIP3    H123788   0.062   0.726  14.938 -0.5069  0.1909 -1.4831
  791TIP3    H223789   0.085   0.614  14.839  2.1357  0.7213 -1.5562
  792TIP3   OH223790   0.906   4.649   0.224  0.1177  0.4114 -0.2553
  792TIP3    H123791   0.905   4.587   0.151  0.6602 -0.3157  0.3416
  792TIP3    H223792   0.893   4.734   0.183  1.9160  0.1958 -1.4077
  793TIP3   OH223793   1.810   2.212   5.186 -0.2396  0.4364  0.1459
  793TIP3    H123794   1.869   2.287   5.186  0.2415  0.0973  1.4391
  793TIP3    H223795   1.725   2.247   5.161  0.1610  1.2408 -0.1180
  794TIP3   OH223796   4.026   5.915  15.492 -0.3443 -0.3454  0.1761
  794TIP3    H123797   3.949   5.859  15.503 -0.1373 -0.6166  0.2656
  794TIP3    H223798   4.008   5.992  15.545  0.7575 -1.7264  2.7423
  795TIP3   OH223799   1.304   4.340  13.437 -0.3558 -0.1082 -0.1342
  795TIP3    H123800   1.300   4.312  13.345  0.4025 -1.3154  0.1751
  795TIP3    H223801   1.317   4.259  13.486 -2.6746  0.2492  1.2387
  796TIP3   OH223802   2.322   0.242   0.746 -0.0524  0.1107 -0.1381
  796TIP3    H123803   2.356   0.177   0.685 -2.3744  0.9551 -2.4741
  796TIP3    H223804   2.364   0.324   0.719 -0.3635  0.3279  0.0364
  797TIP3   OH223805   6.720   4.590   1.696  0.2204  0.2342  0.5196
  797TIP3    H123806   6.773   4.548   1.628  0.1446  2.4297 -0.9943
  797TIP3    H223807   6.782   4.646   1.743 -0.3396  1.3759 -0.0501
  798TIP3   OH223808   4.523   5.505  11.615 -0.2034 -0.6077 -0.1534
  798TIP3    H123809   4.540   5.560  11.539  0.9987 -0.8128 -0.0625
  798TIP3    H223810   4.442   5.540  11.653  1.4922  2.4216  1.0498
  799TIP3   OH223811   0.341   3.081  15.361 -0.1425  0.0520  0.3003
  799TIP3    H123812   0.383   3.078  15.447  1.1433  0.8682 -0.2611
  799TIP3    H223813   0.407   3.119  15.304 -1.9668  2.4176 -0.4373
  800TIP3   OH223814   2.986   2.794  17.120  0.1486  0.0055 -0.1744
  800TIP3    H123815   2.992   2.748  17.204 -0.8495  0.3702  0.1208
  800TIP3    H223816   3.076   2.817  17.098  0.4579 -0.4122  0.6167
  801TIP3   OH223817   1.736   4.918  15.476 -0.3225 -0.2338  0.3878
  801TIP3    H123818   1.805   4.882  15.420  0.3262  1.4064  0.0785
  801TIP3    H223819   1.655   4.891  15.434  0.1542  0.0501 -0.7423
  802TIP3   OH223820   6.752   0.402   3.241  0.2008  0.3243 -0.0951
  802TIP3    H123821   6.668   0.449   3.240 -0.3901 -0.6538 -2.1924
  802TIP3    H223822   6.809   0.455   3.186  0.0321 -0.5115 -1.1026
  803TIP3   OH223823   2.995   2.255  11.918 -0.2099 -0.7376  0.5108
  803TIP3    H123824   2.929   2.301  11.867 -0.1405 -0.2865  0.8148
  803TIP3    H223825   2.975   2.278  12.009 -1.8301 -3.4747  0.9468
  804TIP3   OH223826   3.067   0.061  15.259 -0.1392  0.2343 -0.0174
  804TIP3    H123827   3.087   0.128  15.325 -0.3207 -0.4319  0.7354
  804TIP3    H223828   3.033  -0.012  15.310 -1.5701  0.1995 -0.9840
  805TIP3   OH223829   5.502   0.350  12.729 -0.1810 -0.1023 -0.1113
  805TIP3    H123830   5.544   0.426  12.769 -0.0574 -0.4977  0.5314
  805TIP3    H223831   5.416   0.346  12.770 -0.6780  0.4301 -1.0809
  806TIP3   OH223832   0.010   5.373   2.028 -0.1291 -0.2161 -0.6675
  806TIP3    H123833  -0.068   5.355   2.081  0.0030  1.1320  0.0286
  806TIP3    H223834   0.057   5.441   2.076  1.4505 -0.9348 -1.1200
  807TIP3   OH223835   3.451   3.642   4.030 -0.1610  0.2252 -0.0912
  807TIP3    H123836   3.538   3.682   4.022  1.4060 -3.0876 -1.6823
  807TIP3    H223837   3.468   3.557   4.071 -3.1444  0.6422  2.3204
  808TIP3   OH223838   0.260   2.751  13.499 -0.1006 -0.3188  0.0295
  808TIP3    H123839   0.307   2.826  13.536  0.8260  0.5114 -2.6280
  808TIP3    H223840   0.324   2.706  13.444 -1.4559 -1.2893 -0.8439
  809TIP3   OH223841   3.256   1.338   1.670 -0.1890 -0.6705 -0.0441
  809TIP3    H123842   3.236   1.319   1.762  1.5919 -5.7698 -0.4318
  809TIP3    H223843   3.351   1.350   1.668 -0.4369  1.6180 -1.0425
  810TIP3   OH223844   0.197   3.393  11.414 -0.7919  0.0895 -0.1161
  810TIP3    H123845   0.230   3.303  11.422 -1.2959 -0.1213 -0.4172
  810TIP3    H223846   0.174   3.417  11.503 -1.0193 -0.2166 -0.0911
  811TIP3   OH223847   1.485   6.629  14.119  0.0071 -0.1777  0.4874
  811TIP3    H123848   1.406   6.610  14.170 -0.8971 -0.9486 -1.1051
  811TIP3    H223849   1.508   6.545  14.078  0.3763  0.4960 -0.7592
  812TIP3   OH223850   4.440   3.395  11.770 -0.0168 -0.1279 -0.3678
  812TIP3    H123851   4.448   3.490  11.775 -0.4263 -0.1028 -0.0793
  812TIP3    H223852   4.459   3.365  11.859  1.9600 -0.4783 -0.8727
  813TIP3   OH223853   1.398   2.990   0.340  0.4335 -0.6113  0.0924
  813TIP3    H123854   1.396   3.073   0.292  0.7348 -0.4830  0.2985
  813TIP3    H223855   1.460   3.005   0.411 -1.5900 -0.1019  1.8189
  814TIP3   OH223856   3.321   2.211   0.302 -0.1570 -0.2816 -0.5660
  814TIP3    H123857   3.234   2.194   0.265 -0.9075  0.4817  0.7507
  814TIP3    H223858   3.349   2.127   0.338 -1.1483 -0.1561  0.5525
  815TIP3   OH223859   1.527   0.397  14.490  0.0813  0.8881  0.1160
  815TIP3    H123860   1.582   0.351  14.427  1.2100  1.8789  0.3449
  815TIP3    H223861   1.438   0.374  14.464  0.4383  2.0551 -2.5074
  816TIP3   OH223862   3.528   5.069   0.015  0.2885  0.9646  0.0832
  816TIP3    H123863   3.501   5.024   0.095 -2.2013 -1.3479 -1.8624
  816TIP3    H223864   3.615   5.034  -0.004 -0.1031 -0.3128  0.5327
  817TIP3   OH223865   3.701   3.042   0.152  0.1849  0.0386  0.7319
  817TIP3    H123866   3.794   3.054   0.134  0.1077  1.3182  1.0798
  817TIP3    H223867   3.698   2.991   0.233  0.5798 -0.0792  0.6723
  818TIP3   OH223868   0.477   0.101   3.659 -0.2551  0.6644  0.3302
  818TIP3    H123869   0.433   0.081   3.742  0.6956 -0.4370  0.6048
  818TIP3    H223870   0.510   0.190   3.669  0.2917  0.3595  1.3516
  819TIP3   OH223871   5.800   3.026  14.604  0.2165  0.3404 -0.5781
  819TIP3    H123872   5.783   3.035  14.510 -0.1093  0.4060 -0.5137
  819TIP3    H223873   5.822   2.933  14.615 -0.9157  0.0649 -0.5404
  820TIP3   OH223874   1.144   3.634   5.017 -0.1172  0.1550  0.1876
  820TIP3    H123875   1.124   3.667   5.104 -0.9437  0.8584 -0.2528
  820TIP3    H223876   1.239   3.621   5.018  0.7936  4.8410 -0.2912
  821TIP3   OH223877   5.201   1.957  10.955  0.2419 -0.5354 -0.0100
  821TIP3    H123878   5.224   2.023  10.889  3.2443 -0.4199  1.0031
  821TIP3    H223879   5.122   1.992  10.997  0.2194  1.0515 -1.2732
  822TIP3   OH223880   0.221   1.655  16.514 -0.3167 -0.2195  0.0212
  822TIP3    H123881   0.310   1.666  16.547 -0.4073  0.1245  0.1642
  822TIP3    H223882   0.231   1.614  16.428 -0.0917 -1.4660  0.6162
  823TIP3   OH223883   3.652   6.271  13.734 -0.3455  0.3900 -0.3047
  823TIP3    H123884   3.612   6.237  13.814 -1.1212  0.1187 -0.7884
  823TIP3    H223885   3.607   6.353  13.717 -0.5680  0.1847 -0.7436
  824TIP3   OH223886   5.772   3.820   2.673  0.0640 -0.4968  0.0533
  824TIP3    H123887   5.735   3.753   2.731 -2.2977  0.4471 -0.2205
  824TIP3    H223888   5.732   3.901   2.702  2.1584  0.6913 -0.2095
  825TIP3   OH223889   6.273   5.151   2.457  1.0578 -0.2176 -0.2117
  825TIP3    H123890   6.203   5.151   2.523  1.0594  0.6076 -0.1947
  825TIP3    H223891   6.227   5.137   2.374  0.9546 -0.3669 -0.1304
  826TIP3   OH223892   6.404   0.989  16.959  0.0804  0.0712 -0.2262
  826TIP3    H123893   6.481   0.936  16.977  0.3155 -0.6930 -3.0827
  826TIP3    H223894   6.335   0.949  17.013  0.7868 -1.7432 -0.5919
  827TIP3   OH223895   2.320   0.991   1.147  0.7874  0.2721 -0.0887
  827TIP3    H123896   2.388   1.058   1.134  1.8754 -0.1695  2.6034
  827TIP3    H223897   2.304   0.992   1.241 -3.4453  0.7064 -0.6318
  828TIP3   OH223898   6.592   1.783   0.029 -0.0862 -0.0369 -0.1304
  828TIP3    H123899   6.651   1.789   0.104  0.9035  0.6642 -0.9409
  828TIP3    H223900   6.650   1.764  -0.045 -1.0658 -0.9025 -0.6993
  829TIP3   OH223901   4.160   1.917   5.529 -0.0401 -0.1145  0.0098
  829TIP3    H123902   4.095   1.898   5.461  0.5093 -0.3593 -0.4472
  829TIP3    H223903   4.177   2.011   5.519  1.4677 -0.4899 -1.4895
  830TIP3   OH223904   3.280   0.435   0.117  0.5089 -0.3242 -0.8065
  830TIP3    H123905   3.198   0.469   0.154 -0.0005 -0.6281 -1.6254
  830TIP3    H223906   3.306   0.365   0.177  0.5327  0.2243 -0.1701
  831TIP3   OH223907   0.279   1.790  15.009  0.3803  0.2507 -0.3190
  831TIP3    H123908   0.230   1.816  15.087 -0.3822  0.0077 -0.7063
  831TIP3    H223909   0.303   1.873  14.967  0.4393  0.3742 -0.0467
  832TIP3   OH223910   6.687   0.526  14.732  0.0847  0.2398  0.3771
  832TIP3    H123911   6.685   0.503  14.639 -0.6560  1.0636  0.1715
  832TIP3    H223912   6.595   0.524  14.759  0.2697  0.2949  1.0115
  833TIP3   OH223913   0.939   1.309  15.453  0.3985  0.7012 -0.2594
  833TIP3    H123914   0.886   1.384  15.423  0.0466  1.0017  1.0324
  833TIP3    H223915   0.993   1.345  15.524 -1.1764 -0.6262  1.7498
  834TIP3   OH223916   2.521   3.594  12.688  0.4237 -0.4941  0.0081
  834TIP3    H123917   2.455   3.649  12.731  0.0313 -0.4020 -0.6963
  834TIP3    H223918   2.479   3.509  12.678  1.1226 -1.0252  1.3318
  835TIP3   OH223919   4.694   6.596  11.020 -0.0078  0.1221 -0.4755
  835TIP3    H123920   4.779   6.627  10.991  0.1171 -0.5718 -0.8549
  835TIP3    H223921   4.710   6.561  11.108  0.3351 -1.0016 -0.9630
  836TIP3   OH223922   1.448   2.502   5.853 -0.0989 -0.4236 -0.0525
  836TIP3    H123923   1.448   2.510   5.948 -1.3334  0.0533 -0.0840
  836TIP3    H223924   1.441   2.407   5.838  0.4800 -0.5340  0.3164
  837TIP3   OH223925   4.857   0.653   4.195  0.0180  0.0543 -0.1113
  837TIP3    H123926   4.809   0.650   4.277  0.8641 -0.5649  0.3778
  837TIP3    H223927   4.840   0.741   4.160  0.6550  0.7814  1.3400
  838TIP3   OH223928   6.262   6.178   1.810  0.0253  0.7223 -0.2363
  838TIP3    H123929   6.350   6.143   1.826 -0.1758  0.1144 -0.4595
  838TIP3    H223930   6.204   6.102   1.815 -0.5161  1.1481  0.0950
  839TIP3   OH223931   5.853   2.406   2.870 -0.1890  0.4522  0.2561
  839TIP3    H123932   5.898   2.345   2.928  1.1531  0.9482 -0.2162
  839TIP3    H223933   5.769   2.422   2.912  0.3710  0.0760  1.5719
  840TIP3   OH223934   0.091   1.465   1.516 -0.5913  0.3384  0.5933
  840TIP3    H123935   0.046   1.385   1.543  0.5020 -0.5179  0.0044
  840TIP3    H223936   0.051   1.534   1.567 -0.1564 -0.8760  2.7005
  841TIP3   OH223937   2.374   0.843   5.318  0.6696 -0.2997  0.4918
  841TIP3    H123938   2.361   0.936   5.304  0.6072 -0.5398 -1.2318
  841TIP3    H223939   2.286   0.806   5.320  0.6923 -0.3219  1.1988
  842TIP3   OH223940   4.088   1.118  11.405  0.3419 -0.3423 -0.4898
  842TIP3    H123941   4.140   1.043  11.379 -1.3822 -2.4755  1.7417
  842TIP3    H223942   4.019   1.082  11.461 -1.8477  2.6503 -0.9826
  843TIP3   OH223943   3.430   2.703   3.681  0.6998  0.2174  0.1867
  843TIP3    H123944   3.479   2.766   3.628  0.8957  0.3243  0.4895
  843TIP3    H223945   3.498   2.653   3.727  0.5138  0.8884  1.2156
  844TIP3   OH223946   6.322   5.711  12.600  0.0905  0.1946  0.6762
  844TIP3    H123947   6.389   5.651  12.632 -0.7016 -0.8200  0.4942
  844TIP3    H223948   6.270   5.658  12.540  0.2186  1.4645 -0.5950
  845TIP3   OH223949   3.155   3.556   4.097 -0.6098  0.1970 -0.3819
  845TIP3    H123950   3.238   3.601   4.084  1.2748 -2.9146 -0.3708
  845TIP3    H223951   3.159   3.524   4.187 -0.5960 -2.0366 -1.0985
  846TIP3   OH223952   1.136   2.325   2.629 -0.2584  0.2210 -0.4696
  846TIP3    H123953   1.148   2.371   2.712 -2.8975 -0.2138  0.2266
  846TIP3    H223954   1.198   2.252   2.632 -1.9653 -1.2461  2.2697
  847TIP3   OH223955   5.139   6.355   2.856 -0.1849  0.3251  0.2597
  847TIP3    H123956   5.072   6.340   2.790  0.7711 -0.8592 -0.4802
  847TIP3    H223957   5.093   6.346   2.940 -0.8659 -0.8690 -0.2268
  848TIP3   OH223958   2.180   4.145   5.750 -0.2351  0.2389 -0.0835
  848TIP3    H123959   2.097   4.191   5.736 -0.9866 -0.5690  1.4621
  848TIP3    H223960   2.155   4.053   5.759  0.8195 -0.0124  0.4399
  849TIP3   OH223961   3.178   5.596  13.300 -0.6103 -0.4280  0.4045
  849TIP3    H123962   3.143   5.542  13.371  1.4925 -0.9456  1.1408
  849TIP3    H223963   3.135   5.564  13.221 -1.1316 -1.5966  1.1293
  850TIP3   OH223964   5.186   4.142   5.463  0.3979  0.1696  0.2188
  850TIP3    H123965   5.194   4.168   5.555 -2.3901  0.2473  0.5087
  850TIP3    H223966   5.201   4.047   5.463  1.4985  0.3294  0.5471
  851TIP3   OH223967   0.065   4.569  16.490 -0.5434  0.0777 -0.6226
  851TIP3    H123968   0.101   4.657  16.481  0.9173 -0.2279  1.5009
  851TIP3    H223969  -0.023   4.582  16.526  1.0809  0.7434  3.6997
  852TIP3   OH223970   1.369   3.257  16.800  0.4736 -0.2930 -0.1973
  852TIP3    H123971   1.385   3.330  16.741  1.3620  0.4373  0.8879
  852TIP3    H223972   1.375   3.179  16.745  0.6025  0.3994 -1.1807
  853TIP3   OH223973   5.894   4.345  10.942 -0.6706  0.1983  0.4276
  853TIP3    H123974   5.821   4.340  10.879 -0.1791  0.5824 -0.1801
  853TIP3    H223975   5.952   4.274  10.917 -0.6256  0.1555  0.6512
  854TIP3   OH223976   4.145   0.585  14.902 -0.6291 -0.4636 -0.1732
  854TIP3    H123977   4.133   0.648  14.831  2.0173  0.1085 -0.2145
  854TIP3    H223978   4.239   0.584  14.918 -0.9229 -2.1087  1.9712
  855TIP3   OH223979   5.565   4.874   1.087  0.1548  0.4775  0.1426
  855TIP3    H123980   5.564   4.779   1.082 -0.2675  0.5170 -3.0431
  855TIP3    H223981   5.652   4.898   1.054 -0.0972  1.1889 -0.0245
  856TIP3   OH223982   6.491   0.272  13.677 -0.2862  0.3790 -0.1118
  856TIP3    H123983   6.572   0.324  13.682 -1.3461  2.0646  0.4555
  856TIP3    H223984   6.476   0.244  13.768 -0.5891  0.4632 -0.1373
  857TIP3   OH223985   5.784   0.521  13.562 -0.0862 -0.2528 -0.1630
  857TIP3    H123986   5.839   0.599  13.560  1.0451 -1.0153  0.5276
  857TIP3    H223987   5.839   0.453  13.600  0.0378 -2.2270 -3.4788
  858TIP3   OH223988   0.089   3.956  13.452 -0.1635  0.4045  0.1668
  858TIP3    H123989   0.097   4.034  13.507 -1.3426  0.9616 -0.4166
  858TIP3    H223990  -0.003   3.957  13.423  0.1368 -0.5106 -0.8609
  859TIP3   OH223991   1.848   5.622   1.538 -0.0696 -0.4147 -0.5729
  859TIP3    H123992   1.906   5.697   1.554 -0.8393  0.4988 -1.8306
  859TIP3    H223993   1.829   5.626   1.444 -0.8066 -1.7038 -0.5033
  860TIP3   OH223994   5.643   0.644   0.500 -0.4162 -0.0066 -0.0403
  860TIP3    H123995   5.693   0.583   0.446 -0.5933  0.1008 -0.3268
  860TIP3    H223996   5.592   0.696   0.437 -1.6421 -0.7782  0.2831
  861TIP3   OH223997   4.247   5.973  10.533 -0.0517  0.6877  0.1504
  861TIP3    H123998   4.202   5.990  10.451  0.8393 -0.1976 -0.5463
  861TIP3    H223999   4.326   5.924  10.508  0.9225  1.5394  1.3956
  862TIP3   OH224000   2.662   1.163   3.267  0.2324 -0.1492 -0.5197
  862TIP3    H124001   2.660   1.234   3.202  1.7898  0.7961  0.3819
  862TIP3    H224002   2.652   1.208   3.351  1.4246 -0.9518  0.0821
  863TIP3   OH224003   1.792   0.605   5.199 -0.0526 -0.8711  0.0200
  863TIP3    H124004   1.790   0.534   5.264 -0.4394 -0.8474  0.0378
  863TIP3    H224005   1.774   0.684   5.250  1.2023 -0.6458  0.1360
  864TIP3   OH224006   6.224   0.313  15.370 -0.1995 -0.6075 -0.3896
  864TIP3    H124007   6.195   0.299  15.280 -0.5632  0.1497 -0.4013
  864TIP3    H224008   6.148   0.352  15.413  1.1092  2.7007 -0.7523
  865TIP3   OH224009   0.660   2.784  13.101  0.4332  0.8737 -0.4692
  865TIP3    H124010   0.677   2.701  13.146  0.4349  0.8305 -0.5490
  865TIP3    H224011   0.740   2.836  13.115  0.1821  1.1062  0.1214
  866TIP3   OH224012   3.013   5.019   5.407 -0.0715 -0.3043  0.2833
  866TIP3    H124013   3.066   5.072   5.467 -0.8324  1.8436 -0.8625
  866TIP3    H224014   2.924   5.025   5.442  0.1004 -2.5395  1.2603
  867TIP3   OH224015   3.350   3.217  16.781  0.5480 -0.6982 -0.2199
  867TIP3    H124016   3.373   3.262  16.699  1.6545 -0.5378  0.1543
  867TIP3    H224017   3.407   3.257  16.847  1.0816 -2.1652  0.2509
  868TIP3   OH224018   6.745   4.406  17.154  0.0874 -0.1511 -0.1352
  868TIP3    H124019   6.754   4.317  17.122  1.5547  0.1642 -0.7095
  868TIP3    H224020   6.657   4.433  17.130 -0.0265 -1.1117 -0.8255
  869TIP3   OH224021   0.038   6.535  14.916 -0.3795 -0.6025 -0.2544
  869TIP3    H124022   0.021   6.483  14.995 -0.6252  0.9647  0.7716
  869TIP3    H224023   0.131   6.520  14.898 -0.4145 -1.2931  0.0864
  870TIP3   OH224024   5.235   3.884   4.437  0.0915  0.2847 -0.1232
  870TIP3    H124025   5.264   3.808   4.486  2.1852  1.2730  0.2750
  870TIP3    H224026   5.209   3.849   4.351  1.6873 -0.8207 -0.1997
  871TIP3   OH224027   5.765   0.778  12.582  0.1557 -0.2469  0.4665
  871TIP3    H124028   5.823   0.739  12.646  1.5194  1.7232  0.5188
  871TIP3    H224029   5.712   0.705  12.550  2.5977 -2.1467  0.4511
  872TIP3   OH224030   1.109   1.082   4.962 -0.3893 -0.1267  0.0342
  872TIP3    H124031   1.122   1.028   4.883 -0.3591  0.0717 -0.0964
  872TIP3    H224032   1.023   1.121   4.950  0.3352  1.3122 -0.7515
  873TIP3   OH224033   4.960   6.551  13.386 -0.0833 -0.0766 -0.4373
  873TIP3    H124034   4.999   6.529  13.471 -0.1442 -1.0298 -0.6459
  873TIP3    H224035   5.027   6.603  13.342  0.7088 -1.1333 -0.5303
  874TIP3   OH224036   5.163   5.629  15.847 -0.3155 -0.5085  0.2337
  874TIP3    H124037   5.221   5.552  15.848  0.0493 -0.2758  1.9842
  874TIP3    H224038   5.154   5.652  15.755  0.5235 -1.9434 -0.2410
  875TIP3   OH224039   0.559   4.537  11.672 -0.2964 -0.3563  0.4229
  875TIP3    H124040   0.607   4.607  11.716 -0.7569 -0.2185  0.7180
  875TIP3    H224041   0.589   4.540  11.581  0.2855 -0.3067  0.6150
  876TIP3   OH224042   5.438   1.260  12.526 -0.1999  0.4664  0.1960
  876TIP3    H124043   5.372   1.283  12.461 -0.8937  0.0075  0.7232
  876TIP3    H224044   5.395   1.273  12.610  0.7519  1.2423  0.5820
  877TIP3   OH224045   5.399   1.171   5.079  0.3519  0.0702  0.3815
  877TIP3    H124046   5.314   1.168   5.123  0.8406  1.6288  1.5282
  877TIP3    H224047   5.377   1.169   4.986 -0.6828 -3.8928  0.5396
  878TIP3   OH224048   3.812   4.494  10.839 -0.6405 -0.4546  0.2311
  878TIP3    H124049   3.875   4.513  10.769 -1.3646  0.8524 -0.0953
  878TIP3    H224050   3.860   4.511  10.920 -0.5976  0.6573 -0.0187
  879TIP3   OH224051   0.786   0.822   2.871 -0.4176  0.2317  0.3309
  879TIP3    H124052   0.708   0.767   2.863 -0.2935 -0.5068  2.9705
  879TIP3    H224053   0.753   0.904   2.908  0.2380 -1.5543  5.7856
  880TIP3   OH224054   2.495   3.370  14.721  0.2604 -0.0268 -0.0461
  880TIP3    H124055   2.421   3.344  14.777  0.4554 -0.8202 -0.1479
  880TIP3    H224056   2.454   3.391  14.637  0.0465  0.4793  0.1779
  881TIP3   OH224057   2.569   6.313  12.077 -0.1032  0.0255  0.2607
  881TIP3    H124058   2.497   6.294  12.016 -0.3272  0.2843  0.4406
  881TIP3    H224059   2.558   6.250  12.148 -0.4752  0.4052  0.5503
  882TIP3   OH224060   3.800   4.848   0.484 -0.2040 -0.2028 -0.0696
  882TIP3    H124061   3.852   4.848   0.564 -1.0572  1.3216  0.5431
  882TIP3    H224062   3.807   4.759   0.450  0.5099 -0.7765  1.4839
  883TIP3   OH224063   3.274   1.057  14.663  0.2398  0.3237 -0.4172
  883TIP3    H124064   3.267   1.110  14.584 -1.0664 -1.2379 -1.4235
  883TIP3    H224065   3.364   1.023  14.662  1.0424  2.3201  0.1692
  884TIP3   OH224066   5.432   5.523  16.879  0.3447 -0.3736  0.4746
  884TIP3    H124067   5.391   5.445  16.918  0.0189 -0.7441 -0.5810
  884TIP3    H224068   5.523   5.497  16.863  0.1374 -0.6805 -0.2388
  885TIP3   OH224069   5.509   3.129   3.855 -0.6000  0.5331  0.3520
  885TIP3    H124070   5.423   3.112   3.817 -0.1063 -0.5925 -0.2758
  885TIP3    H224071   5.495   3.122   3.950 -1.1483  0.1099  0.2426
  886TIP3   OH224072   4.360   3.856  11.222 -0.2933 -0.6277  0.2299
  886TIP3    H124073   4.299   3.783  11.234 -0.4900 -0.4920  0.0794
  886TIP3    H224074   4.358   3.872  11.127  1.6824 -2.0740 -0.1111
  887TIP3   OH224075   3.072   1.445   2.848 -0.0808  0.8786  0.4029
  887TIP3    H124076   3.044   1.464   2.938 -0.0779  0.0079  0.5985
  887TIP3    H224077   3.116   1.360   2.854 -0.2490  0.7207 -0.4548
  888TIP3   OH224078   5.216   3.716  13.527 -0.2809  0.0294 -0.1538
  888TIP3    H124079   5.233   3.707  13.433  0.5446  0.3549 -0.0407
  888TIP3    H224080   5.288   3.669  13.569 -0.9678 -0.6350  0.3232
  889TIP3   OH224081   4.289   1.148  12.021 -0.2664 -0.2126 -0.1176
  889TIP3    H124082   4.362   1.205  11.995 -0.2689  1.0644  2.3357
  889TIP3    H224083   4.213   1.183  11.973  0.3398 -0.2444 -1.1174
  890TIP3   OH224084   1.587   2.039  13.489 -0.1117  0.2374 -0.1038
  890TIP3    H124085   1.540   2.041  13.572  1.9339  1.8688  1.0846
  890TIP3    H224086   1.679   2.045  13.512  0.5193  1.0711 -2.5053
  891TIP3   OH224087   4.615   5.884   4.359  0.0112  0.2415  0.1691
  891TIP3    H124088   4.696   5.919   4.320 -0.8576  1.6145 -0.4830
  891TIP3    H224089   4.643   5.805   4.404  2.0159  1.4743  1.2617
  892TIP3   OH224090   1.178   3.809  17.185 -0.1574 -0.1747 -0.3571
  892TIP3    H124091   1.150   3.736  17.240  0.2110  1.2676  1.8754
  892TIP3    H224092   1.256   3.844  17.229 -0.5543  1.7912 -1.1180
  893TIP3   OH224093   2.361   4.728  16.348 -0.3706 -0.7568 -0.5029
  893TIP3    H124094   2.359   4.823  16.358 -1.2192 -0.7809 -0.3542
  893TIP3    H224095   2.296   4.710  16.280 -1.0622 -1.3211  0.2931
  894TIP3   OH224096   6.228   4.100   3.146  0.0411 -0.1844  0.0086
  894TIP3    H124097   6.265   4.177   3.188  0.0050  0.9131 -1.8680
  894TIP3    H224098   6.270   4.097   3.060 -0.0325 -2.2113 -0.0036
  895TIP3   OH224099   1.776   0.766   0.943 -0.1596 -0.1031  0.6972
  895TIP3    H124100   1.829   0.837   0.979  1.0204 -0.8931  0.5932
  895TIP3    H224101   1.736   0.725   1.020 -0.1893  0.1657  0.8269
  896TIP3   OH224102   0.594   5.792   4.409  0.1015 -0.0491  0.6486
  896TIP3    H124103   0.662   5.747   4.358 -0.8283 -0.8172  0.0724
  896TIP3    H224104   0.566   5.727   4.474  0.0202  0.3223  0.9923
  897TIP3   OH224105   0.354   1.756  11.839  0.4406 -0.1103  0.1036
  897TIP3    H124106   0.302   1.833  11.817 -2.1051 -1.6127  0.4608
  897TIP3    H224107   0.411   1.743  11.763 -0.2407  1.1875 -0.6670
  898TIP3   OH224108   2.086   4.264  11.450 -0.2905 -0.5527  0.0499
  898TIP3    H124109   2.150   4.215  11.502 -0.8385  0.9052  2.2763
  898TIP3    H224110   2.010   4.206  11.445  0.8735 -2.0179 -2.0208
  899TIP3   OH224111   1.699   1.331   2.821  0.0438  0.0728 -0.6649
  899TIP3    H124112   1.760   1.258   2.828 -0.4322 -0.1605  1.7377
  899TIP3    H224113   1.743   1.404   2.864 -1.8357 -0.5182  2.6205
  900TIP3   OH224114   3.837   1.920   2.736  0.2604  0.5145  0.1095
  900TIP3    H124115   3.906   1.980   2.711 -1.4334  1.5541 -2.5199
  900TIP3    H224116   3.874   1.833   2.724  1.7660  1.0051  0.9749
  901TIP3   OH224117   5.672   0.780  13.151 -0.0196 -0.0326 -0.3769
  901TIP3    H124118   5.640   0.869  13.167  0.3949 -0.3274  2.8039
  901TIP3    H224119   5.750   0.793  13.096  2.0259  2.0663  2.6508
  902TIP3   OH224120   2.604   6.566   0.063  0.3184 -0.4341 -0.1089
  902TIP3    H124121   2.600   6.512  -0.016 -0.1859 -0.5768  0.0136
  902TIP3    H224122   2.520   6.611   0.066  0.3238 -0.4461  0.3588
  903TIP3   OH224123   6.280   1.119   4.387 -0.1773 -0.1227 -0.1773
  903TIP3    H124124   6.375   1.123   4.379 -0.0808 -0.4906  0.7086
  903TIP3    H224125   6.262   1.033   4.423 -0.7649  0.3104  0.6069
  904TIP3   OH224126   3.639   6.477  11.044 -0.6457  0.7784  0.1645
  904TIP3    H124127   3.671   6.386  11.046 -1.5203  0.4523 -0.2326
  904TIP3    H224128   3.690   6.521  11.112 -0.5283 -0.1172  0.6782
  905TIP3   OH224129   0.191   1.193  15.009 -0.4758  0.8406 -0.1077
  905TIP3    H124130   0.187   1.101  15.035  0.6381  0.3084 -1.6488
  905TIP3    H224131   0.115   1.206  14.952  0.2326  0.4016 -1.1850
  906TIP3   OH224132   2.383   3.103   0.944  0.0930 -0.5339  0.2874
  906TIP3    H124133   2.441   3.029   0.964 -0.0017 -0.2985  1.5381
  906TIP3    H224134   2.357   3.089   0.853  2.8106 -0.1633 -0.6326
  907TIP3   OH224135   1.256   2.496   0.268  0.2003 -0.5394  0.5787
  907TIP3    H124136   1.254   2.401   0.272  0.6053 -0.6472 -1.0394
  907TIP3    H224137   1.333   2.520   0.320 -0.2313 -1.0467  1.4644
  908TIP3   OH224138   6.731   2.167   5.460  0.4369 -0.2404  0.3529
  908TIP3    H124139   6.795   2.131   5.398  0.0196 -1.0663  0.4016
  908TIP3    H224140   6.651   2.177   5.409  0.5912  0.8034  0.2918
  909TIP3   OH224141   3.763   6.120  15.799  0.1131  0.1951 -0.0517
  909TIP3    H124142   3.828   6.129  15.730  1.3758  0.7449  1.1772
  909TIP3    H224143   3.684   6.161  15.763  0.8472  0.8022 -1.0102
  910TIP3   OH224144   1.888   1.203  15.279 -0.4026  0.6482  0.0338
  910TIP3    H124145   1.890   1.108  15.291  0.7228  0.6137 -0.2943
  910TIP3    H224146   1.961   1.221  15.220 -0.6425  1.7184  0.0402
  911TIP3   OH224147   1.724   5.342   4.402 -0.3962 -0.3219  0.4407
  911TIP3    H124148   1.734   5.326   4.496 -0.0630 -2.0775  0.1357
  911TIP3    H224149   1.806   5.385   4.376 -0.9355  1.1914  1.1202
  912TIP3   OH224150   0.530   4.087  10.461 -0.1470 -0.0985 -0.9960
  912TIP3    H124151   0.609   4.119  10.417 -0.0857  1.8842  0.4063
  912TIP3    H224152   0.545   3.993  10.471  2.1027  0.2244 -0.6889
  913TIP3   OH224153   5.475   5.879   0.116 -0.4576  0.4322 -0.5424
  913TIP3    H124154   5.443   5.809   0.060 -0.5318 -0.5860  0.7237
  913TIP3    H224155   5.397   5.930   0.137 -0.9715 -0.8542  0.8848
  914TIP3   OH224156   6.652   3.122   2.149 -0.1523  0.7398 -0.7490
  914TIP3    H124157   6.634   3.204   2.193 -2.7471 -0.6780  1.0981
  914TIP3    H224158   6.745   3.104   2.166 -0.0095  2.3808  0.3180
  915TIP3   OH224159   1.474   1.612   6.566  0.2040 -0.0198 -0.0892
  915TIP3    H124160   1.549   1.566   6.529 -0.6592 -0.2560 -1.6356
  915TIP3    H224161   1.487   1.704   6.540 -1.2442 -0.4281 -2.6270
  916TIP3   OH224162   2.350   3.279  16.601  0.5176 -0.0841  0.3834
  916TIP3    H124163   2.414   3.350  16.598  0.0042  0.3960  0.6369
  916TIP3    H224164   2.316   3.282  16.690 -1.9374  1.5510 -0.5035
  917TIP3   OH224165   6.666   6.594   3.272  0.2698  0.4166 -0.2624
  917TIP3    H124166   6.633   6.670   3.319 -0.0828 -0.4643  0.9695
  917TIP3    H224167   6.759   6.591   3.294  0.7876  1.6807 -2.0358
  918TIP3   OH224168   3.109   1.077   0.349 -0.4302  0.0891 -0.1464
  918TIP3    H124169   3.103   0.989   0.311  1.3004 -1.2947  2.4358
  918TIP3    H224170   3.134   1.133   0.276 -2.0530 -1.4160 -1.9852
  919TIP3   OH224171   6.280   0.893   4.538 -0.8720 -0.2413  0.1301
  919TIP3    H124172   6.290   0.807   4.498 -0.3359  0.4703 -1.3308
  919TIP3    H224173   6.221   0.878   4.612 -0.4792 -1.9196  0.1431
  920TIP3   OH224174   1.760   3.728  12.507 -0.2690 -0.0912  0.6472
  920TIP3    H124175   1.676   3.751  12.468 -0.2318 -1.0862 -0.0728
  920TIP3    H224176   1.787   3.650  12.459 -0.0644 -1.1758  2.4402
  921TIP3   OH224177   2.416   1.981  14.434 -0.1225 -0.3795 -0.6266
  921TIP3    H124178   2.504   2.010  14.457 -0.0316 -1.1276 -0.0044
  921TIP3    H224179   2.414   1.984  14.338  0.8549 -1.1583 -0.6878
  922TIP3   OH224180   2.474   4.313   1.217  0.1939 -0.0803 -0.0268
  922TIP3    H124181   2.453   4.281   1.129  2.2600 -0.6557 -0.3668
  922TIP3    H224182   2.418   4.262   1.276  2.3610 -3.4906 -0.6551
  923TIP3   OH224183   2.993   5.559  13.079  0.5333  0.1819  0.2993
  923TIP3    H124184   3.059   5.582  13.014  0.2904  2.0604  0.6756
  923TIP3    H224185   2.950   5.641  13.101 -1.7677 -0.9152  0.2765
  924TIP3   OH224186   2.944   5.495   5.565 -0.3637  0.1914 -0.0391
  924TIP3    H124187   2.900   5.447   5.495  0.4599  0.6038 -0.8584
  924TIP3    H224188   2.976   5.576   5.524 -1.0315  1.0938  1.1248
  925TIP3   OH224189   6.276   3.156  13.088 -0.2276 -0.1110 -0.7641
  925TIP3    H124190   6.209   3.103  13.046 -0.7211  1.1917 -1.7038
  925TIP3    H224191   6.307   3.215  13.018  1.2210 -0.0486 -0.1046
  926TIP3   OH224192   2.390   4.476  16.269  0.2573  0.8142 -0.0416
  926TIP3    H124193   2.393   4.562  16.311 -1.9772  0.6972  0.4927
  926TIP3    H224194   2.438   4.418  16.329 -0.9373  1.1021  1.2388
  927TIP3   OH224195   1.089   0.645  15.724 -0.2212  0.3074 -0.0902
  927TIP3    H124196   1.176   0.685  15.732  0.0978 -0.2259 -0.8163
  927TIP3    H224197   1.035   0.715  15.686  0.0872  0.3837 -0.3983
  928TIP3   OH224198   0.303   3.636  14.422 -0.3729  0.0261  0.3807
  928TIP3    H124199   0.347   3.699  14.365 -1.7780  0.8569  0.1645
  928TIP3    H224200   0.240   3.591  14.365 -1.3319  0.4097  1.0992
  929TIP3   OH224201   1.545   1.407  12.691  0.0610  0.2244 -0.2765
  929TIP3    H124202   1.536   1.338  12.758  1.9073 -0.1574 -0.3572
  929TIP3    H224203   1.456   1.438  12.677 -1.2559 -3.6041 -1.7813
  930TIP3   OH224204   0.709   1.240   3.812  1.0302 -0.1629  0.0924
  930TIP3    H124205   0.730   1.162   3.863  1.8257  1.4786  2.4144
  930TIP3    H224206   0.785   1.297   3.822 -0.0090  1.4232 -0.5297
  931TIP3   OH224207   2.625   4.384   3.327 -0.2405 -0.4706 -0.6000
  931TIP3    H124208   2.683   4.308   3.326 -1.0868 -1.1256 -0.8501
  931TIP3    H224209   2.680   4.455   3.359  0.8520 -0.9508 -1.3323
  932TIP3   OH224210   4.471   0.429  13.720  0.1665  0.4578  0.1985
  932TIP3    H124211   4.552   0.440  13.769  0.2119 -2.6812  1.0355
  932TIP3    H224212   4.408   0.394  13.784 -0.6148 -1.0468 -1.3018
  933TIP3   OH224213   5.586   4.282  14.485  0.0385  0.7331 -0.0100
  933TIP3    H124214   5.576   4.194  14.451 -0.1740  0.7128  0.1088
  933TIP3    H224215   5.667   4.314  14.445  0.3028  0.3578  0.2257
  934TIP3   OH224216   4.760   6.509   2.103  0.3403  0.3719 -0.3227
  934TIP3    H124217   4.668   6.528   2.121 -0.0217 -0.6503 -1.0312
  934TIP3    H224218   4.784   6.440   2.164  0.0866 -0.6636 -1.3477
  935TIP3   OH224219   2.061   3.406  15.564  0.3088 -0.1145  0.1209
  935TIP3    H124220   2.018   3.426  15.481 -1.2174  2.0845  1.3409
  935TIP3    H224221   2.081   3.492  15.602  0.0253 -1.0038  2.4554
  936TIP3   OH224222   1.005   6.294   3.648  0.0314  0.2888  0.1881
  936TIP3    H124223   0.999   6.351   3.571  2.9309 -0.4705 -0.7156
  936TIP3    H224224   1.098   6.278   3.659 -0.4804 -1.8076  2.2892
  937TIP3   OH224225   1.056   0.665  14.914 -0.1267 -0.3451  0.0230
  937TIP3    H124226   0.979   0.720  14.900  0.7995  1.1203  0.4710
  937TIP3    H224227   1.127   0.727  14.930  1.1619 -1.6594 -0.4127
  938TIP3   OH224228   6.338   6.022   2.225 -0.3541  0.5929 -0.0687
  938TIP3    H124229   6.314   6.115   2.217  0.1384  0.6387 -1.2060
  938TIP3    H224230   6.309   5.983   2.143 -0.3385 -0.2141  0.3072
  939TIP3   OH224231   0.542   4.686  13.912 -0.4018 -0.3755  0.3478
  939TIP3    H124232   0.585   4.617  13.862  2.3371  0.5359  1.2756
  939TIP3    H224233   0.475   4.641  13.963 -0.7528 -1.8430 -1.3085
  940TIP3   OH224234   6.381   5.549   4.720 -0.0374 -0.5994 -0.8028
  940TIP3    H124235   6.442   5.560   4.647 -0.0157 -0.6212 -0.7879
  940TIP3    H224236   6.364   5.455   4.724  0.5389 -0.6898 -0.3163
  941TIP3   OH224237   2.772   0.947  11.412 -0.4836 -0.2247 -0.2083
  941TIP3    H124238   2.811   0.872  11.455 -0.6764 -0.4051 -0.3467
  941TIP3    H224239   2.827   1.021  11.437  0.3556 -0.5821 -0.9757
  942TIP3   OH224240   4.766   1.760   5.754 -0.4084 -0.1484  0.3911
  942TIP3    H124241   4.769   1.849   5.791  0.5692  0.5231 -1.1928
  942TIP3    H224242   4.678   1.752   5.718  0.0717  0.9378 -1.1241
  943TIP3   OH224243   1.116   2.468   2.904 -0.3625 -0.3968 -0.1320
  943TIP3    H124244   1.053   2.540   2.895 -0.2589 -0.3170 -0.2169
  943TIP3    H224245   1.193   2.508   2.945 -0.0039 -0.2855 -0.8915
  944TIP3   OH224246   5.952   1.628   5.702 -0.0209  0.1123  0.4762
  944TIP3    H124247   5.959   1.581   5.618 -0.6367 -0.7335  0.8831
  944TIP3    H224248   6.041   1.661   5.717 -0.0751  0.9863 -0.8966
  945TIP3   OH224249   1.575   4.937   4.302 -0.1857  0.0933  0.0883
  945TIP3    H124250   1.561   4.988   4.381 -0.8386  0.2723 -0.1305
  945TIP3    H224251   1.592   4.848   4.333 -0.8741  0.0731  0.4180
  946TIP3   OH224252   4.811   6.639   4.605  0.3921  0.0906  0.6903
  946TIP3    H124253   4.826   6.733   4.590  1.3549 -0.2775 -0.9909
  946TIP3    H224254   4.898   6.600   4.600 -0.0320 -0.9350  1.1110
  947TIP3   OH224255   2.892   6.648   3.941  0.5588  0.3856 -0.0959
  947TIP3    H124256   2.869   6.595   4.017  1.0598  0.1837 -0.0835
  947TIP3    H224257   2.924   6.731   3.978  1.2905  0.0977 -0.0627
  948TIP3   OH224258   6.335   5.917  13.794  0.2736  0.0998 -0.4211
  948TIP3    H124259   6.286   5.843  13.758  0.5961  0.3467 -1.4004
  948TIP3    H224260   6.410   5.927  13.735  0.4378  0.9698 -0.0757
  949TIP3   OH224261   2.791   3.188  13.597  0.1430  0.4033 -0.2102
  949TIP3    H124262   2.778   3.124  13.667 -1.3676  2.4172  1.4880
  949TIP3    H224263   2.752   3.148  13.520  1.2724 -1.6226  0.2052
  950TIP3   OH224264   1.730   3.360   1.700  0.2832 -0.8538 -0.4505
  950TIP3    H124265   1.818   3.321   1.701  0.7593  0.1423  1.1077
  950TIP3    H224266   1.745   3.451   1.674 -0.3935 -0.8718 -0.9235
  951TIP3   OH224267   4.129   6.060   0.629  0.4463 -0.2064  0.6102
  951TIP3    H124268   4.090   6.062   0.542 -0.5411 -0.9689  1.0162
  951TIP3    H224269   4.134   5.967   0.651  0.9019 -0.0339  1.2799
  952TIP3   OH224270   6.283   6.656  11.387  0.3199  0.3775  0.0183
  952TIP3    H124271   6.228   6.634  11.312  0.0223  0.2228  0.2775
  952TIP3    H224272   6.231   6.718  11.437  0.3451  0.1673  0.3080
  953TIP3   OH224273   4.644   3.670  16.300  0.5116 -0.5956 -0.1254
  953TIP3    H124274   4.674   3.743  16.245 -4.0637  2.6040  0.9852
  953TIP3    H224275   4.675   3.693  16.388 -0.9535  0.1390  0.2295
  954TIP3   OH224276   5.242   5.598  12.730 -0.1312  0.1740  0.5491
  954TIP3    H124277   5.302   5.651  12.782 -0.0400  2.0438 -1.3086
  954TIP3    H224278   5.294   5.574  12.653 -0.5481 -1.6880  0.8187
  955TIP3   OH224279   0.165   1.663  12.940  0.8255  0.2855 -0.5304
  955TIP3    H124280   0.131   1.752  12.951  0.2689  0.3127 -2.1470
  955TIP3    H224281   0.102   1.607  12.984 -1.1519  0.3847 -3.0107
  956TIP3   OH224282   4.872   6.036  14.250 -0.0993  0.2143 -0.5090
  956TIP3    H124283   4.950   6.051  14.303 -0.6355 -1.6457  0.8967
  956TIP3    H224284   4.902   5.983  14.176 -0.3106 -2.5612  1.2517
  957TIP3   OH224285   4.963   1.105  16.689  0.2022  0.0276  0.2170
  957TIP3    H124286   5.048   1.063  16.703  1.0564  1.1316 -1.3822
  957TIP3    H224287   4.923   1.054  16.619 -0.4296 -0.4181  0.8869
  958TIP3   OH224288   2.559   1.562  16.899  0.2639 -0.4285  0.1103
  958TIP3    H124289   2.600   1.486  16.941  1.1531 -0.4340 -0.7049
  958TIP3    H224290   2.473   1.569  16.939  1.1398 -0.2667  2.1023
  959TIP3   OH224291   6.640   6.577  14.725  0.4086  0.2424  0.1928
  959TIP3    H124292   6.701   6.568  14.799 -0.4456  0.0634  0.8832
  959TIP3    H224293   6.697   6.590  14.649  1.3589 -0.8795  0.6720
  960TIP3   OH224294   3.895   0.341   6.222 -0.2331  0.3373  0.0373
  960TIP3    H124295   3.982   0.378   6.206 -0.1068  0.4631  0.9619
  960TIP3    H224296   3.834   0.412   6.206 -0.1100  0.4582  0.1055
  961TIP3   OH224297   6.749   3.201  10.927  0.5014 -0.8645 -0.9874
  961TIP3    H124298   6.663   3.229  10.958 -0.4252 -2.6000 -1.8667
  961TIP3    H224299   6.774   3.268  10.864  0.3188  0.2325  0.0510
  962TIP3   OH224300   2.796   0.669   3.388 -0.5380  0.3246  0.0986
  962TIP3    H124301   2.845   0.749   3.408 -0.7611  0.4380  0.1957
  962TIP3    H224302   2.862   0.600   3.387 -0.4097  0.4405  0.4528
  963TIP3   OH224303   1.654   4.227  16.863  0.0501  0.0104 -0.2308
  963TIP3    H124304   1.567   4.267  16.856 -1.2677 -2.8024 -1.9372
  963TIP3    H224305   1.636   4.134  16.878  2.8691 -0.3605  1.5054
  964TIP3   OH224306   1.792   4.404   5.238  0.8556  0.3116 -0.3527
  964TIP3    H124307   1.708   4.447   5.254  1.4286  1.2557  0.1651
  964TIP3    H224308   1.792   4.329   5.298  0.2945  0.1747 -0.5161
  965TIP3   OH224309   3.847   6.425  15.554 -0.7042  0.3306 -0.2674
  965TIP3    H124310   3.760   6.399  15.526 -0.7404  1.9180 -1.7890
  965TIP3    H224311   3.878   6.485  15.486  0.4694  1.9835  1.5840
  966TIP3   OH224312   0.970   5.691   5.884 -0.4689  0.1839  0.4091
  966TIP3    H124313   0.986   5.760   5.819 -0.1100 -0.6306 -0.3857
  966TIP3    H224314   0.876   5.693   5.898 -0.4598  0.8441  0.3979
  967TIP3   OH224315   2.542   5.247  16.588 -0.5586  0.0485 -0.2623
  967TIP3    H124316   2.522   5.339  16.604 -0.1456 -0.1157  1.3931
  967TIP3    H224317   2.602   5.248  16.513  0.4923  1.2460  0.5578
  968TIP3   OH224318   3.572   2.125  12.685 -0.3625 -0.1868  0.1847
  968TIP3    H124319   3.599   2.128  12.777  0.1652  0.3865  0.0229
  968TIP3    H224320   3.613   2.046  12.650 -1.0077 -0.7017  0.5684
  969TIP3   OH224321   4.975   2.552   1.059  0.2075 -0.4650  0.3057
  969TIP3    H124322   4.955   2.587   1.146  1.5842  0.5071  0.2822
  969TIP3    H224323   5.062   2.587   1.039  0.4088 -1.6003 -0.9898
  970TIP3   OH224324   1.310   5.261  14.516 -0.6048 -0.5793 -0.2919
  970TIP3    H124325   1.298   5.221  14.430 -1.8522  0.3095 -0.5657
  970TIP3    H224326   1.360   5.341  14.498 -1.9945  0.2953 -0.4115
  971TIP3   OH224327   0.771   0.976   3.229  0.2092  0.0888 -0.2450
  971TIP3    H124328   0.741   1.061   3.198  0.3195  0.0195 -0.5405
  971TIP3    H224329   0.691   0.925   3.241  0.0255  0.6924  1.3160
  972TIP3   OH224330   4.750   4.328   4.727  0.2662  0.3376  0.3632
  972TIP3    H124331   4.839   4.299   4.709  0.3035  0.0891  0.9114
  972TIP3    H224332   4.712   4.345   4.641  0.4325 -0.7535  0.0617
  973TIP3   OH224333   5.910   0.422   3.803  0.7781 -0.8699  0.1808
  973TIP3    H124334   5.844   0.401   3.869 -0.2349 -2.1084 -1.1556
  973TIP3    H224335   5.889   0.511   3.775  0.7766 -0.6021  1.0035
  974TIP3   OH224336   1.387   2.938   5.476 -0.2603  0.0546  0.0789
  974TIP3    H124337   1.360   2.854   5.440 -1.4097  1.7929 -3.5444
  974TIP3    H224338   1.308   2.975   5.515 -0.3884  0.5117 -0.6090
  975TIP3   OH224339   6.190   4.499  11.589 -0.3380  0.0897  0.1945
  975TIP3    H124340   6.178   4.428  11.526  0.1783 -0.1211  0.3278
  975TIP3    H224341   6.120   4.561  11.568 -1.5202 -0.9817  0.8160
  976TIP3   OH224342   1.154   1.953  14.280 -0.0789 -0.1532  0.6077
  976TIP3    H124343   1.220   1.900  14.235  0.4030 -0.3910  1.5526
  976TIP3    H224344   1.086   1.969  14.215  1.2551  0.7275 -0.6387
  977TIP3   OH224345   5.402   2.453  13.632 -0.2848  0.1156 -0.7554
  977TIP3    H124346   5.401   2.534  13.582  2.5716  0.6160 -0.2056
  977TIP3    H224347   5.399   2.481  13.724  0.9506 -0.3321 -0.5543
  978TIP3   OH224348   0.039   2.578   4.052  0.4136 -0.2146  0.8970
  978TIP3    H124349   0.101   2.506   4.061  0.0804 -0.4759  1.0634
  978TIP3    H224350  -0.021   2.568   4.125 -0.5842 -0.6988  0.0312
  979TIP3   OH224351   0.217   1.813  15.315 -0.3175 -0.5766  0.2353
  979TIP3    H124352   0.243   1.827  15.406 -0.6848  2.3425 -0.0246
  979TIP3    H224353   0.264   1.734  15.289  1.8423 -0.0425  2.1772
  980TIP3   OH224354   4.799   0.750   4.472  0.2116 -0.5490  0.1408
  980TIP3    H124355   4.851   0.806   4.530 -0.3288 -0.7142  0.8045
  980TIP3    H224356   4.799   0.665   4.515  0.0541 -0.7552 -0.2639
  981TIP3   OH224357   2.473   0.499  10.558 -0.0121 -0.4732 -0.3500
  981TIP3    H124358   2.478   0.436  10.487  3.5229 -0.7683 -0.0357
  981TIP3    H224359   2.519   0.457  10.631  0.5130  1.5881  0.5808
  982TIP3   OH224360   3.833   5.317   5.078 -0.0948  0.0055  0.2577
  982TIP3    H124361   3.744   5.326   5.044  0.5615  0.9655 -1.3050
  982TIP3    H224362   3.877   5.257   5.017  0.7860  0.8507  0.0348
  983TIP3   OH224363   2.156   3.876   5.828  0.4482 -0.0072  0.5151
  983TIP3    H124364   2.113   3.873   5.914  1.7690  1.2261  1.2659
  983TIP3    H224365   2.247   3.853   5.846  0.4673 -1.0834 -0.8026
  984TIP3   OH224366   3.498   2.037   0.484  0.4363 -0.2041 -0.1635
  984TIP3    H124367   3.413   1.999   0.509  1.5425 -1.4139  1.9990
  984TIP3    H224368   3.559   2.006   0.551  2.0128  3.2424  0.1908
  985TIP3   OH224369   4.665   1.796  16.027 -0.7391  0.3603 -0.1014
  985TIP3    H124370   4.728   1.831  16.090 -0.6303  2.8030 -1.4285
  985TIP3    H224371   4.598   1.753  16.081  0.9984 -0.5641  1.4360
  986TIP3   OH224372   2.546   0.576   3.860  0.0674  0.2778  0.3753
  986TIP3    H124373   2.474   0.513   3.855  1.5440 -1.3809 -1.1746
  986TIP3    H224374   2.604   0.542   3.928  0.0189  0.9491  0.7647
  987TIP3   OH224375   0.144   5.499   3.860 -0.5453  0.0783 -0.0205
  987TIP3    H124376   0.169   5.590   3.845 -0.1307 -0.0919 -0.3661
  987TIP3    H224377   0.207   5.467   3.924  0.9366 -0.7024 -1.7760
  988TIP3   OH224378   6.708   4.226   3.625 -0.0422  0.8083  0.1133
  988TIP3    H124379   6.764   4.295   3.661  1.9202 -0.1399 -0.9254
  988TIP3    H224380   6.768   4.172   3.572 -1.9483 -0.3202 -1.0164
  989TIP3   OH224381   4.503   0.427   6.146 -0.3686 -0.5363 -0.4085
  989TIP3    H124382   4.480   0.519   6.146 -0.4725 -0.5549  0.9340
  989TIP3    H224383   4.585   0.423   6.095  0.3194  0.4757  0.5823
  990TIP3   OH224384   1.979   2.004   6.530  0.4217 -0.3143 -0.1092
  990TIP3    H124385   2.037   2.059   6.583 -1.2408  1.9165 -0.4498
  990TIP3    H224386   1.896   2.005   6.578 -0.3189 -0.5822 -1.3547
  991TIP3   OH224387   4.401   0.840  17.139 -0.2716  0.2841  0.8384
  991TIP3    H124388   4.324   0.891  17.116 -1.7875 -1.9737  0.5663
  991TIP3    H224389   4.435   0.881  17.218 -0.6782  2.3766 -0.0154
  992TIP3   OH224390   1.536   1.838  16.197  0.1252 -0.4118 -0.1995
  992TIP3    H124391   1.502   1.919  16.159  1.3220  0.9507  1.4933
  992TIP3    H224392   1.459   1.789  16.224 -0.5847  0.7779 -0.0395
  993TIP3   OH224393   0.461   4.537  16.635 -0.1788  0.7460  0.3102
  993TIP3    H124394   0.416   4.459  16.604 -1.4197  1.2858  0.6663
  993TIP3    H224395   0.507   4.571  16.559 -0.4624  0.2405 -0.0905
  994TIP3   OH224396   2.473   0.633   1.200  0.1348 -0.1939 -0.1518
  994TIP3    H124397   2.488   0.591   1.115  0.8359 -0.8355  0.2739
  994TIP3    H224398   2.382   0.662   1.197 -0.5227 -2.1471 -0.3137
  995TIP3   OH224399   6.698   3.465  17.015  0.1505 -0.2868 -0.2825
  995TIP3    H124400   6.757   3.540  17.008  0.3983 -0.4292  0.2657
  995TIP3    H224401   6.696   3.429  16.926  1.0118 -0.3770 -0.2790
  996TIP3   OH224402   0.588   4.604   3.600  0.1285 -0.1849 -0.0994
  996TIP3    H124403   0.533   4.681   3.589 -0.6794 -0.9389 -1.5544
  996TIP3    H224404   0.558   4.565   3.682 -0.6402  0.0983 -0.2378
  997TIP3   OH224405   0.580   4.548   4.173  0.4486  0.0631 -0.1806
  997TIP3    H124406   0.513   4.563   4.239  0.5507 -0.0829 -0.0433
  997TIP3    H224407   0.589   4.633   4.128  0.4249  0.1780  0.0322
  998TIP3   OH224408   2.531   1.503   0.678  0.1829  0.2550 -0.4156
  998TIP3    H124409   2.581   1.580   0.705  0.2599  1.0066 -2.5205
  998TIP3    H224410   2.472   1.535   0.610  0.1562 -1.5165 -1.2913
  999TIP3   OH224411   1.747   1.020  13.836 -0.1501 -0.0724 -0.5083
  999TIP3    H124412   1.759   1.055  13.924  0.6477 -1.8421  0.1371
  999TIP3    H224413   1.661   0.977  13.840 -0.4233  0.4300 -0.8237
 1000TIP3   OH224414   5.079   6.102   2.591  0.4631 -0.0007  0.3106
 1000TIP3    H124415   5.155   6.047   2.572  0.6310  0.4875 -0.4973
 1000TIP3    H224416   5.070   6.156   2.513 -0.8487 -0.2065  0.3050
 1001TIP3   OH224417   2.221   1.126  15.343  0.0726 -0.1162  0.6703
 1001TIP3    H124418   2.287   1.130  15.412 -0.2317 -1.5387  1.0841
 1001TIP3    H224419   2.174   1.044  15.360 -1.7208  0.7916  0.3166
 1002TIP3   OH224420   3.692   5.853   4.315  0.4663 -0.1506  0.2666
 1002TIP3    H124421   3.661   5.764   4.298  0.1730 -0.2876  1.4322
 1002TIP3    H224422   3.775   5.841   4.361  2.3690  0.2094 -2.7899
 1003TIP3   OH224423   1.888   3.418   6.645  0.8116 -0.6563  0.0992
 1003TIP3    H124424   1.936   3.500   6.632  0.9441 -0.9593 -1.5886
 1003TIP3    H224425   1.798   3.446   6.663 -0.0624  0.0122 -4.0751
 1004TIP3   OH224426   1.278   6.285   3.564  0.0614 -0.8241  0.4364
 1004TIP3    H124427   1.270   6.380   3.553 -2.1689 -1.0747 -0.7340
 1004TIP3    H224428   1.372   6.270   3.574  0.3631  1.6704  2.6612
 1005TIP3   OH224429   2.960   2.235  14.281  0.1340 -0.1968 -0.3310
 1005TIP3    H124430   2.989   2.288  14.207  1.7222 -2.4846 -1.4926
 1005TIP3    H224431   3.030   2.243  14.346 -1.3179  1.9192  1.1262
 1006TIP3   OH224432   1.079   3.847   0.592  0.4447 -0.3140  0.1255
 1006TIP3    H124433   1.102   3.935   0.622  0.2906 -0.4081  0.5263
 1006TIP3    H224434   1.131   3.835   0.512  2.7249 -0.9391  1.5884
 1007TIP3   OH224435   1.875   4.297  15.421  0.1415 -0.1708 -0.3798
 1007TIP3    H124436   1.969   4.308  15.433  0.5175 -0.9219 -2.2337
 1007TIP3    H224437   1.845   4.257  15.502  1.1635  1.2538  0.7589
 1008TIP3   OH224438   2.933   5.461  10.758  0.3138 -0.0477 -0.1894
 1008TIP3    H124439   2.900   5.372  10.768  0.2022  0.1821  2.3487
 1008TIP3    H224440   2.894   5.509  10.831  1.4252  1.7565 -0.7149
 1009TIP3   OH224441   6.063   4.776   2.808 -0.1520 -0.0355 -0.4487
 1009TIP3    H124442   6.017   4.694   2.824  1.8800 -1.2058 -0.1890
 1009TIP3    H224443   6.140   4.772   2.865  1.0661  1.1207 -1.9043
 1010TIP3   OH224444   0.571   1.215  12.862 -0.3090  0.3648  0.0636
 1010TIP3    H124445   0.498   1.198  12.802 -0.4418 -0.9896  0.5844
 1010TIP3    H224446   0.552   1.162  12.939  1.2315 -0.0210  0.2109
 1011TIP3   OH224447   0.892   5.017  11.083  0.3271  0.1809 -0.1239
 1011TIP3    H124448   0.956   5.011  11.013  0.7669 -0.1395  0.2992
 1011TIP3    H224449   0.818   4.965  11.053  1.0780 -1.1392  0.2430
 1012TIP3   OH224450   6.704   6.525   4.234 -0.0006 -0.1333 -0.2465
 1012TIP3    H124451   6.630   6.476   4.270  0.7064 -0.3456  0.9894
 1012TIP3    H224452   6.716   6.490   4.146 -0.7775 -0.7730 -0.1076
 1013TIP3   OH224453   3.449   2.456  13.726  0.1077 -0.1171 -0.3648
 1013TIP3    H124454   3.536   2.491  13.743 -0.2645  0.1845  1.0989
 1013TIP3    H224455   3.455   2.363  13.751  0.0661 -0.1479 -0.4681
 1014TIP3   OH224456   0.536   5.808   3.893 -0.4173 -0.1941 -0.0924
 1014TIP3    H124457   0.482   5.883   3.867  0.7109  0.5169 -0.4680
 1014TIP3    H224458   0.521   5.743   3.825 -1.0239 -0.1250 -0.0326
 1015TIP3   OH224459   1.673   3.614   3.693 -0.4299 -0.2218 -0.4305
 1015TIP3    H124460   1.677   3.557   3.617 -2.5687  0.9497 -1.4904
 1015TIP3    H224461   1.584   3.648   3.694 -0.7757 -0.8384  3.1061
 1016TIP3   OH224462   4.821   6.219  12.737  0.5322  0.7095  0.4641
 1016TIP3    H124463   4.837   6.131  12.705  0.3252  0.9759 -0.3971
 1016TIP3    H224464   4.826   6.212  12.833  0.6322 -0.2006  0.3933
 1017TIP3   OH224465   1.451   1.102   1.482 -0.3222 -0.9307  0.3447
 1017TIP3    H124466   1.405   1.018   1.492  0.6338 -1.6499 -1.1252
 1017TIP3    H224467   1.485   1.101   1.393 -1.6241  1.7197 -0.2731
 1018TIP3   OH224468   6.498   3.659  11.292 -0.2658  0.1500  0.1107
 1018TIP3    H124469   6.533   3.740  11.255  1.6054  0.1706  1.7515
 1018TIP3    H224470   6.509   3.594  11.222  0.3939  0.8042 -0.4101
 1019TIP3   OH224471   3.475   2.499   0.330  0.2101  0.7600 -0.1982
 1019TIP3    H124472   3.401   2.552   0.300 -0.0029 -0.9604 -3.0597
 1019TIP3    H224473   3.447   2.409   0.317  2.2971  0.0328 -0.0232
 1020TIP3   OH224474   5.661   1.643  14.650  0.1446 -0.3578  0.0780
 1020TIP3    H124475   5.609   1.573  14.612  0.2449 -0.8877  0.9044
 1020TIP3    H224476   5.711   1.601  14.719 -0.4917  0.6927  1.2146
 1021TIP3   OH224477   3.775   2.757  14.989  0.1559 -0.3386  0.3607
 1021TIP3    H124478   3.843   2.706  14.944  0.0024 -0.4282  0.2334
 1021TIP3    H224479   3.693   2.721  14.958  0.0463 -0.0511  0.3147
 1022TIP3   OH224480   0.951   0.803  15.560  0.0400 -0.3357  0.0971
 1022TIP3    H124481   0.942   0.896  15.582  1.1594 -0.4058  0.9345
 1022TIP3    H224482   0.907   0.795  15.475  0.6104  1.1281 -0.3875
 1023TIP3   OH224483   0.667   3.931   0.033 -0.2987  0.1193  0.0117
 1023TIP3    H124484   0.611   3.924  -0.045  0.0579 -0.7820 -0.1684
 1023TIP3    H224485   0.675   3.842   0.065 -1.9909  0.6723  2.2165
 1024TIP3   OH224486   0.806   2.997  14.025 -0.0096  0.1881 -0.6139
 1024TIP3    H124487   0.900   2.982  14.018  0.1797  0.1278  1.3867
 1024TIP3    H224488   0.786   3.056  13.952  1.6452  0.4722 -0.8853
 1025TIP3   OH224489   0.035   0.214   2.298  0.4721 -0.1232  0.3134
 1025TIP3    H124490   0.055   0.307   2.288 -0.8339  0.4536  2.3546
 1025TIP3    H224491  -0.061   0.210   2.296  0.5059 -1.3914  0.4922
 1026TIP3   OH224492   1.544   0.707  11.942 -0.2174  0.6439 -0.2962
 1026TIP3    H124493   1.638   0.721  11.957  0.2319 -1.8439 -0.3670
 1026TIP3    H224494   1.510   0.680  12.027 -0.3438 -0.8417 -0.7990
 1027TIP3   OH224495   2.818   5.608   5.801  0.3347 -0.6681 -0.1799
 1027TIP3    H124496   2.846   5.560   5.723  1.7072  1.2747 -0.9551
 1027TIP3    H224497   2.863   5.564   5.873  1.0902 -0.8941 -0.7808
 1028TIP3   OH224498   0.397   1.523  13.012  0.5653  0.3014  0.3446
 1028TIP3    H124499   0.390   1.459  13.083 -0.6366 -0.2730 -0.2652
 1028TIP3    H224500   0.308   1.553  12.998  0.9712  1.3652 -0.0780
 1029TIP3   OH224501   1.161   1.639   5.161 -0.3295 -0.4083  0.4580
 1029TIP3    H124502   1.196   1.650   5.249  0.8562  0.0948 -0.0694
 1029TIP3    H224503   1.192   1.715   5.112  1.2032 -1.9447 -1.0835
 1030TIP3   OH224504   1.520   4.892  13.349  0.5818 -0.5148  0.0281
 1030TIP3    H124505   1.516   4.915  13.442 -3.5406 -0.6859  0.0622
 1030TIP3    H224506   1.501   4.798  13.347 -1.1252 -0.1770 -1.0209
 1031TIP3   OH224507   1.202   2.246  13.121 -0.5567  0.9805  0.2610
 1031TIP3    H124508   1.249   2.263  13.203 -0.6734  0.7865  0.3685
 1031TIP3    H224509   1.137   2.180  13.144 -0.4072  0.7204 -0.0487
 1032TIP3   OH224510   5.872   4.330  12.277  0.3694 -0.4660  0.1748
 1032TIP3    H124511   5.788   4.287  12.264  0.5745 -1.1909  1.0808
 1032TIP3    H224512   5.923   4.267  12.329  0.9714  0.5414  0.8398
 1033TIP3   OH224513   3.635   0.665  14.564  0.3072  0.0757  0.1877
 1033TIP3    H124514   3.571   0.622  14.620 -0.1942  1.2218  0.5215
 1033TIP3    H224515   3.720   0.648  14.606 -0.2619  4.0017  3.5757
 1034TIP3   OH224516   5.010   5.177  10.368  0.8693 -0.0300  0.1357
 1034TIP3    H124517   4.928   5.140  10.401 -0.4796  1.4791 -1.3432
 1034TIP3    H224518   5.074   5.107  10.380 -0.7541 -1.4673  0.8376
 1035TIP3   OH224519   0.017   5.782  16.039 -0.2348 -0.4719 -0.5399
 1035TIP3    H124520  -0.015   5.713  16.098 -0.3374 -0.8431 -1.0273
 1035TIP3    H224521  -0.062   5.811  15.992  0.0084 -0.8553 -1.1945
 1036TIP3   OH224522   4.449   4.792  14.906 -0.2607  0.5233 -0.5985
 1036TIP3    H124523   4.398   4.756  14.978  0.4463 -1.2952 -0.9408
 1036TIP3    H224524   4.384   4.821  14.843 -0.9206 -0.6780 -0.5101
 1037TIP3   OH224525   5.489   0.929  15.194  0.2864 -0.7804  0.1269
 1037TIP3    H124526   5.524   0.840  15.195 -1.4899 -1.5444  1.7450
 1037TIP3    H224527   5.464   0.945  15.285  1.7750  1.9213  0.1555
 1038TIP3   OH224528   3.270   2.714  14.438  0.1140 -0.1293  1.0158
 1038TIP3    H124529   3.222   2.797  14.442 -0.6591 -0.5945  3.4100
 1038TIP3    H224530   3.236   2.670  14.360 -1.0888  0.8960  0.9219
 1039TIP3   OH224531   4.939   5.229   5.649 -0.3118  0.3266 -0.2596
 1039TIP3    H124532   4.992   5.224   5.569 -1.2088 -1.1973 -0.7858
 1039TIP3    H224533   4.889   5.310   5.639 -0.5834  0.0373 -1.3521
 1040TIP3   OH224534   4.758   3.441  16.607 -0.7563  0.1899 -0.2016
 1040TIP3    H124535   4.822   3.390  16.558 -2.5028 -2.2457 -0.1113
 1040TIP3    H224536   4.807   3.477  16.681  0.4988 -1.7403 -0.0206
 1041TIP3   OH224537   1.029   4.188  15.758  0.3078 -0.1191 -0.3932
 1041TIP3    H124538   0.944   4.157  15.725  0.4175 -1.0057  0.1078
 1041TIP3    H224539   1.033   4.280  15.732 -0.7344 -0.1072 -0.5725
 1042TIP3   OH224540   1.500   1.749  16.746 -0.3641 -0.9789  0.0824
 1042TIP3    H124541   1.501   1.760  16.651 -0.8677 -0.9424  0.0815
 1042TIP3    H224542   1.411   1.773  16.772  0.5616  2.0912  0.9079
 1043TIP3   OH224543   2.176   5.168  12.954  0.3233  0.2377 -0.6319
 1043TIP3    H124544   2.115   5.101  12.985  1.6199 -0.4084  0.6337
 1043TIP3    H224545   2.184   5.230  13.026 -1.1446  2.0529 -1.9175
 1044TIP3   OH224546   1.783   4.727  12.276 -0.5873  0.0203 -0.2541
 1044TIP3    H124547   1.867   4.718  12.321  1.5081  2.1688 -3.3479
 1044TIP3    H224548   1.776   4.649  12.221 -1.2416 -0.6888  0.7871
 1045TIP3   OH224549   1.847   5.248   3.165  0.3451 -0.3629 -0.6232
 1045TIP3    H124550   1.817   5.266   3.254  2.3499 -0.9268  0.2162
 1045TIP3    H224551   1.766   5.239   3.114 -0.8326  1.8578  0.7070
 1046TIP3   OH224552   4.704   2.905   1.951 -0.3607 -0.1253  0.3409
 1046TIP3    H124553   4.777   2.843   1.959  0.1785  0.0735 -2.1543
 1046TIP3    H224554   4.721   2.970   2.019  1.1350 -0.7557  0.6238
 1047TIP3   OH224555   1.690   1.598   5.319 -0.4258 -0.0359 -0.4769
 1047TIP3    H124556   1.731   1.617   5.235 -1.6432 -0.7625 -1.2656
 1047TIP3    H224557   1.703   1.504   5.331 -1.6179 -0.2316 -0.6271
 1048TIP3   OH224558   1.481   4.470  17.151  0.0519  0.2730 -0.0063
 1048TIP3    H124559   1.460   4.525  17.075 -1.2225  0.0566  0.1595
 1048TIP3    H224560   1.404   4.415  17.162  0.6673 -0.4500  0.7974
 1049TIP3   OH224561   5.218   1.672   4.042  0.7601 -0.0687  0.4555
 1049TIP3    H124562   5.307   1.709   4.052  1.4992 -0.7820 -2.4945
 1049TIP3    H224563   5.231   1.578   4.042 -0.1830 -0.2129  0.9469
 1050TIP3   OH224564   0.064   0.539   4.079 -0.1952 -0.0633 -0.1921
 1050TIP3    H124565   0.049   0.630   4.055  2.2414  0.5373  0.2332
 1050TIP3    H224566   0.051   0.537   4.174  2.2244  0.5424  0.2373
 1051TIP3   OH224567   3.537   2.104  14.708 -0.2542 -0.3208  0.2317
 1051TIP3    H124568   3.482   2.060  14.643 -0.3742  0.3441 -0.1332
 1051TIP3    H224569   3.519   2.197  14.695  1.0984 -0.0664 -0.0400
 1052TIP3   OH224570   6.421   1.674   5.810  0.3045 -0.6452 -0.1500
 1052TIP3    H124571   6.400   1.665   5.903  1.4499  0.3691  0.2428
 1052TIP3    H224572   6.515   1.692   5.809 -0.1868  2.7254 -1.2067
 1053TIP3   OH224573   5.900   3.610  13.467  0.0586  0.4156 -0.2016
 1053TIP3    H124574   5.875   3.653  13.385 -0.8506  1.2339  0.4807
 1053TIP3    H224575   5.993   3.593  13.457  0.2188  1.5870 -0.9316
 1054TIP3   OH224576   3.945   1.174   4.668 -0.1048  0.2608 -0.0823
 1054TIP3    H124577   3.891   1.247   4.637 -1.3613 -0.3364  0.5855
 1054TIP3    H224578   3.970   1.200   4.757 -1.1833 -0.4114  0.4400
 1055TIP3   OH224579   4.944   3.823  16.884 -0.2515 -0.0525  0.2049
 1055TIP3    H124580   4.955   3.847  16.976 -0.4376 -0.0441  0.2266
 1055TIP3    H224581   4.872   3.760  16.884  0.9223 -1.4600  0.2829
 1056TIP3   OH224582   2.360   1.805   2.066 -0.3889 -0.3212  0.0327
 1056TIP3    H124583   2.398   1.819   2.153  2.8122 -2.0527 -0.9158
 1056TIP3    H224584   2.298   1.734   2.079 -0.7646  0.1643  1.0580
 1057TIP3   OH224585   0.223   3.861   5.612  0.1532  0.3088  0.1261
 1057TIP3    H124586   0.258   3.882   5.698 -1.8784 -0.6077  1.2649
 1057TIP3    H224587   0.151   3.923   5.599 -0.3590 -0.3547 -0.3203
 1058TIP3   OH224588   4.729   5.507  15.558 -0.2142  0.7124  0.0592
 1058TIP3    H124589   4.677   5.587  15.566  1.5914  1.8369  1.3384
 1058TIP3    H224590   4.742   5.478  15.648  1.0557  0.2819 -0.2465
 1059TIP3   OH224591   4.006   4.542   3.161 -0.5585  0.2074  0.0836
 1059TIP3    H124592   4.081   4.487   3.184  0.2185  0.5992 -1.4097
 1059TIP3    H224593   3.930   4.489   3.185  0.1639 -0.1308  1.7723
 1060TIP3   OH224594   1.586   6.677   3.666 -0.6077  0.5133  0.2513
 1060TIP3    H124595   1.547   6.643   3.585 -2.5305  1.8364  0.5703
 1060TIP3    H224596   1.608   6.598   3.716 -0.2727 -0.3092 -1.1170
 1061TIP3   OH224597   3.046   1.366  13.092 -0.0256 -0.0425  0.1846
 1061TIP3    H124598   3.031   1.287  13.040 -0.1754  0.1921 -0.1327
 1061TIP3    H224599   2.987   1.358  13.167 -0.3998  0.0047 -0.1049
 1062TIP3   OH224600   1.609   5.355   0.681 -0.5970  0.2172 -0.1861
 1062TIP3    H124601   1.658   5.373   0.762  0.4045 -1.5432 -0.3419
 1062TIP3    H224602   1.523   5.326   0.711 -0.5590  0.4943  0.2005
 1063TIP3   OH224603   6.260   3.806  16.967 -0.0842 -0.1835  0.2038
 1063TIP3    H124604   6.216   3.814  17.052 -0.6816 -2.4393  0.1458
 1063TIP3    H224605   6.350   3.782  16.989  0.1158  0.5116  0.1965
 1064TIP3   OH224606   5.573   3.111   5.867  0.0073 -0.0115  0.6004
 1064TIP3    H124607   5.604   3.038   5.812 -1.6370 -0.2702 -0.0380
 1064TIP3    H224608   5.581   3.078   5.957 -0.2408 -0.8120  0.3450
 1065TIP3   OH224609   6.473   0.686  16.764  0.6544 -0.3017 -0.2730
 1065TIP3    H124610   6.488   0.647  16.850 -1.4637  0.1951  0.3844
 1065TIP3    H224611   6.554   0.733  16.745  0.3850  1.6637  2.6352
 1066TIP3   OH224612   5.274   3.578  15.674 -0.0406 -0.9319 -0.1887
 1066TIP3    H124613   5.337   3.633  15.625 -0.1754 -0.7160 -0.1229
 1066TIP3    H224614   5.310   3.490  15.668 -0.1742 -0.9489 -0.8871
 1067TIP3   OH224615   2.665   3.819  11.370 -0.1353  0.7040  0.1641
 1067TIP3    H124616   2.604   3.835  11.442 -2.1992 -0.7067 -1.1457
 1067TIP3    H224617   2.666   3.902  11.321 -2.1184  0.4016 -0.5016
 1068TIP3   OH224618   6.272   5.830  15.247 -0.4345  0.5471 -0.4590
 1068TIP3    H124619   6.331   5.906  15.254 -0.9477  1.0261 -1.2447
 1068TIP3    H224620   6.330   5.757  15.227 -0.0110  0.8620 -0.4081
 1069TIP3   OH224621   6.266   1.805   6.248  0.4766  0.1806 -0.2695
 1069TIP3    H124622   6.199   1.819   6.315 -0.1491 -1.1997 -0.5739
 1069TIP3    H224623   6.308   1.890   6.238 -0.4386  0.7824  0.7814
 1070TIP3   OH224624   2.331   4.223  15.657 -0.2691 -0.4635  0.1089
 1070TIP3    H124625   2.389   4.245  15.730 -0.6169  0.0653  0.2325
 1070TIP3    H224626   2.252   4.189  15.699 -0.9324  0.9317  0.0377
 1071TIP3   OH224627   3.978   4.974  11.152 -0.1200 -0.1154  0.1676
 1071TIP3    H124628   4.003   5.065  11.141  1.3458 -0.4549  0.4762
 1071TIP3    H224629   4.013   4.949  11.237 -1.8156 -0.5672  0.7767
 1072TIP3   OH224630   2.881   2.295  10.975  0.7379 -0.1724 -0.6553
 1072TIP3    H124631   2.893   2.326  11.065 -0.7723  2.0742 -1.1401
 1072TIP3    H224632   2.809   2.232  10.981  0.3315  0.3107 -0.3335
 1073TIP3   OH224633   1.225   2.763  13.102 -0.3101 -0.5498 -0.0051
 1073TIP3    H124634   1.288   2.836  13.098 -0.7063 -0.2412 -1.2216
 1073TIP3    H224635   1.149   2.795  13.053  0.1116 -2.3435 -1.9727
 1074TIP3   OH224636   2.442   1.500   3.353 -0.1470 -0.5108  0.0880
 1074TIP3    H124637   2.521   1.527   3.399 -0.9500  0.2001  1.1180
 1074TIP3    H224638   2.441   1.552   3.273 -0.5820  0.9888  1.0356
 1075TIP3   OH224639   0.223   3.703  11.308 -0.3456 -0.1581  0.1592
 1075TIP3    H124640   0.201   3.702  11.215 -0.1025 -1.0402  0.1031
 1075TIP3    H224641   0.178   3.627  11.344 -0.3558  0.1183  0.7483
 1076TIP3   OH224642   4.140   5.239   1.730 -0.4682 -0.5438  0.2348
 1076TIP3    H124643   4.183   5.236   1.815 -1.8993  0.6248  1.0528
 1076TIP3    H224644   4.157   5.327   1.697  0.7268 -1.2314 -1.0906
 1077TIP3   OH224645   3.720   2.313  11.941 -0.0069 -0.0317  0.4179
 1077TIP3    H124646   3.628   2.322  11.966  0.4177 -0.6851  2.3831
 1077TIP3    H224647   3.766   2.298  12.023  1.9252  0.6389 -0.4736
 1078TIP3   OH224648   2.252   1.070   3.755  0.2973 -0.1449 -0.2575
 1078TIP3    H124649   2.212   1.085   3.669  1.1461  1.4022 -0.4176
 1078TIP3    H224650   2.291   0.983   3.748 -1.8368 -1.1529 -0.5272
 1079TIP3   OH224651   2.952   3.524  11.944  0.1173 -0.1879  0.0493
 1079TIP3    H124652   2.975   3.504  12.035 -1.0136  1.6364  0.8031
 1079TIP3    H224653   2.885   3.591  11.951 -0.8259 -0.8246 -2.1531
 1080TIP3   OH224654   5.398   0.863  15.963  0.2330  0.3914 -0.3287
 1080TIP3    H124655   5.354   0.948  15.978  0.7168  0.6701 -0.4727
 1080TIP3    H224656   5.375   0.811  16.040 -0.3030  0.5535 -0.3712
 1081TIP3   OH224657   4.112   2.541   3.707 -0.0094 -0.2649  0.5159
 1081TIP3    H124658   4.122   2.448   3.725  0.1321 -0.7619 -1.8441
 1081TIP3    H224659   4.018   2.555   3.697  0.0468 -0.4675 -0.4378
 1082TIP3   OH224660   4.829   3.503   6.613 -0.2560  0.4198 -0.8533
 1082TIP3    H124661   4.916   3.467   6.634  0.0157  1.5883  0.1030
 1082TIP3    H224662   4.844   3.554   6.533  0.1129  1.2016 -0.3001
 1083TIP3   OH224663   1.683   3.636  14.657 -0.1577  0.1176 -0.0395
 1083TIP3    H124664   1.640   3.710  14.612 -0.5096  0.2744  0.5468
 1083TIP3    H224665   1.667   3.653  14.750  1.1007  0.1302  0.1842
 1084TIP3   OH224666   1.257   4.227   3.602  0.0920  0.5325 -0.0321
 1084TIP3    H124667   1.302   4.196   3.681  0.4545  0.6087 -0.2087
 1084TIP3    H224668   1.254   4.150   3.545 -1.0542  0.1965  0.4396
 1085TIP3   OH224669   5.448   3.382  16.834  0.0211 -0.2128  0.1139
 1085TIP3    H124670   5.503   3.459  16.818 -0.3633 -0.0173 -0.2883
 1085TIP3    H224671   5.485   3.314  16.777 -0.3737  0.0254 -0.4378
 1086TIP3   OH224672   3.364   5.800  15.510  0.1369 -0.1734  0.6273
 1086TIP3    H124673   3.283   5.779  15.464  0.6360  0.7561 -0.7509
 1086TIP3    H224674   3.361   5.747  15.590 -0.9286 -1.5753 -0.3009
 1087TIP3   OH224675   2.531   5.300  12.870  0.8455 -0.5484 -0.6402
 1087TIP3    H124676   2.602   5.351  12.831  0.9369  0.9466  1.2988
 1087TIP3    H224677   2.451   5.338  12.832  0.9972 -2.4358 -3.0558
 1088TIP3   OH224678   2.213   3.140  13.554 -0.1621 -0.3331  0.4773
 1088TIP3    H124679   2.208   3.188  13.636  0.6020  0.4162  0.0957
 1088TIP3    H224680   2.251   3.202  13.492  1.2314 -1.5510  0.0745
 1089TIP3   OH224681   3.244   0.771  13.302 -0.2527 -0.0677 -0.4739
 1089TIP3    H124682   3.151   0.751  13.317  0.2425 -3.1344 -0.9561
 1089TIP3    H224683   3.252   0.777  13.207  0.0685  0.0955 -0.4364
 1090TIP3   OH224684   6.271   6.133   4.828  0.0903  0.0082  0.2047
 1090TIP3    H124685   6.356   6.176   4.819 -0.0490  0.1508 -0.4811
 1090TIP3    H224686   6.248   6.146   4.920  0.7227  0.1303  0.3553
 1091TIP3   OH224687   1.817   3.858   4.313 -0.1522  0.5627 -0.4344
 1091TIP3    H124688   1.733   3.811   4.313 -1.0049  2.0420 -0.0344
 1091TIP3    H224689   1.809   3.922   4.242 -0.2739  2.2325  1.0168
 1092TIP3   OH224690   0.906   3.737  17.050  0.3956  0.6105  0.6110
 1092TIP3    H124691   0.860   3.676  17.107  0.4481  1.3169  1.4248
 1092TIP3    H224692   0.979   3.770  17.103  0.9549  0.6375 -0.1507
 1093TIP3   OH224693   6.542   3.991   4.746  0.1650  0.0554 -0.4097
 1093TIP3    H124694   6.586   3.977   4.662 -0.3775  0.4396 -0.7663
 1093TIP3    H224695   6.451   3.970   4.728 -0.3345  2.0760 -0.4648
 1094TIP3   OH224696   6.510   6.070  13.519 -0.6200  0.1841  0.5364
 1094TIP3    H124697   6.417   6.045  13.514 -0.5628 -1.0785  3.6091
 1094TIP3    H224698   6.511   6.164  13.504 -2.4221  0.2484  0.6287
 1095TIP3   OH224699   1.350   0.377   1.408 -0.3059  0.3009  0.3526
 1095TIP3    H124700   1.369   0.368   1.315  0.2770  1.7391  0.3008
 1095TIP3    H224701   1.366   0.291   1.445  0.1170 -0.1149 -0.7621
 1096TIP3   OH224702   2.202   6.430  12.136 -0.2045  0.1399  0.0231
 1096TIP3    H124703   2.133   6.483  12.175  0.5778 -0.0008  1.6482
 1096TIP3    H224704   2.164   6.400  12.053 -1.3412  1.6849 -0.0518
 1097TIP3   OH224705   2.719   2.418   2.630  0.2975  0.8070  0.0317
 1097TIP3    H124706   2.676   2.500   2.606  0.0923  0.5283 -0.5684
 1097TIP3    H224707   2.753   2.384   2.547 -0.8014 -0.3966  0.0407
 1098TIP3   OH224708   5.317   1.658   2.543 -0.4523 -0.1099  0.6044
 1098TIP3    H124709   5.303   1.581   2.488 -0.8569  0.3884 -0.0059
 1098TIP3    H224710   5.395   1.699   2.507 -0.7824  0.2786  0.3092
 1099TIP3   OH224711   1.673   2.520   5.097 -0.1745  0.9070 -0.0947
 1099TIP3    H124712   1.764   2.492   5.110  0.7024  2.7998 -1.6626
 1099TIP3    H224713   1.671   2.610   5.130 -1.1007  1.3748 -1.3571
 1100TIP3   OH224714   3.082   1.175   5.795  0.0512 -1.1055  0.5046
 1100TIP3    H124715   3.012   1.236   5.775  2.7014  2.2071  0.3442
 1100TIP3    H224716   3.078   1.110   5.726 -1.3194  0.4455 -0.9621
 1101TIP3   OH224717   2.780   4.920  15.498  0.2270  0.0779  0.0489
 1101TIP3    H124718   2.745   4.932  15.409  0.3535 -1.8885 -0.3065
 1101TIP3    H224719   2.811   5.007  15.523 -0.0608  0.7375 -1.7269
 1102TIP3   OH224720   1.340   0.390  11.931  0.4500 -0.4713  0.1695
 1102TIP3    H124721   1.301   0.303  11.939  1.0595 -0.7319  0.3000
 1102TIP3    H224722   1.267   0.445  11.900  0.3082 -1.2287 -0.9224
 1103TIP3   OH224723   5.065   2.423  12.188 -0.4829 -0.8380 -0.2244
 1103TIP3    H124724   5.128   2.351  12.178 -0.9413 -1.0412 -2.0508
 1103TIP3    H224725   5.117   2.502  12.175 -0.4598 -0.9803 -1.0821
 1104TIP3   OH224726   2.558   4.592  14.583 -0.2391  0.0786  0.8235
 1104TIP3    H124727   2.582   4.643  14.505 -1.2493  0.0999  0.5119
 1104TIP3    H224728   2.605   4.509  14.572 -1.6806 -0.5988 -0.7136
 1105TIP3   OH224729   1.511   1.610   4.596  0.3026 -0.1239 -0.4203
 1105TIP3    H124730   1.417   1.629   4.594  0.2398 -0.2968 -2.6560
 1105TIP3    H224731   1.517   1.518   4.571  1.0276 -0.5153  1.1132
 1106TIP3   OH224732   4.438   5.783  10.463  0.0887  0.1969 -0.1272
 1106TIP3    H124733   4.517   5.794  10.410 -0.1242  1.6668 -0.1987
 1106TIP3    H224734   4.424   5.689  10.468  0.1140 -0.0064 -2.7093
 1107TIP3   OH224735   5.783   3.157   1.368  0.7602  0.4151 -0.4394
 1107TIP3    H124736   5.737   3.147   1.451 -0.6051 -0.0633 -1.2171
 1107TIP3    H224737   5.829   3.240   1.375  0.6352  0.3938  0.7821
 1108TIP3   OH224738   0.942   0.377   3.786 -0.3603 -0.0093 -0.2747
 1108TIP3    H124739   0.931   0.452   3.727  0.9626  1.2671  0.9975
 1108TIP3    H224740   1.033   0.349   3.772 -0.2693 -0.1768  0.5780
 1109TIP3   OH224741   3.406   4.989  16.934 -0.1609 -0.4268  0.7186
 1109TIP3    H124742   3.339   4.921  16.924  1.3312 -1.8972  0.3255
 1109TIP3    H224743   3.464   4.955  17.002  0.8494  0.2400  0.2142
 1110TIP3   OH224744   0.954   2.534   1.200 -0.1356 -0.7691  0.5143
 1110TIP3    H124745   0.961   2.619   1.244  1.0451  0.5385 -1.9663
 1110TIP3    H224746   0.860   2.519   1.192 -0.3669  0.2174  1.1808
 1111TIP3   OH224747   0.662   6.714  13.463 -0.2120  0.0175  0.1164
 1111TIP3    H124748   0.598   6.662  13.414  0.4104 -0.1274 -0.5486
 1111TIP3    H224749   0.697   6.775  13.399  0.8642 -0.3994  0.2988
 1112TIP3   OH224750   3.993   4.587   3.777  1.0306 -0.0917  0.9887
 1112TIP3    H124751   3.924   4.524   3.799  1.2347 -1.3028 -1.5391
 1112TIP3    H224752   4.074   4.544   3.804  0.9587  0.7907  2.7737
 1113TIP3   OH224753   5.348   2.596  16.708 -0.2865 -0.3497 -0.5773
 1113TIP3    H124754   5.444   2.592  16.701  0.0048  3.0989 -0.5701
 1113TIP3    H224755   5.317   2.593  16.618 -0.2739 -2.1621 -0.5481
 1114TIP3   OH224756   4.007   0.415  12.507 -0.3609  0.1197  0.9221
 1114TIP3    H124757   4.099   0.415  12.536  0.2909  1.7856 -0.9381
 1114TIP3    H224758   3.999   0.494  12.454 -2.3621 -1.0271 -0.5997
 1115TIP3   OH224759   2.055   5.741   6.369 -0.0710 -0.6549  0.2444
 1115TIP3    H124760   2.037   5.814   6.311 -0.6492 -0.4049  0.7282
 1115TIP3    H224761   2.143   5.711   6.344 -0.3224 -0.5828 -0.7763
 1116TIP3   OH224762   4.517   2.733  12.731 -0.5081  0.2146 -0.5105
 1116TIP3    H124763   4.505   2.674  12.806 -0.5566 -0.5702 -1.1166
 1116TIP3    H224764   4.433   2.775  12.720 -0.5963  0.0902 -0.3195
 1117TIP3   OH224765   4.293   6.415   4.248 -0.3128 -0.6677  0.3801
 1117TIP3    H124766   4.207   6.459   4.249  0.0270  0.3526 -2.8317
 1117TIP3    H224767   4.274   6.325   4.221 -0.4818 -0.8073  0.9621
 1118TIP3   OH224768   6.403   5.330  14.735 -0.0967  0.3376  0.0388
 1118TIP3    H124769   6.369   5.275  14.664  0.2595  2.1393 -1.6003
 1118TIP3    H224770   6.490   5.294  14.753  0.2328  0.4987 -1.1728
 1119TIP3   OH224771   2.245   4.781   5.336  0.4611 -0.6208  0.1189
 1119TIP3    H124772   2.170   4.753   5.389  1.0876 -2.2027  0.2149
 1119TIP3    H224773   2.318   4.728   5.368  1.2729 -0.2538 -1.0596
 1120TIP3   OH224774   2.624   2.048  12.021 -0.2053 -0.0462 -0.0330
 1120TIP3    H124775   2.633   2.081  11.931 -2.2226  0.7067 -0.0218
 1120TIP3    H224776   2.554   2.102  12.059  0.0771 -0.8682  1.7426
 1121TIP3   OH224777   3.497   5.723  13.236  0.2888  0.1743  0.0798
 1121TIP3    H124778   3.574   5.671  13.216  0.7232  0.3519  1.2217
 1121TIP3    H224779   3.463   5.685  13.317  0.1866  1.1843  0.5289
 1122TIP3   OH224780   1.703   3.259  13.236  0.4918  0.1015  0.1572
 1122TIP3    H124781   1.656   3.191  13.285  0.2609 -0.2959 -0.5973
 1122TIP3    H224782   1.794   3.249  13.262  0.2860  0.3090  0.9808
 1123TIP3   OH224783   0.802   6.142  14.665  0.3645 -0.1943  0.0116
 1123TIP3    H124784   0.736   6.076  14.686  0.0458 -0.8537 -2.6359
 1123TIP3    H224785   0.825   6.181  14.749 -3.3031 -0.0130  1.1186
 1124TIP3   OH224786   5.166   6.288   4.634  0.4192 -0.1410  0.1252
 1124TIP3    H124787   5.135   6.216   4.578 -1.6095 -0.0850  1.0807
 1124TIP3    H224788   5.261   6.287   4.623  0.2472 -1.3015 -1.8810
 1125TIP3   OH224789   3.820   6.451  11.491 -0.0266  0.3150 -0.5572
 1125TIP3    H124790   3.810   6.480  11.581  1.1060  0.7089 -0.5404
 1125TIP3    H224791   3.894   6.391  11.494 -0.9688 -0.9107 -0.9684
 1126TIP3   OH224792   3.580   2.415  12.641 -1.4011 -0.0973 -0.3023
 1126TIP3    H124793   3.551   2.324  12.649 -1.1909 -0.2401 -1.1420
 1126TIP3    H224794   3.579   2.448  12.731 -1.8490 -0.8129 -0.0356
 1127TIP3   OH224795   4.315   1.598  17.132 -0.3046 -0.7707 -0.2326
 1127TIP3    H124796   4.243   1.549  17.174 -0.9709 -1.1854 -1.7830
 1127TIP3    H224797   4.358   1.533  17.076  0.4323 -0.1924 -0.3363
 1128TIP3   OH224798   5.097   0.700  14.035  0.3278  0.4310  0.4364
 1128TIP3    H124799   5.079   0.613  13.999 -0.4693  1.0300 -0.6513
 1128TIP3    H224800   5.190   0.697  14.057  0.6773 -0.2201 -0.9777
 1129TIP3   OH224801   6.732   6.426  16.545  0.0325 -0.2862 -0.1055
 1129TIP3    H124802   6.683   6.346  16.563 -1.0726  0.6157  1.0580
 1129TIP3    H224803   6.757   6.419  16.453 -0.7899 -1.5650 -0.2489
 1130TIP3   OH224804   6.764   6.207  11.007 -0.0348 -0.6133 -0.0236
 1130TIP3    H124805   6.752   6.287  10.956 -0.0285  0.3423  1.4315
 1130TIP3    H224806   6.859   6.194  11.010 -0.0012 -0.3068  0.2823
 1131TIP3   OH224807   3.021   1.388  15.561 -0.5179 -0.3397  0.5181
 1131TIP3    H124808   3.018   1.373  15.655  0.0191 -0.9321  0.4430
 1131TIP3    H224809   2.945   1.340  15.527 -1.0502  0.3492  0.7000
 1132TIP3   OH224810   6.341   4.306   5.565 -0.1384 -0.2324  0.1698
 1132TIP3    H124811   6.338   4.274   5.475  0.8144 -0.2211  0.1209
 1132TIP3    H224812   6.295   4.240   5.616  0.2862 -0.8042 -0.1744
 1133TIP3   OH224813   4.416   4.240  16.557 -0.2579  0.2526 -0.2149
 1133TIP3    H124814   4.368   4.315  16.524  0.5842  0.3589 -1.2579
 1133TIP3    H224815   4.440   4.265  16.646 -0.5209  0.9668 -0.3344
 1134TIP3   OH224816   1.914   1.575   1.945 -0.0766 -0.4516 -0.1699
 1134TIP3    H124817   1.842   1.512   1.933 -0.5292 -0.7045  3.0457
 1134TIP3    H224818   1.869   1.658   1.960  0.1940 -0.7021  2.3497
 1135TIP3   OH224819   2.049   4.386  13.067 -0.4011  0.1529  0.1260
 1135TIP3    H124820   2.081   4.377  12.978  1.0968 -1.6886  0.7662
 1135TIP3    H224821   2.112   4.445  13.109  0.6593 -1.2731  0.6558
 1136TIP3   OH224822   4.556   1.722   4.544 -0.1625  0.5399 -0.2540
 1136TIP3    H124823   4.649   1.731   4.564  0.1295 -0.0617 -1.2610
 1136TIP3    H224824   4.511   1.743   4.626  0.9023 -0.4002  0.6045
 1137TIP3   OH224825   6.391   0.550  12.716  0.1278  0.1413  0.1913
 1137TIP3    H124826   6.316   0.563  12.657  0.1047  0.3507  0.2650
 1137TIP3    H224827   6.411   0.457  12.709  0.0001  0.1269  0.0014
 1138TIP3   OH224828   0.531   5.605   2.191 -0.0837  0.2054  0.4374
 1138TIP3    H124829   0.466   5.624   2.259  0.4513 -0.7606  1.2452
 1138TIP3    H224830   0.526   5.680   2.132 -3.3998 -0.7071 -0.6831
 1139TIP3   OH224831   1.439   6.306  13.406  0.3477  0.3844 -0.0503
 1139TIP3    H124832   1.465   6.261  13.326  0.2340 -0.9748  0.6356
 1139TIP3    H224833   1.344   6.294  13.410  0.2935  0.8434  0.0543
 1140TIP3   OH224834   6.643   3.688   0.197  0.1958  0.3309 -0.0696
 1140TIP3    H124835   6.686   3.772   0.182  1.4618 -0.5869 -1.9994
 1140TIP3    H224836   6.712   3.633   0.234 -0.8107  0.2786  1.8576
 1141TIP3   OH224837   2.358   6.243  16.118  0.5702  0.3459 -0.0177
 1141TIP3    H124838   2.293   6.184  16.155  0.0179 -0.1837 -1.7612
 1141TIP3    H224839   2.315   6.329  16.118  0.0183  0.0787 -0.7590
 1142TIP3   OH224840   6.482   1.244   0.051  0.2056 -0.5590 -0.0958
 1142TIP3    H124841   6.448   1.310   0.112 -0.4677 -0.6430 -0.3713
 1142TIP3    H224842   6.497   1.167   0.105  0.4542 -0.3627  0.1229
 1143TIP3   OH224843   2.468   5.637   5.212 -0.0540 -0.3217  0.3393
 1143TIP3    H124844   2.436   5.547   5.208  1.4325 -0.9822  1.9586
 1143TIP3    H224845   2.543   5.638   5.152  0.2862 -0.3541  0.7536
 1144TIP3   OH224846   1.030   3.586  15.763  0.0544  0.3961  0.3041
 1144TIP3    H124847   0.994   3.526  15.829  1.2698  0.2789  0.8913
 1144TIP3    H224848   1.113   3.546  15.737  0.3128  1.2217 -0.1670
 1145TIP3   OH224849   4.128   1.140  14.034  0.2304 -0.3717  0.1135
 1145TIP3    H124850   4.041   1.121  14.070 -0.0723 -0.8197 -0.8164
 1145TIP3    H224851   4.120   1.119  13.941  1.4067 -0.6091  0.0592
 1146TIP3   OH224852   5.173   3.263   4.985  0.7648 -0.6031  0.1412
 1146TIP3    H124853   5.088   3.254   5.027  1.3837  0.3233  1.6793
 1146TIP3    H224854   5.164   3.340   4.929  0.8337  0.0496  1.0050
 1147TIP3   OH224855   1.839   1.484  12.465 -0.6840  0.2077 -0.1183
 1147TIP3    H124856   1.905   1.551  12.483 -0.3864 -0.8118  3.2831
 1147TIP3    H224857   1.758   1.534  12.452 -0.0635  1.3325  0.1750
 1148TIP3   OH224858   1.699   2.142  11.698  0.4366 -0.7558  0.2061
 1148TIP3    H124859   1.789   2.147  11.665  0.5590 -0.6138  0.5558
 1148TIP3    H224860   1.708   2.109  11.787  0.1979 -0.0753  0.4863
 1149TIP3   OH224861   3.870   3.596   2.053  1.0778 -0.0911 -0.2617
 1149TIP3    H124862   3.907   3.541   2.122 -1.1516 -1.0597  0.2495
 1149TIP3    H224863   3.871   3.685   2.090  0.9640 -0.4250  0.5556
 1150TIP3   OH224864   5.177   5.401   5.206 -0.6059  0.2580  0.1989
 1150TIP3    H124865   5.257   5.380   5.157  0.0113  1.0094  0.8701
 1150TIP3    H224866   5.118   5.328   5.188 -0.1438  0.1810 -1.1143
 1151TIP3   OH224867   4.783   2.849  14.398  0.1427  0.2160  0.2296
 1151TIP3    H124868   4.846   2.908  14.356 -0.4843  0.0376 -1.0028
 1151TIP3    H224869   4.789   2.871  14.491 -0.2912  2.4472 -0.2122
 1152TIP3   OH224870   4.502   3.264   5.962 -0.2707  0.1391 -0.4338
 1152TIP3    H124871   4.461   3.268   6.049 -0.1309 -0.7011 -0.3163
 1152TIP3    H224872   4.471   3.181   5.925  0.4718  0.0024 -0.7740
 1153TIP3   OH224873   0.317   3.436   0.884 -0.6547  0.4814  0.2934
 1153TIP3    H124874   0.389   3.376   0.864 -1.0167  0.6462 -1.7446
 1153TIP3    H224875   0.293   3.473   0.799 -1.9152  1.8386  1.2020
 1154TIP3   OH224876   4.211   4.218   0.803 -0.6927 -0.1563  0.1978
 1154TIP3    H124877   4.137   4.160   0.785 -0.9798  0.4286 -0.5179
 1154TIP3    H224878   4.173   4.305   0.812 -0.0258  0.2528 -0.8191
 1155TIP3   OH224879   6.588   5.240  16.558 -0.1977 -0.0183 -0.5116
 1155TIP3    H124880   6.616   5.310  16.617 -1.3990  0.4206 -0.4321
 1155TIP3    H224881   6.566   5.167  16.616  2.4375 -1.0356 -0.6586
 1156TIP3   OH224882   3.981   3.977   2.968 -0.0520 -0.7651  0.2937
 1156TIP3    H124883   4.073   3.989   2.943 -0.2667  0.2538 -0.0679
 1156TIP3    H224884   3.932   4.017   2.896 -0.7291  0.6199  1.4820
 1157TIP3   OH224885   4.412   5.276   3.255 -0.1413  0.1391  0.4674
 1157TIP3    H124886   4.470   5.346   3.285 -1.0216  0.2110  2.0765
 1157TIP3    H224887   4.334   5.322   3.223  0.5349  0.0306 -1.4505
 1158TIP3   OH224888   3.861   6.213  13.341 -0.5007 -0.3079 -0.2515
 1158TIP3    H124889   3.908   6.130  13.344  0.0161  0.0065  0.9422
 1158TIP3    H224890   3.776   6.194  13.380  0.2067  0.0503  1.5802
 1159TIP3   OH224891   2.049   5.979   2.401 -0.5314 -0.1025 -0.5751
 1159TIP3    H124892   2.083   5.923   2.471  0.4130  1.4607  0.2795
 1159TIP3    H224893   1.957   5.990   2.422 -0.0032  1.3677  1.2088
 1160TIP3   OH224894   3.976   4.467   4.121  0.5374  0.0289  0.4083
 1160TIP3    H124895   4.039   4.531   4.156 -0.0955  1.6444 -1.2117
 1160TIP3    H224896   4.029   4.390   4.100  2.2578  1.7105 -1.9168
 1161TIP3   OH224897   4.749   2.913   5.702  0.1583 -0.4476 -0.5159
 1161TIP3    H124898   4.717   2.997   5.736 -0.9477 -0.9034 -0.3755
 1161TIP3    H224899   4.801   2.937   5.625  2.3690  0.5775  1.1806
 1162TIP3   OH224900   2.176   0.547  17.062 -0.0591  0.0518 -0.6024
 1162TIP3    H124901   2.216   0.614  17.117 -1.8188  0.6782 -0.0213
 1162TIP3    H224902   2.148   0.480  17.124 -0.2377 -0.1993 -0.9573
 1163TIP3   OH224903   6.528   0.667   5.717 -0.1482 -0.2607  0.3810
 1163TIP3    H124904   6.514   0.741   5.657  0.0130 -0.2592  0.3436
 1163TIP3    H224905   6.485   0.694   5.798  0.3268  0.0853  0.5263
 1164TIP3   OH224906   5.525   3.389  16.028 -0.1872  0.3585  0.1076
 1164TIP3    H124907   5.540   3.483  16.029 -2.3376  0.7547  1.2328
 1164TIP3    H224908   5.541   3.361  16.119  0.8550 -0.4803 -0.3005
 1165TIP3   OH224909   6.776   3.355  15.008  0.3326  0.0313 -0.0955
 1165TIP3    H124910   6.850   3.309  15.046 -0.4556  0.6941  2.3898
 1165TIP3    H224911   6.704   3.292  15.012  0.0127  0.4265  0.3783
 1166TIP3   OH224912   5.869   1.398   5.212 -1.0044  0.0966  0.4587
 1166TIP3    H124913   5.866   1.314   5.166  0.3195  0.4270 -0.3120
 1166TIP3    H224914   5.793   1.446   5.180 -0.6917 -0.0853 -0.6138
 1167TIP3   OH224915   1.565   3.727  11.556  0.4035  0.2380  0.2521
 1167TIP3    H124916   1.623   3.667  11.603  0.7130  1.0309  0.9030
 1167TIP3    H224917   1.584   3.710  11.463  1.0697 -0.1020  0.4396
 1168TIP3   OH224918   4.947   6.075  12.969 -0.3210  0.3245 -0.1443
 1168TIP3    H124919   4.995   6.023  12.904 -0.6596  0.2182 -0.3121
 1168TIP3    H224920   5.014   6.131  13.008  0.0120 -0.1041 -0.0914
 1169TIP3   OH224921   1.595   2.306   1.098 -0.0434  0.4014  0.2412
 1169TIP3    H124922   1.511   2.346   1.118 -0.0620 -0.0539  1.1157
 1169TIP3    H224923   1.660   2.373   1.120 -0.1203  0.2922  0.8268
 1170TIP3   OH224924   3.452   4.866   3.690  0.0628 -0.4874  0.2454
 1170TIP3    H124925   3.377   4.925   3.700  0.6000  0.3799 -0.6575
 1170TIP3    H224926   3.501   4.877   3.771  1.3129  2.0348 -0.7519
 1171TIP3   OH224927   4.650   1.845   1.052 -0.2399 -0.2252 -0.8324
 1171TIP3    H124928   4.692   1.855   0.967  0.4102 -2.1497 -0.7917
 1171TIP3    H224929   4.677   1.758   1.082 -1.2881 -0.0097  0.8752
 1172TIP3   OH224930   1.007   3.247  13.219 -0.7424 -0.1445  0.0405
 1172TIP3    H124931   1.067   3.320  13.238  0.4723 -1.1430  0.2090
 1172TIP3    H224932   0.959   3.275  13.141 -2.7644  2.2508  1.9841
 1173TIP3   OH224933   0.653   2.909   4.557 -0.4133  0.5512 -0.6074
 1173TIP3    H124934   0.662   3.004   4.560 -1.3299  0.6300 -0.1137
 1173TIP3    H224935   0.616   2.885   4.642 -0.1422 -0.2597 -0.7002
 1174TIP3   OH224936   0.959   4.246   5.165  0.5095  0.0644  0.2636
 1174TIP3    H124937   1.009   4.197   5.231 -0.8019 -1.4862  0.1425
 1174TIP3    H224938   0.873   4.260   5.205 -0.5225 -1.4631 -1.3317
 1175TIP3   OH224939   4.253   4.349   3.561 -0.1154  0.3651 -0.1004
 1175TIP3    H124940   4.299   4.408   3.502  0.3308 -2.3003 -2.6425
 1175TIP3    H224941   4.304   4.268   3.560 -1.6753 -0.7568  1.7208
 1176TIP3   OH224942   0.162   1.364  13.884 -0.0862  0.0763  0.2988
 1176TIP3    H124943   0.165   1.376  13.789  2.3775 -3.1686 -0.2233
 1176TIP3    H224944   0.071   1.344  13.904 -0.4017 -0.6452 -1.6679
 1177TIP3   OH224945   4.529   2.034  12.850  0.0532 -0.2228 -0.4820
 1177TIP3    H124946   4.541   2.034  12.945 -2.4117 -3.0189 -0.0229
 1177TIP3    H224947   4.616   2.052  12.815  1.1191  0.5257  2.2874
 1178TIP3   OH224948   4.985   2.330   1.754  0.3784  0.3270  0.6122
 1178TIP3    H124949   5.080   2.323   1.747  0.3630  0.3105  0.4275
 1178TIP3    H224950   4.965   2.294   1.841  0.5060 -0.0163  0.5022
 1179TIP3   OH224951   4.511   4.246   0.151 -0.6577 -0.7908 -0.3181
 1179TIP3    H124952   4.485   4.327   0.195  0.1927 -0.2151 -0.8555
 1179TIP3    H224953   4.460   4.178   0.195 -1.1124 -0.0137  0.3873
 1180TIP3   OH224954   5.221   1.604  14.617  0.5974  0.8634  0.4521
 1180TIP3    H124955   5.290   1.545  14.646 -0.5668  0.0207  1.5913
 1180TIP3    H224956   5.198   1.574  14.529  0.9730  0.4992  0.4780
 1181TIP3   OH224957   5.132   4.403   0.307 -0.5777  0.4772  0.2000
 1181TIP3    H124958   5.220   4.381   0.338 -0.6890 -1.0197 -0.4453
 1181TIP3    H224959   5.074   4.378   0.379 -0.6635 -1.0842 -0.3605
 1182TIP3   OH224960   4.141   0.416  12.235 -0.2462 -0.7346 -0.1562
 1182TIP3    H124961   4.144   0.446  12.144  0.1340 -1.3867 -0.3616
 1182TIP3    H224962   4.058   0.451  12.269 -0.3163 -0.3619 -0.7045
 1183TIP3   OH224963   1.449   6.115  15.430 -0.2436  0.2137  0.2525
 1183TIP3    H124964   1.533   6.154  15.404 -0.2466 -0.4377 -0.8073
 1183TIP3    H224965   1.468   6.022  15.438 -0.9708 -0.0169 -0.5129
 1184TIP3   OH224966   2.332   1.286  16.132 -0.3221  0.5150 -0.2652
 1184TIP3    H124967   2.397   1.341  16.089 -0.6796 -0.3334 -1.9964
 1184TIP3    H224968   2.346   1.199  16.094  0.6916 -0.8435  2.8796
 1185TIP3   OH224969   4.226   4.306  15.525  0.0969 -0.4522 -0.4196
 1185TIP3    H124970   4.241   4.361  15.602 -0.9201 -1.0048  0.1933
 1185TIP3    H224971   4.133   4.281  15.531  0.0816 -0.7622 -1.6563
 1186TIP3   OH224972   6.116   3.085  14.272 -0.4451  0.0186  0.0055
 1186TIP3    H124973   6.191   3.133  14.309 -1.2363 -0.1123  1.9083
 1186TIP3    H224974   6.142   2.993  14.275 -0.2668  0.0530 -0.3886
 1187TIP3   OH224975   6.692   5.841  11.079 -0.5323 -0.1387  0.1003
 1187TIP3    H124976   6.756   5.778  11.113  1.9689  1.5129 -1.2746
 1187TIP3    H224977   6.714   5.923  11.124 -1.0877  0.6784 -1.0886
 1188TIP3   OH224978   1.888   5.853   5.661 -0.2933  0.4757 -0.3420
 1188TIP3    H124979   1.886   5.758   5.671 -0.4083  0.3257 -1.6202
 1188TIP3    H224980   1.865   5.868   5.570 -0.3085  1.7415 -0.1509
 1189TIP3   OH224981   6.539   1.000  14.439  0.1416  0.4430  0.0837
 1189TIP3    H124982   6.568   0.928  14.495  1.3992 -0.3223 -1.4637
 1189TIP3    H224983   6.599   1.072  14.458  2.4181 -0.7094 -2.1491
 1190TIP3   OH224984   3.318   3.140  15.192 -0.5132  0.1230 -0.4677
 1190TIP3    H124985   3.312   3.062  15.247  2.0531 -1.1541 -1.7819
 1190TIP3    H224986   3.306   3.107  15.102  1.4118  1.0348 -1.1138
 1191TIP3   OH224987   1.468   0.075  14.626 -0.4970 -0.1023  0.1209
 1191TIP3    H124988   1.508   0.140  14.685  0.5442 -0.3494 -0.2917
 1191TIP3    H224989   1.537   0.056  14.562 -2.0382  1.1912 -2.0398
 1192TIP3   OH224990   2.481   1.222   5.683 -0.2702 -0.3720  0.4812
 1192TIP3    H124991   2.419   1.175   5.627 -0.0223  1.1467 -1.1588
 1192TIP3    H224992   2.469   1.183   5.770 -2.3006 -1.2617 -0.1394
 1193TIP3   OH224993   2.940   5.846  15.691 -0.2048 -0.3700  0.4806
 1193TIP3    H124994   2.893   5.899  15.756 -1.2152 -0.6632  0.0067
 1193TIP3    H224995   2.979   5.910  15.632 -0.5650 -0.1325  0.4964
 1194TIP3   OH224996   3.647   3.335   3.661  0.4978  0.2795  0.2262
 1194TIP3    H124997   3.586   3.292   3.601 -0.0127  0.9040  0.2768
 1194TIP3    H224998   3.642   3.283   3.742  0.9407 -0.3698 -0.1535
 1195TIP3   OH224999   3.554   1.157  12.514 -0.2135 -0.7035  0.0803
 1195TIP3    H125000   3.492   1.181  12.583  0.9519  0.6231  0.7294
 1195TIP3    H225001   3.618   1.228  12.515  1.7505 -2.3947 -0.0439
 1196TIP3   OH225002   2.200   4.486   4.119  0.4121 -0.4381 -0.5303
 1196TIP3    H125003   2.137   4.429   4.163 -0.7337  0.2395 -1.2124
 1196TIP3    H225004   2.238   4.538   4.189 -1.7765  1.0039 -0.3094
 1197TIP3   OH225005   1.702   3.677   3.964 -0.2070  0.0014  0.1208
 1197TIP3    H125006   1.758   3.755   3.966 -0.6304  0.2935  0.7608
 1197TIP3    H225007   1.667   3.675   3.875 -2.5658  2.2652  0.8605
 1198TIP3   OH225008   1.738   1.518   1.525 -0.3409 -0.4227 -0.2861
 1198TIP3    H125009   1.775   1.431   1.537 -1.1398 -0.7323  0.0554
 1198TIP3    H225010   1.674   1.526   1.596  2.4276  1.9973  2.1563
 1199TIP3   OH225011   2.331   3.579  16.348 -0.2423 -0.5727  0.4423
 1199TIP3    H125012   2.312   3.485  16.345  0.2942 -0.7249  1.4084
 1199TIP3    H225013   2.395   3.589  16.419  1.8246  0.1805 -1.4242
 1200TIP3   OH225014   1.936   3.877   5.644  0.2133 -0.4115  0.6393
 1200TIP3    H125015   1.953   3.868   5.551 -0.7381 -0.7382  0.4839
 1200TIP3    H225016   2.022   3.869   5.686  0.4187 -2.2231 -0.0673
 1201TIP3   OH225017   4.597   1.985  14.714  0.2020  0.0497 -0.7589
 1201TIP3    H125018   4.552   2.016  14.636  0.0171  1.5047 -0.1031
 1201TIP3    H225019   4.675   2.040  14.720  0.3397 -0.2096 -0.0427
 1202TIP3   OH225020   5.953   0.944   0.026 -0.2079 -0.8602  0.3029
 1202TIP3    H125021   5.926   0.853   0.013  0.9378 -1.1797  0.0188
 1202TIP3    H225022   6.048   0.943   0.012 -0.0318  0.2038  1.2856
 1203TIP3   OH225023   2.566   5.426   0.832  0.4652  0.4005 -0.1595
 1203TIP3    H125024   2.570   5.509   0.784  1.3196 -0.0368 -0.8620
 1203TIP3    H225025   2.531   5.363   0.768 -1.2431  0.4174  0.6857
 1204TIP3   OH225026   6.654   4.585   1.279 -1.0396 -0.0642  0.0100
 1204TIP3    H125027   6.683   4.499   1.309  1.9721  0.2641 -1.5199
 1204TIP3    H225028   6.594   4.566   1.207 -1.4126 -0.8747  0.5248
 1205TIP3   OH225029   4.208   3.392  11.616 -0.0936 -0.0494 -0.0864
 1205TIP3    H125030   4.286   3.410  11.669  0.7801 -1.4201 -0.8496
 1205TIP3    H225031   4.204   3.296  11.613 -0.5239  0.0043 -1.9017
 1206TIP3   OH225032   4.713   5.736  10.361  0.0759  0.0090 -0.1220
 1206TIP3    H125033   4.725   5.641  10.360  1.2594  0.0982  1.5855
 1206TIP3    H225034   4.757   5.766  10.281  1.6870 -0.7230  0.4286
 1207TIP3   OH225035   6.055   5.839   1.394 -0.5852 -0.2889  0.0796
 1207TIP3    H125036   6.113   5.908   1.363 -0.4821 -0.7064 -0.6787
 1207TIP3    H225037   6.033   5.864   1.484  0.0600  0.3279  0.0682
 1208TIP3   OH225038   2.846   6.133  12.231  0.2142 -0.0195  1.1234
 1208TIP3    H125039   2.856   6.040  12.253 -0.2012 -0.0937  0.9917
 1208TIP3    H225040   2.825   6.134  12.138  0.8386  0.2441  0.9771
 1209TIP3   OH225041   1.351   5.351   5.563 -0.5390  0.5047  0.3809
 1209TIP3    H125042   1.371   5.347   5.657  1.8368 -0.4904 -0.0877
 1209TIP3    H225043   1.375   5.440   5.537 -1.0347  0.7263  0.6614
 1210TIP3   OH225044   3.561   3.617  10.946  0.0272 -0.6264  0.2123
 1210TIP3    H125045   3.493   3.671  10.906  0.2611 -0.8692 -0.5243
 1210TIP3    H225046   3.538   3.528  10.920  1.1729 -0.6221 -0.8882
 1211TIP3   OH225047   0.596   1.150  14.843 -0.0971  0.6270 -0.0116
 1211TIP3    H125048   0.525   1.197  14.799  0.0443 -1.4641 -2.7894
 1211TIP3    H225049   0.608   1.071  14.789  3.3500  0.1741  1.2059
 1212TIP3   OH225050   5.900   3.217   0.605 -0.2976 -0.3444 -0.6239
 1212TIP3    H125051   5.886   3.165   0.685 -1.7442  1.5700  0.4485
 1212TIP3    H225052   5.826   3.195   0.549  0.0035 -0.7067 -0.8771
 1213TIP3   OH225053   0.218   0.898  12.439  0.6180  0.0018  0.0363
 1213TIP3    H125054   0.184   0.922  12.525  1.9640 -0.0696  0.6104
 1213TIP3    H225055   0.287   0.962  12.422 -1.0698  1.4296 -2.0158
 1214TIP3   OH225056   1.260   3.693  14.754  0.3239 -0.1904  0.0552
 1214TIP3    H125057   1.305   3.769  14.718 -0.8904 -0.0903 -1.3703
 1214TIP3    H225058   1.288   3.688  14.845  0.9722  1.5281 -0.0245
 1215TIP3   OH225059   4.021   2.749   2.562  0.3689 -0.2701  0.0743
 1215TIP3    H125060   3.947   2.810   2.566  0.3166 -0.3491  0.4182
 1215TIP3    H225061   3.994   2.676   2.618  0.6581 -0.3579  0.1013
 1216TIP3   OH225062   2.798   1.088  16.695 -0.2765  0.2974 -0.0639
 1216TIP3    H125063   2.873   1.125  16.648 -0.7726  2.8765  0.9618
 1216TIP3    H225064   2.731   1.077  16.628  0.6749 -1.1622 -0.8236
 1217TIP3   OH225065   3.302   6.745  14.642  0.8368 -0.0185 -0.4676
 1217TIP3    H125066   3.315   6.653  14.663  0.3828 -0.4908 -2.0813
 1217TIP3    H225067   3.281   6.787  14.726  0.2304 -1.5270  0.1655
 1218TIP3   OH225068   3.847   5.153  16.719 -0.3887 -0.0563 -0.0204
 1218TIP3    H125069   3.785   5.086  16.748 -1.9144  1.2864 -0.0283
 1218TIP3    H225070   3.792   5.223  16.685  1.1863  0.8364 -0.8388
 1219TIP3   OH225071   4.019   2.099   2.670  0.1053  0.3430 -0.1653
 1219TIP3    H125072   4.109   2.119   2.644 -0.2029 -1.1306 -2.7898
 1219TIP3    H225073   3.965   2.161   2.620 -0.3792  1.9181  2.1783
 1220TIP3   OH225074   2.210   3.900   1.573  0.4273  0.5962 -0.0583
 1220TIP3    H125075   2.281   3.839   1.552 -0.4173  0.2363 -2.1197
 1220TIP3    H225076   2.225   3.975   1.515 -0.4047  0.8578  0.0497
 1221TIP3   OH225077   0.340   4.361  12.448 -0.3388 -0.2794  0.2661
 1221TIP3    H125078   0.418   4.392  12.402 -0.1073 -0.1025  0.7676
 1221TIP3    H225079   0.328   4.272  12.416 -1.7898  0.7192 -2.1970
 1222TIP3   OH225080   4.084   0.503   4.343  0.3731  0.0887  0.1451
 1222TIP3    H125081   3.989   0.503   4.356 -0.0568 -2.2497 -2.1520
 1222TIP3    H225082   4.103   0.592   4.312 -0.9837  0.7282  1.0301
 1223TIP3   OH225083   4.088   3.617   1.855 -0.2320  0.4363 -0.2867
 1223TIP3    H125084   4.151   3.562   1.901  0.5434  2.8449  1.8257
 1223TIP3    H225085   4.007   3.608   1.905 -0.1298  1.0449  0.0092
 1224TIP3   OH225086   6.279   3.425   1.981 -0.5937  0.3092 -0.2848
 1224TIP3    H125087   6.288   3.518   2.000 -1.0502  0.2362  0.3189
 1224TIP3    H225088   6.201   3.398   2.029 -1.0121 -0.1849 -1.2019
 1225TIP3   OH225089   3.235   2.108  16.761 -0.3025  0.2879 -0.1672
 1225TIP3    H125090   3.176   2.048  16.808 -1.2168  2.0084  1.0027
 1225TIP3    H225091   3.317   2.105  16.810 -0.6612  0.6838  0.4742
 1226TIP3   OH225092   6.447   1.300   0.509 -0.0392 -0.2467 -0.2987
 1226TIP3    H125093   6.495   1.351   0.444  2.9352 -1.8601  0.4920
 1226TIP3    H225094   6.372   1.265   0.460 -0.9593  2.8979 -1.3933
 1227TIP3   OH225095   2.566   5.253   1.302  0.3139 -0.0678  0.7190
 1227TIP3    H125096   2.573   5.271   1.208 -2.0473 -1.2694  0.2410
 1227TIP3    H225097   2.645   5.291   1.339  1.7103 -0.2384 -1.8433
 1228TIP3   OH225098   5.001   1.526   0.822 -0.3980  0.5036 -0.5065
 1228TIP3    H125099   4.994   1.451   0.762  0.0139  1.6504 -2.0590
 1228TIP3    H225100   5.095   1.538   0.835 -0.4861 -0.3025  1.1901
 1229TIP3   OH225101   1.128   4.089  15.425  0.1965 -0.2289 -0.0870
 1229TIP3    H125102   1.169   4.155  15.370 -0.6106 -0.6487 -1.2283
 1229TIP3    H225103   1.200   4.053  15.478  0.9676  0.2562 -0.7884
 1230TIP3   OH225104   3.858   0.500  14.609 -0.5058 -0.6334  0.1757
 1230TIP3    H125105   3.846   0.411  14.576  2.2940 -1.1764  0.3466
 1230TIP3    H225106   3.935   0.533  14.563  1.0095  0.1269  3.0221
 1231TIP3   OH225107   3.091   4.434  12.101  0.0192  0.5474  0.1818
 1231TIP3    H125108   3.105   4.516  12.149  1.6435  1.0555 -1.0596
 1231TIP3    H225109   3.011   4.449  12.052 -0.6096  0.7416  1.2231
 1232TIP3   OH225110   4.617   0.033   3.295 -0.1442 -0.0093  0.8079
 1232TIP3    H125111   4.635   0.022   3.388 -0.1865 -0.2745  0.7862
 1232TIP3    H225112   4.691   0.084   3.262  0.0473 -0.2106  0.9223
 1233TIP3   OH225113   4.272   3.311  13.363 -0.1990  0.2773  0.3218
 1233TIP3    H125114   4.226   3.286  13.283 -1.7411  2.3626  0.4871
 1233TIP3    H225115   4.326   3.234  13.384 -1.2795 -1.0943 -1.5739
 1234TIP3   OH225116   3.877   3.411   2.531  0.0739 -0.7525 -0.0971
 1234TIP3    H125117   3.891   3.505   2.519 -3.0335 -0.1436  0.1019
 1234TIP3    H225118   3.910   3.394   2.619 -1.7966  0.8526  1.0138
 1235TIP3   OH225119   3.896   2.568   4.765 -0.0776  0.0667  0.2818
 1235TIP3    H125120   3.862   2.528   4.845  0.1242 -2.0956 -0.6643
 1235TIP3    H225121   3.818   2.591   4.715 -0.2272 -1.5263 -0.2706
 1236TIP3   OH225122   6.377   5.538   3.025 -0.3883 -0.0094  0.2019
 1236TIP3    H125123   6.333   5.623   3.022  0.9438  0.8919  3.0597
 1236TIP3    H225124   6.468   5.558   3.005 -0.1725 -0.8884  0.2758
 1237TIP3   OH225125   3.459   3.941   1.682 -0.2351  0.6131  0.3179
 1237TIP3    H125126   3.520   3.989   1.626 -0.0849  1.5157  1.2114
 1237TIP3    H225127   3.515   3.888   1.739 -0.1936  2.0296  1.6667
 1238TIP3   OH225128   6.565   4.476  16.580  0.3912 -0.0425 -0.1985
 1238TIP3    H125129   6.494   4.503  16.639  0.5896  0.0252  0.0111
 1238TIP3    H225130   6.583   4.385  16.606  0.8602  0.1649  0.2301
 1239TIP3   OH225131   0.956   2.916   4.125  0.0837 -0.1333 -0.1432
 1239TIP3    H125132   0.978   2.963   4.206  0.0408  0.4479 -0.4583
 1239TIP3    H225133   1.040   2.887   4.090  0.0360 -1.1115  0.5304
 1240TIP3   OH225134   4.113   2.937  14.653  0.1068  0.5645 -0.4724
 1240TIP3    H125135   4.115   2.845  14.625 -1.1251  0.9595 -2.0814
 1240TIP3    H225136   4.197   2.973  14.626  1.1747 -0.3781  1.4310
 1241TIP3   OH225137   4.870   5.797  13.077 -0.0485 -0.0375 -0.5220
 1241TIP3    H125138   4.816   5.721  13.096 -0.6579  0.0337 -1.8335
 1241TIP3    H225139   4.850   5.859  13.147  0.9062 -1.2579  0.9064
 1242TIP3   OH225140   3.663   3.962  13.582 -0.3550 -0.7414  0.7996
 1242TIP3    H125141   3.661   3.922  13.495  1.3002  0.8258 -0.0313
 1242TIP3    H225142   3.717   3.903  13.634  0.5784 -0.5344  0.0894
 1243TIP3   OH225143   6.213   0.531   0.421  0.0257 -0.5383 -0.0314
 1243TIP3    H125144   6.251   0.591   0.485  0.8446  0.0574 -1.0360
 1243TIP3    H225145   6.125   0.512   0.455  0.9720 -1.4766  2.0308
 1244TIP3   OH225146   0.561   4.633  12.077 -0.9472 -0.2645  0.0624
 1244TIP3    H125147   0.511   4.576  12.018 -0.2103 -0.2849 -0.5698
 1244TIP3    H225148   0.613   4.687  12.018 -0.8785  0.3600  0.6862
 1245TIP3   OH225149   1.974   5.345  14.067  0.2856  0.2375  0.3564
 1245TIP3    H125150   1.979   5.292  13.987  2.5071  0.8407  0.0242
 1245TIP3    H225151   1.883   5.339  14.095  0.5508 -4.8916  1.1010
 1246TIP3   OH225152   6.316   1.505   1.959  0.2026  0.5682  0.4189
 1246TIP3    H125153   6.234   1.555   1.961  0.9428  1.8126  0.8221
 1246TIP3    H225154   6.356   1.528   1.875  0.0456 -0.2158  0.1213
 1247TIP3   OH225155   1.698   2.070  11.953  0.5961 -0.1422 -0.3383
 1247TIP3    H125156   1.710   2.017  12.031 -1.5398 -2.7769 -1.6491
 1247TIP3    H225157   1.617   2.119  11.969  1.7331  1.6494  0.2291
 1248TIP3   OH225158   0.271   6.780  11.455  0.0687 -0.3918 -0.1713
 1248TIP3    H125159   0.229   6.719  11.517  0.2513 -0.1827  0.1636
 1248TIP3    H225160   0.206   6.849  11.441 -0.5019 -1.1241 -1.2701
 1249TIP3   OH225161   5.586   0.090   0.877 -0.5636  0.6029 -0.6754
 1249TIP3    H125162   5.635   0.018   0.916 -3.5284 -1.4027 -0.3961
 1249TIP3    H225163   5.630   0.169   0.910  1.7258 -1.0207  0.4249
 1250TIP3   OH225164   4.600   4.961  11.625 -0.5802 -0.1333  0.1791
 1250TIP3    H125165   4.605   5.004  11.710  1.3418 -0.8941  0.5142
 1250TIP3    H225166   4.682   4.911  11.619 -1.3784 -1.3466 -1.4453
 1251TIP3   OH225167   0.328   2.365   6.577  0.6079 -0.3665  0.3471
 1251TIP3    H125168   0.381   2.429   6.530  2.4042 -2.1222 -0.1919
 1251TIP3    H225169   0.240   2.403   6.579  0.7896  0.5577 -2.9927
 1252TIP3   OH225170   0.733   6.165  12.753  0.4754  0.9614 -0.9570
 1252TIP3    H125171   0.769   6.118  12.678 -2.9793 -2.6983 -0.6121
 1252TIP3    H225172   0.682   6.237  12.715  2.0031  1.6713 -1.7591
 1253TIP3   OH225173   6.498   4.153   0.943  0.9372  0.0677  0.1581
 1253TIP3    H125174   6.521   4.138   1.035  1.6638  0.5462  0.0617
 1253TIP3    H225175   6.575   4.124   0.894  0.7839  0.3715 -0.2648
 1254TIP3   OH225176   5.735   1.456  16.867 -0.0521 -0.0613  0.2593
 1254TIP3    H125177   5.663   1.404  16.903 -0.9530 -0.0072 -1.3484
 1254TIP3    H225178   5.814   1.404  16.887 -0.5947 -0.4796  1.4087
 1255TIP3   OH225179   0.784   5.069  13.811 -0.0934  0.3178 -0.0594
 1255TIP3    H125180   0.747   5.139  13.758 -2.1924 -0.3341  0.4621
 1255TIP3    H225181   0.798   4.997  13.750  0.1400  0.4960 -0.2185
 1256TIP3   OH225182   2.062   6.279  11.962  0.2399 -0.2579  0.2222
 1256TIP3    H125183   2.025   6.253  11.877  0.3761  0.7850 -0.1696
 1256TIP3    H225184   1.989   6.321  12.008  0.3191 -0.3110  0.3972
 1257TIP3   OH225185   3.839   4.147  14.443  0.2613 -0.5314  0.1599
 1257TIP3    H125186   3.931   4.165  14.463 -0.1044  1.6183  0.1136
 1257TIP3    H225187   3.828   4.054  14.465  1.9726 -0.3993  1.8770
 1258TIP3   OH225188   4.857   1.437   5.539  0.2993  0.4223  0.1891
 1258TIP3    H125189   4.891   1.522   5.569  0.6613  0.0517  0.8693
 1258TIP3    H225190   4.771   1.431   5.579 -0.3523  1.0985 -1.0491
 1259TIP3   OH225191   3.819   5.659  15.686  0.1134  0.2696 -0.5976
 1259TIP3    H125192   3.732   5.659  15.726  0.0817 -0.3628 -0.6568
 1259TIP3    H225193   3.811   5.717  15.610  0.5141  2.5345  1.0046
 1260TIP3   OH225194   2.067   2.581   0.434  0.7524 -0.0813 -0.1945
 1260TIP3    H125195   2.003   2.511   0.419  1.5943 -0.6539 -1.1798
 1260TIP3    H225196   2.086   2.616   0.347  2.6877 -0.7565 -0.0976
 1261TIP3   OH225197   5.180   1.987  14.936  0.5336  0.1333  0.6836
 1261TIP3    H125198   5.173   2.065  14.880  0.3897  0.1458  0.7185
 1261TIP3    H225199   5.271   1.985  14.963  0.2453  1.0837  1.8264
 1262TIP3   OH225200   3.087   0.527   1.013  0.1096 -0.2266  0.3592
 1262TIP3    H125201   3.050   0.580   0.942  0.6212  0.7790  0.8242
 1262TIP3    H225202   3.161   0.579   1.045  0.2026 -0.9163  1.2911
 1263TIP3   OH225203   6.156   6.752  15.481 -0.5127  0.3376  0.2361
 1263TIP3    H125204   6.128   6.843  15.485 -2.8863 -0.2766 -0.6950
 1263TIP3    H225205   6.106   6.708  15.549 -1.7890 -0.7689 -1.3231
 1264TIP3   OH225206   1.196   6.211   1.175 -0.7548  0.1002 -0.2240
 1264TIP3    H125207   1.150   6.150   1.233 -0.9439 -0.3149 -0.8009
 1264TIP3    H225208   1.288   6.188   1.184 -0.7702  0.1294  0.0140
 1265TIP3   OH225209   4.993   4.206   1.366 -0.6357 -0.3721 -0.2945
 1265TIP3    H125210   4.936   4.215   1.289 -1.3140 -2.2482 -0.0657
 1265TIP3    H225211   4.973   4.283   1.420 -1.2630  0.1860 -1.2862
 1266TIP3   OH225212   5.306   1.076  13.833 -0.2357 -0.5493 -0.1181
 1266TIP3    H125213   5.348   1.162  13.838  2.7082 -1.7124 -2.0999
 1266TIP3    H225214   5.216   1.096  13.807  0.6266  1.9489 -1.6545
 1267TIP3   OH225215   0.718   5.631   0.235 -0.1771 -0.3699  0.8610
 1267TIP3    H125216   0.750   5.663   0.150 -0.4640 -1.6311  0.2538
 1267TIP3    H225217   0.758   5.545   0.245 -0.8967 -0.6369  1.5661
 1268TIP3   OH225218   5.540   3.538   4.408  0.3394  0.2576 -0.3711
 1268TIP3    H125219   5.515   3.615   4.357 -1.8288 -0.7823 -1.0097
 1268TIP3    H225220   5.614   3.500   4.361  1.0777  1.6319 -0.3495
 1269TIP3   OH225221   0.509   4.994  13.617  0.3496 -0.1874  0.2088
 1269TIP3    H125222   0.471   5.040  13.692  0.9601 -0.1673  0.5126
 1269TIP3    H225223   0.435   4.979  13.558 -0.2371 -0.6595  1.0458
 1270TIP3   OH225224   3.355   0.445  14.986 -0.1441 -0.0489 -0.5131
 1270TIP3    H125225   3.277   0.412  15.031  0.0114 -0.8561 -0.8129
 1270TIP3    H225226   3.408   0.367  14.969  0.3338  0.3817 -1.0642
 1271TIP3   OH225227   3.024   4.957  12.177  0.3422  0.4146 -0.4622
 1271TIP3    H125228   2.991   4.970  12.266 -0.3876 -1.1322 -0.4669
 1271TIP3    H225229   3.046   5.045  12.146  2.0800  0.8730  1.7752
 1272TIP3   OH225230   6.171   5.092   0.674 -0.5706 -0.1564  0.3921
 1272TIP3    H125231   6.130   5.032   0.612 -0.8042 -0.9598  1.3099
 1272TIP3    H225232   6.264   5.091   0.650 -0.8555  0.6544 -0.8444
 1273TIP3   OH225233   1.331   4.336  14.509 -0.5827  0.2489  0.4825
 1273TIP3    H125234   1.353   4.243  14.518  1.4136  0.6147 -0.3507
 1273TIP3    H225235   1.258   4.338  14.447 -0.1665 -0.7055 -0.0424
 1274TIP3   OH225236   0.406   3.103   5.764  0.1731  0.4767 -0.4326
 1274TIP3    H125237   0.397   3.071   5.674  2.1649  1.2789 -0.9658
 1274TIP3    H225238   0.322   3.146   5.783 -0.9431 -1.2592 -1.2213
 1275TIP3   OH225239   4.076   1.822   6.144  0.2548  0.8786  0.1450
 1275TIP3    H125240   3.981   1.818   6.156  0.1537 -0.5325 -0.8812
 1275TIP3    H225241   4.110   1.748   6.195  0.8240  1.3867  0.5241
 1276TIP3   OH225242   0.269   6.610  11.057 -0.0058  0.2416  0.2343
 1276TIP3    H125243   0.231   6.546  11.116  0.4961 -1.3007 -1.0349
 1276TIP3    H225244   0.275   6.690  11.108 -2.4228 -0.1743  1.2791
 1277TIP3   OH225245   5.701   1.282   4.211 -0.8364 -0.8088 -0.2893
 1277TIP3    H125246   5.760   1.264   4.285 -1.1276  0.3300  0.2415
 1277TIP3    H225247   5.649   1.203   4.203  0.8533 -1.9281 -0.8726
 1278TIP3   OH225248   5.591   1.827   0.446  0.8832  0.0712 -0.2351
 1278TIP3    H125249   5.643   1.746   0.452  0.8770  0.1640  2.8638
 1278TIP3    H225250   5.656   1.896   0.431  1.2717 -0.1742  0.2767
 1279TIP3   OH225251   0.330   0.667  16.645  0.2557 -0.8121 -0.2380
 1279TIP3    H125252   0.409   0.678  16.593  0.2983 -0.7169 -0.1508
 1279TIP3    H225253   0.292   0.755  16.650  0.7892 -0.6297  0.7584
 1280TIP3   OH225254   6.031   1.336   4.100 -0.3600  0.0893  0.1052
 1280TIP3    H125255   5.979   1.334   4.019 -0.3503 -2.6423  0.0887
 1280TIP3    H225256   6.057   1.245   4.114 -0.1650  0.5192  3.0857
 1281TIP3   OH225257   1.780   2.620   1.703 -0.3272  0.1369 -0.0839
 1281TIP3    H125258   1.694   2.617   1.662  0.2076  0.8314 -1.3253
 1281TIP3    H225259   1.779   2.548   1.767 -1.3145 -0.7965 -1.1064
 1282TIP3   OH225260   4.315   0.327   0.336  0.3772 -0.1409  0.4680
 1282TIP3    H125261   4.316   0.266   0.262 -2.6596 -0.0628  0.2524
 1282TIP3    H225262   4.379   0.394   0.312  1.0045 -1.2114 -1.0617
 1283TIP3   OH225263   5.453   2.560   5.386 -0.2644  0.1164  0.5924
 1283TIP3    H125264   5.531   2.566   5.441 -0.8590  0.6381  1.3950
 1283TIP3    H225265   5.476   2.496   5.319  0.1073 -1.3921  2.0796
 1284TIP3   OH225266   5.401   1.401   2.760  0.4880 -0.4135  0.1611
 1284TIP3    H125267   5.495   1.380   2.764  0.7135  0.6304  0.6321
 1284TIP3    H225268   5.385   1.457   2.836 -0.8972 -1.9203  1.0459
 1285TIP3   OH225269   0.123   6.034   3.342 -0.5486 -0.0452 -0.3383
 1285TIP3    H125270   0.054   6.099   3.328 -2.4377 -2.0053 -0.7104
 1285TIP3    H225271   0.096   5.988   3.421 -0.1861 -1.4635 -1.0128
 1286TIP3   OH225272   1.845   4.205  16.313 -0.3655 -0.2650  0.4577
 1286TIP3    H125273   1.925   4.195  16.262 -0.2663  0.8784  0.3554
 1286TIP3    H225274   1.875   4.210  16.404 -0.4963 -1.7408  0.6053
 1287TIP3   OH225275   1.316   3.316   5.950  0.1023  0.5163 -0.2169
 1287TIP3    H125276   1.367   3.244   5.913  0.8145  0.6823  0.4003
 1287TIP3    H225277   1.244   3.329   5.889 -0.7836 -1.5604  0.3257
 1288TIP3   OH225278   3.743   1.425  13.439  0.0381 -0.4571 -0.3263
 1288TIP3    H125279   3.806   1.438  13.368  0.7154 -0.2133  0.3077
 1288TIP3    H225280   3.788   1.369  13.502 -0.4344 -0.4047  0.0667
 1289TIP3   OH225281   2.433   6.302  12.942 -0.3818 -0.3144 -0.3075
 1289TIP3    H125282   2.422   6.270  13.031  2.6668  2.3756  1.2533
 1289TIP3    H225283   2.347   6.338  12.918 -1.5152 -1.9413  1.0716
 1290TIP3   OH225284   3.328   4.024  13.328  0.1504  0.0150 -0.2786
 1290TIP3    H125285   3.370   4.022  13.242 -0.8235  1.2342 -0.8054
 1290TIP3    H225286   3.302   3.933  13.343 -0.3090 -0.1000 -1.5967
 1291TIP3   OH225287   4.785   6.246  10.982 -0.0279  0.0482  0.1885
 1291TIP3    H125288   4.811   6.317  11.041 -1.9711  0.9232  0.0493
 1291TIP3    H225289   4.770   6.290  10.898  1.0447 -0.9258 -0.5547
 1292TIP3   OH225290   3.346   1.235   0.377  0.0226  0.2854 -0.1397
 1292TIP3    H125291   3.392   1.249   0.294  0.1689 -0.6057 -0.2195
 1292TIP3    H225292   3.318   1.322   0.404  0.4408  0.6503 -0.8575
 1293TIP3   OH225293   3.249   6.623  12.318 -0.2885 -0.1423 -0.0980
 1293TIP3    H125294   3.327   6.583  12.357  1.7054  1.6872 -1.8856
 1293TIP3    H225295   3.210   6.674  12.389 -0.4212 -1.8054  1.0673
 1294TIP3   OH225296   2.687   2.532  16.130 -0.2489 -0.3681 -0.3528
 1294TIP3    H125297   2.690   2.472  16.055 -1.2420  0.1400 -0.8243
 1294TIP3    H225298   2.712   2.617  16.094 -0.6293 -0.1400 -0.0894
 1295TIP3   OH225299   6.213   6.535   3.937 -0.0478  0.0098 -1.0126
 1295TIP3    H125300   6.284   6.598   3.939 -0.0581  0.0366  1.0766
 1295TIP3    H225301   6.138   6.582   3.972  0.0821 -1.2373  1.1474
 1296TIP3   OH225302   2.383   1.705  15.188  0.2332 -0.1271  0.1883
 1296TIP3    H125303   2.346   1.652  15.117  0.5559  1.2150 -1.0317
 1296TIP3    H225304   2.477   1.697  15.177  0.2958 -0.7266  1.1127
 1297TIP3   OH225305   6.581   1.500  15.487 -0.0969  0.6981  0.1325
 1297TIP3    H125306   6.519   1.463  15.549 -0.2076 -0.3790 -0.5820
 1297TIP3    H225307   6.531   1.512  15.406  0.3289  0.9476 -0.1002
 1298TIP3   OH225308   2.756   0.822   2.540  0.5653  0.0300  0.2129
 1298TIP3    H125309   2.822   0.753   2.549  0.9023  0.0781 -1.5473
 1298TIP3    H225310   2.795   0.885   2.480 -1.3961 -0.3970 -1.6376
 1299TIP3   OH225311   3.860   1.230  16.065  0.3697  0.2730 -0.0931
 1299TIP3    H125312   3.847   1.271  15.980 -0.4820 -0.5691 -0.3822
 1299TIP3    H225313   3.811   1.149  16.061 -2.4024  1.6516  2.3132
 1300TIP3   OH225314   0.832   0.238  11.844 -0.2233  0.6927 -0.2118
 1300TIP3    H125315   0.899   0.239  11.913 -0.5688  1.3353  0.1267
 1300TIP3    H225316   0.844   0.153  11.801 -0.2538  0.1036  0.8879
 1301TIP3   OH225317   1.170   3.489   2.390  0.0635 -0.2309 -0.6364
 1301TIP3    H125318   1.254   3.534   2.401  0.2554 -0.7659  0.1893
 1301TIP3    H225319   1.190   3.414   2.334  0.6109 -1.5565  1.2447
 1302TIP3   OH225320   4.120   5.814  15.256  0.0816  0.2685  0.4613
 1302TIP3    H125321   4.044   5.802  15.200  0.2841  0.7985  0.0740
 1302TIP3    H225322   4.092   5.878  15.321  0.2528  0.5908  0.2167
 1303TIP3   OH225323   2.372   1.891  14.955  0.1109  0.2502  0.0718
 1303TIP3    H125324   2.365   1.833  15.031  0.3160  1.4450  1.0085
 1303TIP3    H225325   2.290   1.876  14.907  0.3129 -1.0718  0.0903
 1304TIP3   OH225326   5.891   0.024   1.962 -0.1590 -0.1469 -0.9353
 1304TIP3    H125327   5.921  -0.066   1.974  0.9888  0.5167  1.9078
 1304TIP3    H225328   5.932   0.051   1.879  1.5169 -1.4780 -0.6124
 1305TIP3   OH225329   3.068   2.183   6.301 -0.2245  0.0657 -0.0073
 1305TIP3    H125330   3.070   2.113   6.236  0.4528 -0.7683  0.8763
 1305TIP3    H225331   2.975   2.199   6.316 -0.4026 -0.9944  0.1187
 1306TIP3   OH225332   2.426   6.336   3.577  0.3034 -0.6959  0.1953
 1306TIP3    H125333   2.442   6.293   3.661 -1.4467  0.2097  1.0631
 1306TIP3    H225334   2.495   6.402   3.570  0.2729 -0.5495  1.1178
 1307TIP3   OH225335   5.801   1.225  16.275  0.0705 -0.3476  0.2013
 1307TIP3    H125336   5.841   1.311  16.262 -0.6738 -0.0683 -0.2626
 1307TIP3    H225337   5.852   1.166  16.218  1.7086 -0.5774  1.8028
 1308TIP3   OH225338   3.427   6.204  16.415  0.0181 -0.0290 -0.0088
 1308TIP3    H125339   3.457   6.284  16.458 -0.4163 -0.0144  0.2709
 1308TIP3    H225340   3.504   6.148  16.413  0.4036  0.4971 -0.4581
 1309TIP3   OH225341   3.720   4.508  13.512 -0.2385  0.3125 -0.5039
 1309TIP3    H125342   3.783   4.459  13.459  1.1691  0.5762  0.8690
 1309TIP3    H225343   3.721   4.466  13.597 -3.1610 -0.6695 -0.8542
 1310TIP3   OH225344   1.136   2.002  13.478 -0.4885 -0.1993  0.3592
 1310TIP3    H125345   1.166   1.913  13.496 -1.6656 -0.7216 -0.1244
 1310TIP3    H225346   1.209   2.045  13.434 -0.3595 -1.3448 -0.5689
 1311TIP3   OH225347   6.730   6.216  14.632  0.5840  0.0440 -0.6481
 1311TIP3    H125348   6.718   6.308  14.659  0.7947  0.2294 -1.1815
 1311TIP3    H225349   6.821   6.197  14.655  0.2870 -0.3096  0.2735
 1312TIP3   OH225350   2.724   2.746  13.776  0.5133  0.2616 -0.3935
 1312TIP3    H125351   2.774   2.695  13.840 -0.1966  0.7261  0.5604
 1312TIP3    H225352   2.753   2.713  13.691  1.4470 -0.4044  0.1615
 1313TIP3   OH225353   3.723   1.911   3.365  0.2110  0.1404  0.0888
 1313TIP3    H125354   3.701   1.835   3.311  0.9520 -0.0644  0.0579
 1313TIP3    H225355   3.662   1.979   3.336  0.0351 -0.2188 -0.4100
 1314TIP3   OH225356   5.903   1.668  17.199 -0.6406  0.3750 -0.0345
 1314TIP3    H125357   5.928   1.598  17.260  0.4302  1.1370  0.4300
 1314TIP3    H225358   5.958   1.742  17.223 -0.9731  1.0459 -1.2355
 1315TIP3   OH225359   0.742   3.779  12.609 -0.1549  0.2402 -0.1567
 1315TIP3    H125360   0.731   3.849  12.673 -1.1440 -1.5227  1.6930
 1315TIP3    H225361   0.835   3.759  12.611 -0.4302 -1.3207  2.5728
 1316TIP3   OH225362   2.857   0.876   3.791  0.0500  0.3904  0.0246
 1316TIP3    H125363   2.842   0.784   3.812  0.6014  0.0303 -1.0740
 1316TIP3    H225364   2.946   0.894   3.821  0.9567 -0.2117 -2.1213
 1317TIP3   OH225365   1.728   1.535   0.568 -0.2038  0.1523 -0.3807
 1317TIP3    H125366   1.766   1.503   0.486  2.1635  2.7645 -0.4386
 1317TIP3    H225367   1.798   1.587   0.608 -2.1134  0.9704  2.1252
 1318TIP3   OH225368   3.793   4.825  13.170 -0.3390  0.0783  0.1162
 1318TIP3    H125369   3.699   4.834  13.162 -0.4442  0.1718  1.2984
 1318TIP3    H225370   3.820   4.777  13.091 -1.1154  1.6326 -1.1404
 1319TIP3   OH225371   1.897   6.320  14.770 -0.1700  0.0546  0.1035
 1319TIP3    H125372   1.884   6.244  14.714  0.4755 -1.9201  2.4326
 1319TIP3    H225373   1.899   6.284  14.859  2.0584  2.5501  1.2022
 1320TIP3   OH225374   0.847   1.991  12.795  0.5134 -0.6362 -0.7041
 1320TIP3    H125375   0.805   1.934  12.730 -1.1779  0.3668 -0.5500
 1320TIP3    H225376   0.803   1.971  12.877  0.9344 -0.1543 -0.3559
 1321TIP3   OH225377   0.143   4.146   4.647  0.5164  0.5146 -0.1138
 1321TIP3    H125378   0.110   4.092   4.718  0.0733 -1.2115 -1.5799
 1321TIP3    H225379   0.236   4.158   4.667  1.0851 -2.3473 -0.6333
 1322TIP3   OH225380   1.440   5.742  16.740  0.0344 -0.6576  0.2773
 1322TIP3    H125381   1.477   5.734  16.828 -1.1217  0.0374  0.8422
 1322TIP3    H225382   1.347   5.756  16.754 -0.6189 -3.0256 -1.1269
 1323TIP3   OH225383   1.378   6.257   0.906  0.5658  0.2589  0.3161
 1323TIP3    H125384   1.324   6.180   0.884  1.3638 -0.8193  1.9024
 1323TIP3    H225385   1.464   6.236   0.871  0.9639  0.0834  1.3546
 1324TIP3   OH225386   6.570   3.741  12.391  0.1126  0.1701  0.3773
 1324TIP3    H125387   6.537   3.652  12.400  1.9073 -0.4277  1.3647
 1324TIP3    H225388   6.515   3.779  12.322 -2.4803 -0.8015  1.7389
 1325TIP3   OH225389   2.533   1.381  10.345 -0.7506  0.2226 -0.2222
 1325TIP3    H125390   2.455   1.371  10.400  0.2043 -0.7212  1.0163
 1325TIP3    H225391   2.585   1.447  10.390  0.0666 -0.5930  0.0562
 1326TIP3   OH225392   4.994   2.633  16.437 -0.2506  0.4366  0.0552
 1326TIP3    H125393   4.931   2.663  16.503 -0.8465 -2.8438  1.2197
 1326TIP3    H225394   4.940   2.608  16.362 -0.0810  0.0763  0.0479
 1327TIP3   OH225395   4.403   5.282   3.971  0.0644 -0.2214 -0.1155
 1327TIP3    H125396   4.487   5.300   3.927  0.0253 -0.8753 -0.4737
 1327TIP3    H225397   4.428   5.261   4.061  0.5900 -2.9243 -0.7839
 1328TIP3   OH225398   3.153   5.452  15.412 -0.8513  0.1746 -0.0792
 1328TIP3    H125399   3.246   5.431  15.421 -1.3197 -2.2974 -0.2260
 1328TIP3    H225400   3.149   5.547  15.413  1.5868  0.3267  0.8095
 1329TIP3   OH225401   0.913   2.653   4.059  0.3048  0.2923 -0.6834
 1329TIP3    H125402   0.924   2.741   4.095  0.2042 -0.0012  0.0723
 1329TIP3    H225403   0.843   2.614   4.112 -0.6692  0.2597 -1.9447
 1330TIP3   OH225404   2.974   5.216   1.822  0.3912 -0.5843 -0.1587
 1330TIP3    H125405   2.938   5.237   1.907  2.2590 -0.3058  0.6175
 1330TIP3    H225406   2.999   5.123   1.829  0.1483 -0.6856 -0.5681
 1331TIP3   OH225407   1.288   4.763  12.896 -0.1685  0.6738  0.7386
 1331TIP3    H125408   1.250   4.698  12.955 -0.2484  1.4009  1.5081
 1331TIP3    H225409   1.359   4.803  12.947 -0.0213  1.0805  0.2250
 1332TIP3   OH225410   0.218   4.017  10.431 -0.0093  0.5650  0.0400
 1332TIP3    H125411   0.278   4.076  10.385  0.9202 -1.1370 -1.0438
 1332TIP3    H225412   0.167   3.975  10.361 -1.9867  1.4228  0.9010
 1333TIP3   OH225413   3.126   1.761   0.586 -0.0317  0.9768 -0.0265
 1333TIP3    H125414   3.188   1.730   0.520 -0.7271  0.7345 -0.5779
 1333TIP3    H225415   3.040   1.741   0.549 -0.4556  1.9369  0.4207
 1334TIP3   OH225416   4.549   1.396  12.514 -0.4509 -0.5422 -0.2377
 1334TIP3    H125417   4.606   1.333  12.471  0.1733  0.1403 -0.4435
 1334TIP3    H225418   4.609   1.451  12.565 -0.7509  0.9259 -1.3764
 1335TIP3   OH225419   1.149   1.059  12.147 -0.0495  0.0898  0.2428
 1335TIP3    H125420   1.115   1.065  12.236 -0.0309  1.4857  0.1829
 1335TIP3    H225421   1.236   1.100  12.151 -0.4790  1.1464 -0.6126
 1336TIP3   OH225422   4.216   5.127  12.625 -0.5165 -0.5535 -0.0112
 1336TIP3    H125423   4.195   5.034  12.630 -1.1373 -0.4722 -0.9605
 1336TIP3    H225424   4.228   5.154  12.717  1.0481 -1.8607  0.2134
 1337TIP3   OH225425   3.656   1.508   4.413 -0.3988 -0.7403  0.1854
 1337TIP3    H125426   3.616   1.594   4.426  1.8127  0.5472 -0.9661
 1337TIP3    H225427   3.713   1.519   4.337  3.4241 -1.8830  2.6124
 1338TIP3   OH225428   2.998   3.407  13.563  0.4126  0.1158  0.5103
 1338TIP3    H125429   2.915   3.360  13.567  0.4481 -0.0291 -0.3205
 1338TIP3    H225430   2.976   3.492  13.525  1.1653 -1.2702 -3.3935
 1339TIP3   OH225431   4.308   3.472   1.699 -0.0884  0.3641  0.0798
 1339TIP3    H125432   4.291   3.463   1.793  1.2220  0.0881  0.3053
 1339TIP3    H225433   4.250   3.407   1.658  1.5657 -1.7751  0.9550
 1340TIP3   OH225434   2.256   0.697   0.753  0.2394 -0.6940  0.9975
 1340TIP3    H125435   2.343   0.676   0.785  0.2683  0.0583  1.4360
 1340TIP3    H225436   2.232   0.779   0.798  0.1325  0.2074 -0.6057
 1341TIP3   OH225437   0.778   4.370   4.279 -0.0188  0.0014 -0.2177
 1341TIP3    H125438   0.769   4.282   4.241  1.7308 -0.3980  0.1790
 1341TIP3    H225439   0.708   4.421   4.239 -1.5719 -1.7578  0.1372
 1342TIP3   OH225440   0.950   1.640   5.855  0.4362  0.1030 -0.2615
 1342TIP3    H125441   0.862   1.676   5.849 -0.0693 -1.0632 -0.0746
 1342TIP3    H225442   0.994   1.672   5.776  0.0792  1.2665 -0.0076
 1343TIP3   OH225443   2.948   3.037   5.364  0.1490 -0.0881 -0.3184
 1343TIP3    H125444   2.958   3.132   5.359  1.4430 -0.2399 -1.0202
 1343TIP3    H225445   3.037   3.003   5.372 -0.2886 -1.2453 -0.0550
 1344TIP3   OH225446   2.279   2.487  10.571 -0.5257  0.1316  0.3501
 1344TIP3    H125447   2.348   2.552  10.584  0.4264 -0.6982 -0.4503
 1344TIP3    H225448   2.226   2.492  10.651 -0.8025  2.2491  0.1031
 1345TIP3   OH225449   2.454   1.092   2.992 -0.1422 -0.0108 -0.2161
 1345TIP3    H125450   2.504   1.069   2.914  0.5327 -0.1011  0.2354
 1345TIP3    H225451   2.519   1.098   3.062 -0.9681 -2.1933  0.8529
 1346TIP3   OH225452   5.671   5.020   3.171 -0.3375 -0.6939  0.1666
 1346TIP3    H125453   5.695   5.071   3.248 -1.3639  1.9218 -1.1180
 1346TIP3    H225454   5.749   4.970   3.149 -0.4388 -2.6884  3.6484
 1347TIP3   OH225455   2.555   1.975  16.932 -0.6288  0.4704 -0.3193
 1347TIP3    H125456   2.497   1.905  16.962 -2.6822  2.5044  0.7791
 1347TIP3    H225457   2.608   1.934  16.863 -0.7326 -2.4795  1.1726
 1348TIP3   OH225458   4.882   4.237  16.685 -0.3358  0.1211 -0.6001
 1348TIP3    H125459   4.815   4.217  16.751 -1.7605  0.2979 -1.9219
 1348TIP3    H225460   4.960   4.259  16.735 -0.8570 -1.4370  1.0056
 1349TIP3   OH225461   0.527   4.070   1.055 -0.1064  0.6619  0.3316
 1349TIP3    H125462   0.621   4.085   1.062  0.2463 -0.5269 -1.3243
 1349TIP3    H225463   0.519   3.981   1.022 -1.9233 -0.3850  3.2006
 1350TIP3   OH225464   5.123   6.462   4.318 -0.2829  0.0008  0.1087
 1350TIP3    H125465   5.191   6.487   4.255 -2.6372  0.4196 -2.4557
 1350TIP3    H225466   5.162   6.390   4.368  2.6065  1.3116 -0.0043
 1351TIP3   OH225467   0.143   3.111  16.037 -0.3813  0.0888 -0.5050
 1351TIP3    H125468   0.207   3.107  16.109  1.1251  3.8429 -1.4002
 1351TIP3    H225469   0.168   3.039  15.979  1.3558 -0.1823  0.4801
 1352TIP3   OH225470   1.835   1.935  15.252 -0.3708  0.1665  0.2884
 1352TIP3    H125471   1.780   1.911  15.178  1.4371 -2.1752 -0.3970
 1352TIP3    H225472   1.829   1.861  15.312  1.1446  0.3605  0.7179
 1353TIP3   OH225473   3.688   5.540  13.312  0.4903  0.1377  0.1985
 1353TIP3    H125474   3.781   5.524  13.327  0.7186  1.9830  0.9808
 1353TIP3    H225475   3.659   5.589  13.389 -0.8822  0.5211 -0.5295
 1354TIP3   OH225476   6.086   0.441  11.367  0.0835 -0.2201 -0.6190
 1354TIP3    H125477   6.170   0.485  11.376 -0.4437  0.8898 -0.9861
 1354TIP3    H225478   6.041   0.459  11.450 -0.1854  0.0649 -0.8232
 1355TIP3   OH225479   1.538   2.950  12.160  0.1414  0.4594 -0.1377
 1355TIP3    H125480   1.463   2.977  12.107 -0.0762  1.5504  0.6942
 1355TIP3    H225481   1.583   2.885  12.105 -0.6182  0.8128 -1.2326
 1356TIP3   OH225482   3.063   5.945   5.072  0.2706 -0.3243  0.1931
 1356TIP3    H125483   3.154   5.923   5.050  0.7186  1.7707 -0.2550
 1356TIP3    H225484   3.069   5.989   5.157 -0.1636  0.7089 -0.2896
 1357TIP3   OH225485   4.070   3.081  15.627 -0.3259  0.5044  0.5686
 1357TIP3    H125486   4.030   3.079  15.713 -2.8615 -1.6356 -0.5293
 1357TIP3    H225487   3.997   3.079  15.565  1.4094  0.3907 -1.6364
 1358TIP3   OH225488   0.223   0.883   2.350 -0.2319 -0.2213  0.8122
 1358TIP3    H125489   0.137   0.841   2.338 -0.1661  0.1430 -1.2492
 1358TIP3    H225490   0.281   0.838   2.289  0.2873  1.5862 -0.1016
 1359TIP3   OH225491   1.024   0.289   1.737  0.2517 -0.1610  0.7692
 1359TIP3    H125492   1.064   0.242   1.664 -0.7430  0.7507 -0.4353
 1359TIP3    H225493   0.993   0.371   1.697  0.3284  0.6873  2.3913
 1360TIP3   OH225494   0.291   1.468   5.874 -0.3598  0.4371 -0.4359
 1360TIP3    H125495   0.375   1.465   5.828 -1.2902 -0.7880 -2.1687
 1360TIP3    H225496   0.313   1.448   5.965  1.1425 -0.5602 -0.9789
 1361TIP3   OH225497   5.505   6.638  13.577  0.0489  0.1209  0.2642
 1361TIP3    H125498   5.593   6.636  13.612 -0.3781 -0.4940  1.3304
 1361TIP3    H225499   5.513   6.687  13.495  1.1345  1.2669  1.0143
 1362TIP3   OH225500   3.767   2.226   5.523  0.3724  0.2932 -0.2625
 1362TIP3    H125501   3.861   2.217   5.541  0.6521  1.8159 -0.8297
 1362TIP3    H225502   3.731   2.258   5.606  0.6633  1.4540 -0.5730
 1363TIP3   OH225503   5.615   5.953  15.911  0.1191 -0.5490 -0.0968
 1363TIP3    H125504   5.554   5.891  15.871  0.6456 -2.6526  2.0976
 1363TIP3    H225505   5.560   6.014  15.959 -0.4221  0.9243 -2.4249
 1364TIP3   OH225506   1.103   6.127   6.116  0.0766 -0.4813  0.2607
 1364TIP3    H125507   1.020   6.108   6.073  0.8397 -2.2739 -0.5440
 1364TIP3    H225508   1.148   6.042   6.120  1.1510  0.1167  2.2488
 1365TIP3   OH225509   2.027   2.606  14.018  0.4640  0.6252  0.2738
 1365TIP3    H125510   2.008   2.543  14.087  2.6772  1.3075  1.5987
 1365TIP3    H225511   1.961   2.588  13.950  1.0447 -3.1531  0.5228
 1366TIP3   OH225512   6.409   3.048   1.059  0.4525 -0.2000 -0.2311
 1366TIP3    H125513   6.404   2.969   1.112  1.3634 -0.2650 -0.2164
 1366TIP3    H225514   6.339   3.039   0.994 -0.8383  0.0044  1.0911
 1367TIP3   OH225515   3.767   5.961   0.818  0.8428 -0.3951 -0.7275
 1367TIP3    H125516   3.781   5.982   0.726  0.2127 -0.5108 -0.8518
 1367TIP3    H225517   3.777   5.866   0.824 -1.0651 -0.6581 -1.0563
 1368TIP3   OH225518   6.158   3.484  11.320  0.5609  0.0567  0.4191
 1368TIP3    H125519   6.070   3.517  11.304  0.8466  0.4460 -0.4003
 1368TIP3    H225520   6.179   3.514  11.409  0.8281  2.1955 -0.2921
 1369TIP3   OH225521   5.498   3.822  10.614  0.2044  0.6919 -0.1835
 1369TIP3    H125522   5.498   3.917  10.607  0.5296  0.7599  0.6519
 1369TIP3    H225523   5.406   3.797  10.617  0.0903  0.8725 -1.6343
 1370TIP3   OH225524   0.851   1.233   5.307 -0.6055  0.3280  0.2350
 1370TIP3    H125525   0.869   1.289   5.382 -0.5214  0.6194 -0.0017
 1370TIP3    H225526   0.905   1.155   5.322 -0.1573  0.6234  0.2012
 1371TIP3   OH225527   5.977   4.606   3.018 -0.2245 -0.6350 -0.0144
 1371TIP3    H125528   5.965   4.677   3.081  1.4090  2.1109 -2.4937
 1371TIP3    H225529   6.060   4.565   3.043  0.1933  0.1504 -0.0721
 1372TIP3   OH225530   0.282   2.118   1.530 -0.4597  0.4874 -0.2493
 1372TIP3    H125531   0.194   2.151   1.546 -0.0700  1.7987 -0.6616
 1372TIP3    H225532   0.321   2.181   1.470  0.5357 -0.4389 -0.6206
 1373TIP3   OH225533   2.185   1.078   1.693  0.3555 -0.3530 -0.9493
 1373TIP3    H125534   2.164   1.033   1.774  0.8695 -0.0780 -0.6581
 1373TIP3    H225535   2.277   1.105   1.703 -0.2543  1.7538 -0.6385
 1374TIP3   OH225536   5.126   4.662   1.766  0.0288 -0.4758  0.0813
 1374TIP3    H125537   5.033   4.675   1.748  0.5057  1.7893 -1.1247
 1374TIP3    H225538   5.157   4.606   1.695 -0.5096 -1.8762  0.9043
 1375TIP3   OH225539   5.086   4.471   4.635 -0.0533  0.2707  0.4843
 1375TIP3    H125540   5.159   4.486   4.575 -1.4743  1.2298 -1.1075
 1375TIP3    H225541   5.065   4.378   4.623  2.0341 -0.5101  2.3707
 1376TIP3   OH225542   5.995   1.031  16.802  0.6284  0.5194 -0.0798
 1376TIP3    H125543   6.083   0.995  16.790  0.9771  1.0116  0.8803
 1376TIP3    H225544   5.976   1.076  16.720  1.1141  0.0701 -0.4409
 1377TIP3   OH225545   5.001   6.477  14.673 -0.1502  0.2875  0.2060
 1377TIP3    H125546   5.070   6.413  14.655 -0.9961 -0.7432  0.5037
 1377TIP3    H225547   5.019   6.507  14.762 -0.3689 -0.3648  0.4764
 1378TIP3   OH225548   0.597   5.148   4.289 -0.6002 -0.0549 -0.0658
 1378TIP3    H125549   0.608   5.054   4.275 -0.5337  0.2891 -2.7437
 1378TIP3    H225550   0.517   5.155   4.342 -2.1304 -1.5571 -2.0255
 1379TIP3   OH225551   2.880   3.799   2.025 -0.1509 -0.2983  0.8383
 1379TIP3    H125552   2.846   3.848   1.951  1.2217  0.3899  0.6201
 1379TIP3    H225553   2.903   3.713   1.989  0.4618  0.0148  0.4632
 1380TIP3   OH225554   4.826   4.647   1.819  0.3565 -0.2062 -0.5483
 1380TIP3    H125555   4.782   4.684   1.743  0.9740 -0.4844 -1.0386
 1380TIP3    H225556   4.783   4.563   1.833 -0.3478  0.2179 -0.0498
 1381TIP3   OH225557   5.671   3.055  13.905 -0.5249 -0.3477  0.8369
 1381TIP3    H125558   5.646   3.102  13.826 -2.0375 -1.6382  0.4967
 1381TIP3    H225559   5.763   3.033  13.891 -0.4465  0.4450 -0.0333
 1382TIP3   OH225560   1.101   1.188  14.394 -0.2502  1.0414 -0.3376
 1382TIP3    H125561   1.186   1.144  14.399 -0.5621  0.4588 -0.0816
 1382TIP3    H225562   1.065   1.163  14.309  0.1866  1.9566 -0.8068
 1383TIP3   OH225563   1.537   2.058   1.335  0.1280 -0.6673  0.0103
 1383TIP3    H125564   1.493   1.973   1.333 -1.1739 -0.0154 -0.1363
 1383TIP3    H225565   1.603   2.052   1.266  0.9053 -1.9787  0.8154
 1384TIP3   OH225566   0.420   5.547  14.169 -0.2699 -0.7865 -0.1123
 1384TIP3    H125567   0.446   5.535  14.078  1.8880 -0.8324  0.4553
 1384TIP3    H225568   0.459   5.630  14.194 -0.4555 -0.9916  0.8947
 1385TIP3   OH225569   4.194   1.369  16.505 -0.6988  0.0880 -0.6655
 1385TIP3    H125570   4.109   1.350  16.466 -1.1397 -1.5827  0.9780
 1385TIP3    H225571   4.201   1.309  16.579  1.6760  0.5778 -0.3995
 1386TIP3   OH225572   0.075   0.981  13.770  0.7187  0.0223 -0.1536
 1386TIP3    H125573   0.025   0.906  13.804  0.6794  0.0890 -0.0638
 1386TIP3    H225574   0.043   1.056  13.820  0.6747  0.1189 -0.3262
 1387TIP3   OH225575   0.815   2.262  12.717  0.4299 -0.7796 -0.0437
 1387TIP3    H125576   0.837   2.173  12.746  1.7655 -0.0915  1.2201
 1387TIP3    H225577   0.895   2.294  12.675 -0.3674 -0.5083 -1.4136
 1388TIP3   OH225578   5.970   2.696  16.577  0.5338 -0.4365  0.3299
 1388TIP3    H125579   5.935   2.607  16.585 -2.1340  0.0791 -3.1898
 1388TIP3    H225580   6.044   2.687  16.516  0.3269 -0.2891  0.0533
 1389TIP3   OH225581   2.856   5.151  11.534  0.2259 -0.3863 -0.4698
 1389TIP3    H125582   2.868   5.079  11.473  0.3759  0.2179 -1.1621
 1389TIP3    H225583   2.859   5.230  11.480  2.1115  0.2757  0.5254
 1390TIP3   OH225584   1.729   5.328  12.256 -0.3105  0.3056  0.1729
 1390TIP3    H125585   1.653   5.273  12.275  0.2426 -0.4801  0.1393
 1390TIP3    H225586   1.800   5.266  12.237  0.3630  1.0269  0.2900
 1391TIP3   OH225587   5.284   5.921   2.535  0.2051 -0.3947 -0.1287
 1391TIP3    H125588   5.295   5.890   2.445  2.3103 -0.0820 -0.0424
 1391TIP3    H225589   5.370   5.956   2.558  0.1043 -1.6100  2.4272
 1392TIP3   OH225590   6.228   3.768  15.591  0.1407 -0.1404 -0.0014
 1392TIP3    H125591   6.317   3.803  15.590  0.3462 -0.6679 -0.6795
 1392TIP3    H225592   6.213   3.742  15.682  0.9379 -0.6871 -0.0199
 1393TIP3   OH225593   0.241   5.963  15.942 -0.7172 -0.0014  0.7884
 1393TIP3    H125594   0.228   6.046  15.987 -0.9197 -0.1505  1.0126
 1393TIP3    H225595   0.153   5.936  15.916 -0.8581 -0.8608  2.0265
 1394TIP3   OH225596   3.204   5.339  14.763 -0.7605 -0.4149  0.1172
 1394TIP3    H125597   3.239   5.304  14.845 -0.7189  1.5421  0.9955
 1394TIP3    H225598   3.132   5.395  14.790 -2.8237 -2.1364 -1.4521
 1395TIP3   OH225599   5.429   6.267   1.649  0.1301 -0.3502  0.6264
 1395TIP3    H125600   5.451   6.181   1.614  0.3159  0.2092 -0.6947
 1395TIP3    H225601   5.470   6.269   1.735  0.9635 -1.2210  0.2672
 1396TIP3   OH225602   2.836   5.278  16.907 -0.2396 -0.4259  0.7292
 1396TIP3    H125603   2.803   5.313  16.824  0.1983  0.8351  1.0686
 1396TIP3    H225604   2.911   5.225  16.882  0.6213  0.9017  0.3956
 1397TIP3   OH225605   6.188   2.908   1.414 -0.2328  0.2545 -0.2324
 1397TIP3    H125606   6.237   2.990   1.412  0.1959 -0.0184 -1.5576
 1397TIP3    H225607   6.103   2.930   1.377 -0.4929  0.3252  0.3947
 1398TIP3   OH225608   5.038   0.770  12.337  0.1516 -0.5855 -0.8045
 1398TIP3    H125609   5.122   0.733  12.312  0.4135 -0.4614 -0.1273
 1398TIP3    H225610   5.006   0.813  12.258  1.0955  0.0567 -0.8488
 1399TIP3   OH225611   3.162   1.261   1.909 -0.5560 -0.4382  0.0698
 1399TIP3    H125612   3.099   1.206   1.956  1.2557 -1.6121  1.2610
 1399TIP3    H225613   3.243   1.253   1.960 -0.2017  3.5263  0.4466
 1400TIP3   OH225614   2.204   5.600   1.277 -0.9438  0.7999  0.3396
 1400TIP3    H125615   2.168   5.537   1.215  1.5336  1.9130 -2.4693
 1400TIP3    H225616   2.159   5.682   1.256  0.4489  1.3562 -0.6446
 1401TIP3   OH225617   4.110   4.252  16.141  0.1642 -0.0863 -0.1463
 1401TIP3    H125618   4.140   4.333  16.100  0.4988 -0.0762  0.1107
 1401TIP3    H225619   4.191   4.205  16.162  0.0412  0.2528  1.1933
 1402TIP3   OH225620   0.648   0.329   0.645  1.0969 -0.2638 -0.5409
 1402TIP3    H125621   0.741   0.318   0.665  0.4691 -2.2459  1.7146
 1402TIP3    H225622   0.610   0.362   0.726 -0.2671 -0.1200 -1.2156
 1403TIP3   OH225623   2.816   0.159  13.130  0.3035  0.0403 -1.0458
 1403TIP3    H125624   2.773   0.137  13.048  0.3653  0.9605 -1.3428
 1403TIP3    H225625   2.815   0.255  13.132 -0.8077  0.0417  0.6073
 1404TIP3   OH225626   0.059   6.137  13.494 -0.5111 -0.3015  0.1966
 1404TIP3    H125627  -0.020   6.185  13.469 -2.2930 -2.5329  1.1154
 1404TIP3    H225628   0.129   6.202  13.492 -2.5880  2.0988  0.5791
 1405TIP3   OH225629   2.997   2.790  12.958 -0.3065  0.3999  0.3152
 1405TIP3    H125630   3.041   2.750  12.883 -0.7279  1.5720 -0.5901
 1405TIP3    H225631   2.909   2.753  12.957 -0.6750  1.2342 -0.4842
 1406TIP3   OH225632   4.035   1.699   5.698  0.3063  0.2244 -0.0508
 1406TIP3    H125633   4.066   1.769   5.640  0.5100  0.2141  0.0470
 1406TIP3    H225634   3.988   1.640   5.640  0.4075  0.2765 -0.1866
 1407TIP3   OH225635   4.062   2.636  12.811 -0.0770 -0.2764  0.4162
 1407TIP3    H125636   4.004   2.571  12.849  0.7038 -2.0255 -1.2290
 1407TIP3    H225637   4.040   2.636  12.717  2.6924 -1.2597 -0.3352
 1408TIP3   OH225638   0.501   1.708  11.077 -0.0473 -0.1204 -0.2235
 1408TIP3    H125639   0.490   1.613  11.076 -1.3169 -0.0053  0.2722
 1408TIP3    H225640   0.483   1.735  10.987  1.3350 -0.4248 -0.6139
 1409TIP3   OH225641   0.169   4.606  15.954  0.5937 -0.2162  0.2970
 1409TIP3    H125642   0.171   4.680  15.894  0.4822  1.0031  1.7238
 1409TIP3    H225643   0.241   4.622  16.015  0.0588 -0.8308  1.1243
 1410TIP3   OH225644   0.847   5.999  12.524  0.6711 -0.2061  0.1935
 1410TIP3    H125645   0.828   5.961  12.438 -0.2998  1.2406 -0.2504
 1410TIP3    H225646   0.849   6.093  12.510  1.0362  0.0384  1.6650
 1411TIP3   OH225647   2.840   1.154   1.967 -0.4084  0.2912 -0.5773
 1411TIP3    H125648   2.785   1.153   1.889 -2.4977  1.4947  0.7823
 1411TIP3    H225649   2.838   1.063   1.998 -0.9993  0.1691 -0.9596
 1412TIP3   OH225650   2.098   0.966   1.448 -0.6680  0.4405  0.2689
 1412TIP3    H125651   2.152   0.986   1.524 -0.6270  2.5463 -0.2480
 1412TIP3    H225652   2.105   1.044   1.393 -1.1927 -0.7687 -1.6074
 1413TIP3   OH225653   6.660   4.513   5.294 -0.6137  0.4177 -0.3738
 1413TIP3    H125654   6.621   4.449   5.353  0.1365  1.5140  1.3888
 1413TIP3    H225655   6.686   4.463   5.217 -0.8741 -1.2125  0.5660
 1414TIP3   OH225656   0.547   5.181  16.942 -0.2208 -0.2467 -0.1866
 1414TIP3    H125657   0.639   5.168  16.919  0.0011  1.5740 -0.4587
 1414TIP3    H225658   0.511   5.092  16.945  1.4785 -0.9860 -0.2862
 1415TIP3   OH225659   4.630   5.373   0.720  0.1667  0.0787  0.4305
 1415TIP3    H125660   4.674   5.389   0.804 -1.0725  2.3354  0.7409
 1415TIP3    H225661   4.637   5.457   0.674 -1.8231 -0.1876 -0.4358
 1416TIP3   OH225662   2.379   1.189   4.549  0.3991 -0.2537 -0.3688
 1416TIP3    H125663   2.419   1.147   4.473 -1.0504  2.2942 -2.7583
 1416TIP3    H225664   2.339   1.268   4.513 -1.1858  0.6066  2.9452
 1417TIP3   OH225665   6.693   2.209   4.371  0.0002 -0.0988 -0.8459
 1417TIP3    H125666   6.769   2.166   4.411  0.8634  1.3252 -0.8512
 1417TIP3    H225667   6.619   2.183   4.425  0.9905  1.0166  1.1735
 1418TIP3   OH225668   5.806   0.197  13.567  0.1843 -0.0870 -0.1509
 1418TIP3    H125669   5.730   0.240  13.607  0.1040  0.2321 -0.6340
 1418TIP3    H225670   5.779   0.181  13.476  0.6074 -0.1964 -0.2594
 1419TIP3   OH225671   1.215   4.619  13.140 -0.1982 -0.1963  0.8013
 1419TIP3    H125672   1.184   4.528  13.136 -0.7280  0.0110 -0.3501
 1419TIP3    H225673   1.287   4.618  13.203 -0.3680 -1.3624  0.9923
 1420TIP3   OH225674   6.599   4.388   0.346 -0.1683  0.2471 -0.2295
 1420TIP3    H125675   6.636   4.300   0.333 -0.3366 -0.0888  1.3533
 1420TIP3    H225676   6.533   4.395   0.277  0.7747 -0.3023 -1.2483
 1421TIP3   OH225677   3.586   1.456   1.322 -0.2417  0.0571 -0.0870
 1421TIP3    H125678   3.587   1.483   1.231  0.1743  1.1625  0.2306
 1421TIP3    H225679   3.498   1.475   1.352 -0.4121 -0.4097 -0.2745
 1422TIP3   OH225680   4.612   6.367  12.676  0.0778 -0.5354 -0.0134
 1422TIP3    H125681   4.632   6.423  12.602  1.8281  0.4180  1.0837
 1422TIP3    H225682   4.690   6.312  12.686 -0.6844 -1.6025  0.3062
 1423TIP3   OH225683   4.559   0.259  12.336 -0.4342  0.4068 -0.1217
 1423TIP3    H125684   4.535   0.348  12.361 -1.5106 -0.1878  1.0434
 1423TIP3    H225685   4.480   0.222  12.298  0.0776  0.0071 -0.8259
 1424TIP3   OH225686   2.477   4.380  15.280 -0.4944  0.4150 -0.1293
 1424TIP3    H125687   2.424   4.436  15.223 -0.6134  1.0850  0.6157
 1424TIP3    H225688   2.533   4.440  15.328  0.3809 -0.2273 -0.3228
 1425TIP3   OH225689   1.832   1.444  11.318  0.2541 -0.2636 -0.0862
 1425TIP3    H125690   1.749   1.426  11.362 -0.2851  0.4171 -0.8089
 1425TIP3    H225691   1.898   1.423  11.384 -0.5125  0.1136  0.8327
 1426TIP3   OH225692   5.302   2.750   0.574  0.0563  0.1709 -0.1985
 1426TIP3    H125693   5.302   2.785   0.663 -0.1632  1.2289 -0.6039
 1426TIP3    H225694   5.252   2.814   0.524 -1.0795 -1.1390 -0.8002
 1427TIP3   OH225695   3.920   0.960   5.041  0.0848  0.6872  0.0080
 1427TIP3    H125696   3.939   1.050   5.069  1.7751 -0.0800  1.4913
 1427TIP3    H225697   3.985   0.941   4.973  0.3583  0.2583  0.3876
 1428TIP3   OH225698   5.077   5.158  15.013  0.1303  0.0597 -0.5656
 1428TIP3    H125699   5.001   5.125  14.966  1.3310 -3.4390 -0.3708
 1428TIP3    H225700   5.148   5.156  14.949  0.7304  0.0545  0.0895
 1429TIP3   OH225701   5.209   3.282   3.942  0.1842  0.4127  0.3102
 1429TIP3    H125702   5.165   3.238   4.014 -0.2517 -0.0912 -0.2480
 1429TIP3    H225703   5.302   3.280   3.966  0.2969 -1.5752 -0.0498
 1430TIP3   OH225704   1.378   3.901  11.653 -0.0503  1.0181  0.4240
 1430TIP3    H125705   1.291   3.864  11.643 -1.2663  3.6800  0.2811
 1430TIP3    H225706   1.437   3.836  11.614 -1.9275 -0.8263  0.4787
 1431TIP3   OH225707   4.560   4.230   5.106  0.0171  0.1214  0.5493
 1431TIP3    H125708   4.540   4.319   5.076  0.0389  0.5397  1.7548
 1431TIP3    H225709   4.631   4.241   5.169 -0.6084 -0.6497  1.4079
 1432TIP3   OH225710   0.867   4.114   1.761  0.4988  0.3236  0.0444
 1432TIP3    H125711   0.830   4.103   1.848 -0.0399 -1.3753 -0.3556
 1432TIP3    H225712   0.822   4.190   1.725 -3.0840 -1.8586 -0.5830
 1433TIP3   OH225713   2.835   5.488  13.726  0.2383 -0.5878 -0.0782
 1433TIP3    H125714   2.798   5.486  13.815 -1.4059 -2.0389 -0.7229
 1433TIP3    H225715   2.847   5.581  13.707 -1.1919 -0.1467  0.9854
 1434TIP3   OH225716   2.316   6.182  15.821  0.1402  0.0851 -0.0134
 1434TIP3    H125717   2.225   6.155  15.813 -0.6986  3.0104 -1.8157
 1434TIP3    H225718   2.321   6.226  15.906 -0.0675 -0.2713  0.1847
 1435TIP3   OH225719   4.802   6.295   2.942 -0.2895  0.4747  0.7479
 1435TIP3    H125720   4.792   6.203   2.965  0.4940  0.0661 -0.3919
 1435TIP3    H225721   4.724   6.316   2.891 -0.6263  0.5390  1.2890
 1436TIP3   OH225722   1.386   0.757  11.730 -0.2272  0.7654  0.1676
 1436TIP3    H125723   1.452   0.752  11.661  0.1618  2.0538  0.4101
 1436TIP3    H225724   1.433   0.734  11.810 -0.0537  1.6364  0.3330
 1437TIP3   OH225725   1.331   2.037  16.113 -0.2295  0.1813 -0.6804
 1437TIP3    H125726   1.261   2.017  16.174  1.3153 -1.7725  0.5917
 1437TIP3    H225727   1.369   2.119  16.145 -0.0223 -0.3457  0.4643
 1438TIP3   OH225728   6.073   5.914   5.547 -0.0182  0.3950  0.3473
 1438TIP3    H125729   6.094   5.967   5.624 -0.9840  0.7423  0.3840
 1438TIP3    H225730   5.998   5.958   5.508  2.0202  1.7914 -2.3389
 1439TIP3   OH225731   6.581   0.188   1.980  0.3765  0.4022 -0.1869
 1439TIP3    H125732   6.500   0.189   2.030 -0.1145 -1.8086 -0.8310
 1439TIP3    H225733   6.638   0.251   2.026 -1.1376  0.8338  1.2027
 1440TIP3   OH225734   6.564   0.587   0.939 -0.1841  0.0297  0.3415
 1440TIP3    H125735   6.571   0.609   0.847  0.5845  0.6628  0.5432
 1440TIP3    H225736   6.534   0.496   0.940 -2.4808  0.7291 -0.5049
 1441TIP3   OH225737   1.026   2.034   0.380  0.5200  0.1820  0.4822
 1441TIP3    H125738   0.933   2.048   0.361  0.5274 -0.2121  0.1472
 1441TIP3    H225739   1.027   1.996   0.467  0.0913 -3.2300 -0.8339
 1442TIP3   OH225740   4.208   3.070  13.618 -0.2291 -0.3234  0.2379
 1442TIP3    H125741   4.248   3.028  13.693  1.3123  1.6360  0.6066
 1442TIP3    H225742   4.278   3.077  13.553 -0.6358  0.8572 -0.1165
 1443TIP3   OH225743   1.400   5.754   4.311 -0.1467  0.2880  0.4106
 1443TIP3    H125744   1.425   5.718   4.396 -0.8245 -4.1720 -1.0175
 1443TIP3    H225745   1.312   5.789   4.325 -0.7207 -1.4099  1.4231
 1444TIP3   OH225746   4.588   1.352   2.666 -0.2196 -0.0642 -0.0196
 1444TIP3    H125747   4.556   1.370   2.754  0.3283  3.2722 -0.3795
 1444TIP3    H225748   4.656   1.285   2.678 -2.0593 -1.7268  1.6602
 1445TIP3   OH225749   0.824   3.111  11.433 -0.0690  0.3854 -0.0472
 1445TIP3    H125750   0.868   3.182  11.387 -0.5034 -0.0082 -1.1134
 1445TIP3    H225751   0.735   3.142  11.448  0.0790  0.5242  0.5767
 1446TIP3   OH225752   4.298   4.790  13.960 -0.1495  0.0604 -0.1794
 1446TIP3    H125753   4.311   4.840  13.880 -1.2784  4.2069  1.9834
 1446TIP3    H225754   4.204   4.778  13.966 -0.0688 -0.3055  0.4856
 1447TIP3   OH225755   4.816   5.637   1.615  0.1795 -0.7920 -0.4040
 1447TIP3    H125756   4.795   5.545   1.634  0.4305 -1.0994 -1.5183
 1447TIP3    H225757   4.912   5.638   1.611  0.1626 -0.5676 -0.7720
 1448TIP3   OH225758   1.767   0.279   4.998 -0.5060 -0.0842 -0.4524
 1448TIP3    H125759   1.741   0.256   4.909 -1.0026 -1.0790 -0.0647
 1448TIP3    H225760   1.760   0.197   5.048  1.1061  0.1214  0.2042
 1449TIP3   OH225761   6.403   5.318  16.854 -0.0019 -0.2486 -0.0411
 1449TIP3    H125762   6.445   5.394  16.895  0.3555 -0.5068  0.0822
 1449TIP3    H225763   6.310   5.332  16.867  0.0452  0.2948 -0.2391
 1450TIP3   OH225764   2.603   4.891  16.551 -0.3464 -0.4400  0.3491
 1450TIP3    H125765   2.650   4.869  16.470 -0.9725 -0.4707 -0.0133
 1450TIP3    H225766   2.578   4.807  16.588  1.0955 -0.4920  1.2997
 1451TIP3   OH225767   5.515   4.370   3.436 -0.3107  0.5788 -0.0844
 1451TIP3    H125768   5.486   4.456   3.405  2.1834  0.3836 -3.4025
 1451TIP3    H225769   5.451   4.309   3.400 -0.8257  0.8405  0.3696
 1452TIP3   OH225770   1.979   3.724   2.181 -0.0550 -0.2434 -0.1875
 1452TIP3    H125771   1.938   3.638   2.176 -2.0077  0.6925 -2.2764
 1452TIP3    H225772   1.915   3.778   2.227  0.5187  0.4103 -0.1457
 1453TIP3   OH225773   4.243   1.510   4.123 -0.4621 -0.0843  0.0844
 1453TIP3    H125774   4.294   1.575   4.171  0.7949 -1.1806  0.3016
 1453TIP3    H225775   4.188   1.468   4.190 -1.0875  0.5698 -0.0137
 1454TIP3   OH225776   2.671   3.593  14.785 -0.1502 -0.2841 -0.2572
 1454TIP3    H125777   2.713   3.601  14.871  1.1875  0.4401 -0.9319
 1454TIP3    H225778   2.603   3.527  14.797  0.3716 -0.5936  1.2207
 1455TIP3   OH225779   2.409   2.559  15.061 -0.0528 -0.2767 -0.0422
 1455TIP3    H125780   2.453   2.511  15.132  0.9811 -1.0371 -1.1567
 1455TIP3    H225781   2.334   2.505  15.039 -1.0442  0.5392  1.2166
 1456TIP3   OH225782   2.768   1.754  12.188  0.1469 -0.1488  0.0209
 1456TIP3    H125783   2.725   1.676  12.153 -2.5158  1.4578 -0.5437
 1456TIP3    H225784   2.799   1.728  12.275  1.8311 -2.5780 -1.1960
 1457TIP3   OH225785   0.046   2.311  16.403 -0.1717 -0.0023 -0.0849
 1457TIP3    H125786  -0.034   2.364  16.401  0.3113  0.7699  0.4205
 1457TIP3    H225787   0.111   2.364  16.358  0.6085  0.3388  1.3788
 1458TIP3   OH225788   4.478   2.299  14.777  0.3442 -0.1777 -0.3605
 1458TIP3    H125789   4.552   2.239  14.774  0.4526 -0.2203  1.8573
 1458TIP3    H225790   4.407   2.252  14.731  0.9109 -1.2775 -0.1445
 1459TIP3   OH225791   3.188   6.374   3.471 -0.0580 -0.3743  0.2837
 1459TIP3    H125792   3.242   6.419   3.407 -0.1406 -0.8039 -0.0919
 1459TIP3    H225793   3.250   6.346   3.539 -0.0425  0.5315  0.6654
 1460TIP3   OH225794   2.799   0.319  15.815  0.2594 -0.4055  0.1756
 1460TIP3    H125795   2.853   0.258  15.765 -1.5493 -0.1289 -2.2768
 1460TIP3    H225796   2.846   0.403  15.810  0.1628 -0.4087 -0.9893
 1461TIP3   OH225797   0.219   6.407   1.733  0.6634  0.1532 -0.3078
 1461TIP3    H125798   0.130   6.373   1.723  0.7672 -0.4140  0.5472
 1461TIP3    H225799   0.240   6.445   1.649 -0.3264  0.1236 -0.5789
 1462TIP3   OH225800   4.417   6.095  13.597  0.0141 -0.3902  0.0110
 1462TIP3    H125801   4.474   6.037  13.646  1.2586  0.0066 -0.9186
 1462TIP3    H225802   4.415   6.176  13.648  1.1440 -0.0462 -0.4610
 1463TIP3   OH225803   5.812   2.156   1.146 -0.0231 -0.6064  0.4796
 1463TIP3    H125804   5.881   2.122   1.203  0.2602 -0.5683  0.1587
 1463TIP3    H225805   5.857   2.182   1.066 -0.2249  0.5583  0.7237
 1464TIP3   OH225806   0.129   1.120  12.600  0.5572  0.2345  0.5965
 1464TIP3    H125807   0.050   1.131  12.653  0.2803  1.8015 -0.0905
 1464TIP3    H225808   0.104   1.149  12.512  0.5523 -3.7092 -0.9042
 1465TIP3   OH225809   2.465   4.768   2.555  0.1500  0.4704  0.6858
 1465TIP3    H125810   2.494   4.678   2.544  1.4797  0.6855  2.0718
 1465TIP3    H225811   2.373   4.768   2.527  1.0187 -0.5281 -2.6785
 1466TIP3   OH225812   5.352   1.343   5.526  0.1865 -0.1492 -0.2821
 1466TIP3    H125813   5.274   1.289   5.540  0.9313 -0.8434  1.2847
 1466TIP3    H225814   5.320   1.433   5.536 -0.3696 -0.4397  0.6949
 1467TIP3   OH225815   3.213   1.189   5.135 -0.6501 -0.2899 -0.2352
 1467TIP3    H125816   3.299   1.194   5.093 -1.0668 -1.6632 -1.2794
 1467TIP3    H225817   3.183   1.280   5.138  2.1345  0.7279  3.0385
 1468TIP3   OH225818   4.323   5.939  15.100  0.1475 -0.4923 -0.0668
 1468TIP3    H125819   4.266   5.865  15.124  1.1884 -1.3915 -0.3138
 1468TIP3    H225820   4.401   5.898  15.063  0.0641  0.7774 -1.7379
 1469TIP3   OH225821   5.699   2.228   5.952 -0.1962 -0.6199  0.6078
 1469TIP3    H125822   5.668   2.160   6.011 -1.3550 -0.5283  0.1465
 1469TIP3    H225823   5.634   2.298   5.960  0.6035  0.1406  0.5596
 1470TIP3   OH225824   2.320   0.216  13.877  0.8875  0.3661 -0.1217
 1470TIP3    H125825   2.336   0.232  13.784 -0.8104 -0.1005 -0.5419
 1470TIP3    H225826   2.365   0.133  13.895  1.6788  0.7352 -0.3801
 1471TIP3   OH225827   1.113   4.891   3.269  0.2418  0.0394  0.1903
 1471TIP3    H125828   1.092   4.823   3.205  0.4610 -1.1539  1.3449
 1471TIP3    H225829   1.030   4.908   3.314  0.1215  0.7607 -0.2942
 1472TIP3   OH225830   0.899   0.540   2.715 -0.4178  0.2128  0.5543
 1472TIP3    H125831   0.981   0.553   2.763  0.4871  0.0599 -0.8974
 1472TIP3    H225832   0.838   0.603   2.754  0.6291  0.9087  1.0991
 1473TIP3   OH225833   4.829   1.370   4.352 -0.4280  0.1220  0.1186
 1473TIP3    H125834   4.864   1.305   4.292 -1.8098 -0.3076 -0.2539
 1473TIP3    H225835   4.758   1.412   4.304 -0.2430  1.1816  0.7370
 1474TIP3   OH225836   6.689   2.331   0.105 -0.0218  0.2006  0.1703
 1474TIP3    H125837   6.662   2.357   0.017 -0.9505  1.7606  0.8740
 1474TIP3    H225838   6.673   2.236   0.107  3.5103 -0.6894 -2.4907
 1475TIP3   OH225839   2.558   5.362   5.152  0.2513  0.4655  0.2323
 1475TIP3    H125840   2.622   5.433   5.146  1.6210 -0.6576  0.7137
 1475TIP3    H225841   2.502   5.374   5.076  2.1465  0.5197 -1.2538
 1476TIP3   OH225842   1.639   2.532  11.867  0.5706  0.4794  0.3085
 1476TIP3    H125843   1.565   2.572  11.821  0.1887  0.1299  0.6045
 1476TIP3    H225844   1.633   2.439  11.847  1.7882  0.6241 -0.8385
 1477TIP3   OH225845   3.744   0.231  10.865 -0.0791  0.0367  0.4798
 1477TIP3    H125846   3.800   0.205  10.938  0.6846 -0.6417 -0.3279
 1477TIP3    H225847   3.805   0.262  10.798 -0.7498  0.3579  0.0035
 1478TIP3   OH225848   3.743   0.056  12.556 -0.2971 -0.3884  0.6703
 1478TIP3    H125849   3.757   0.045  12.462 -2.2573  1.0524  0.1454
 1478TIP3    H225850   3.810   0.118  12.584 -0.9396  0.7313 -0.2213
 1479TIP3   OH225851   2.179   0.066   3.207 -0.3094 -0.0893  0.6665
 1479TIP3    H125852   2.227   0.134   3.254  0.7209  0.5307 -1.1923
 1479TIP3    H225853   2.232   0.048   3.129 -1.6833 -1.4364 -0.0190
 1480TIP3   OH225854   6.667   1.045  13.068 -0.0433 -0.5446 -0.4608
 1480TIP3    H125855   6.760   1.025  13.077  0.3643  0.9146 -1.2003
 1480TIP3    H225856   6.645   1.015  12.980 -0.2363 -0.6889 -0.3657
 1481TIP3   OH225857   5.414   5.178   2.099 -0.1546  0.0525 -0.1671
 1481TIP3    H125858   5.440   5.174   2.191  0.8094  0.9097 -0.3779
 1481TIP3    H225859   5.342   5.116   2.091  0.7277 -1.1428  0.8333
 1482TIP3   OH225860   4.042   5.453   3.687 -0.4156  0.1828  0.3091
 1482TIP3    H125861   4.003   5.429   3.771 -1.2198  2.6249  0.7235
 1482TIP3    H225862   4.115   5.511   3.710 -0.1014  0.1959 -0.6659
 1483TIP3   OH225863   5.796   1.001  15.067 -0.2091 -0.3431 -0.4097
 1483TIP3    H125864   5.715   1.047  15.047 -0.7869 -1.1536 -0.0095
 1483TIP3    H225865   5.834   0.981  14.982 -0.5744 -0.1961 -0.6100
 1484TIP3   OH225866   6.030   0.979  12.064  0.1245 -0.4244 -0.2410
 1484TIP3    H125867   5.965   1.007  11.999  0.8270 -0.7479 -1.1126
 1484TIP3    H225868   6.056   1.059  12.108  2.1055  0.4051 -2.6973
 1485TIP3   OH225869   6.465   4.748  16.418  0.0920  0.0429  0.1027
 1485TIP3    H125870   6.430   4.717  16.502  1.6777  0.6613  1.0412
 1485TIP3    H225871   6.406   4.819  16.392 -1.4380 -1.2928 -0.2281
 1486TIP3   OH225872   2.172   3.825   3.875 -0.0571  0.0577  0.3667
 1486TIP3    H125873   2.181   3.761   3.804 -2.3864  2.2291 -2.0760
 1486TIP3    H225874   2.242   3.888   3.860  0.8690 -0.6811  1.4459
 1487TIP3   OH225875   2.233   1.134   5.857 -0.2546 -0.3584 -0.0819
 1487TIP3    H125876   2.147   1.112   5.891  0.2046 -0.3610  1.1592
 1487TIP3    H225877   2.260   1.211   5.908  0.3212 -0.1307 -0.7087
 1488TIP3   OH225878   1.084   5.034   3.757 -0.0749  0.3417 -0.1548
 1488TIP3    H125879   1.025   5.064   3.825 -0.9916  2.0515 -1.6207
 1488TIP3    H225880   1.167   5.078   3.775  0.5401 -1.2768  1.3137
 1489TIP3   OH225881   2.511   2.992  13.953 -0.2274 -0.4053 -0.6941
 1489TIP3    H125882   2.540   2.921  14.011 -1.3271 -1.1640 -1.0402
 1489TIP3    H225883   2.426   3.017  13.987  0.1210  0.7325 -0.6195
 1490TIP3   OH225884   2.255   2.991   3.729 -0.2597  0.0697 -0.0886
 1490TIP3    H125885   2.247   3.059   3.796 -1.6611  0.2325 -0.3698
 1490TIP3    H225886   2.164   2.962   3.714  0.3343 -2.1617  0.2968
 1491TIP3   OH225887   2.506   5.332  11.131 -0.2732 -0.2153  0.1051
 1491TIP3    H125888   2.575   5.396  11.115 -0.5102 -0.4067 -1.9737
 1491TIP3    H225889   2.525   5.297  11.218  1.5423  0.5746  0.0638
 1492TIP3   OH225890   3.825   0.033  14.558  0.3232 -0.3540 -0.4859
 1492TIP3    H125891   3.804  -0.056  14.588 -1.6349 -1.3814 -4.2636
 1492TIP3    H225892   3.899   0.021  14.498  0.4484  0.6594 -0.5506
 1493TIP3   OH225893   6.158   2.808  15.400 -0.1179  0.1653  0.0902
 1493TIP3    H125894   6.135   2.827  15.309 -1.4473  3.2756  0.9350
 1493TIP3    H225895   6.077   2.773  15.438 -1.6098  4.3279  1.3113
 1494TIP3   OH225896   5.362   0.457  14.231 -0.3927 -1.1565 -0.1101
 1494TIP3    H125897   5.303   0.456  14.306 -0.6537  0.1090 -0.2641
 1494TIP3    H225898   5.378   0.550  14.214  0.7700 -1.4426 -0.7637
 1495TIP3   OH225899   2.198   5.649   4.401  0.2149  0.0204 -0.0945
 1495TIP3    H125900   2.112   5.624   4.369  0.1391  0.7811 -0.5023
 1495TIP3    H225901   2.180   5.704   4.477  0.3982 -2.2362  1.6829
 1496TIP3   OH225902   4.527   0.543  13.246 -0.2506 -0.1358  0.1673
 1496TIP3    H125903   4.572   0.556  13.162 -1.0185 -1.9556 -0.6024
 1496TIP3    H225904   4.569   0.604  13.306  1.0740  0.4524 -1.2770
 1497TIP3   OH225905   6.437   2.060  12.631  0.8767 -0.4333  0.7380
 1497TIP3    H125906   6.352   2.092  12.660  0.6416  0.7369 -1.0910
 1497TIP3    H225907   6.479   2.027  12.710 -1.3328 -1.1904  1.6504
 1498TIP3   OH225908   3.373   1.028  15.679  0.6759 -0.1179  0.0675
 1498TIP3    H125909   3.335   0.987  15.602  1.9837 -0.5383 -0.3772
 1498TIP3    H225910   3.349   1.120  15.673 -2.2585 -0.7119  1.0435
 1499TIP3   OH225911   2.045   5.291   2.879 -0.2450 -0.3758  0.1564
 1499TIP3    H125912   2.090   5.260   2.801 -2.1343  0.6084 -1.4021
 1499TIP3    H225913   2.084   5.241   2.951  1.5241 -1.3288 -1.4007
 1500TIP3   OH225914   3.986   6.526  15.143 -0.3540  0.2441 -0.0910
 1500TIP3    H125915   3.984   6.621  15.133  0.7020  0.3513  0.6353
 1500TIP3    H225916   4.054   6.496  15.083 -0.2814  0.0014  0.1102
 1501TIP3   OH225917   3.063   2.724  16.587 -0.4770  0.7595 -0.1402
 1501TIP3    H125918   3.087   2.666  16.659  2.0122  2.0246  0.1583
 1501TIP3    H225919   2.968   2.717  16.582 -0.4871 -1.4331  1.4640
 1502TIP3   OH225920   1.728   4.154   3.827 -0.7401  0.1586  0.4218
 1502TIP3    H125921   1.763   4.199   3.904  0.5358 -0.0914  0.0047
 1502TIP3    H225922   1.798   4.095   3.799 -1.9721 -1.3346  0.3277
 1503TIP3   OH225923   1.115   1.801   0.131 -0.3944  0.1298 -0.0932
 1503TIP3    H125924   1.198   1.848   0.127  0.0891 -0.3760  2.3233
 1503TIP3    H225925   1.136   1.712   0.100 -0.5984  0.5738 -1.6129
 1504TIP3   OH225926   1.921   5.740  10.511 -0.1968 -0.0801 -0.3916
 1504TIP3    H125927   1.894   5.823  10.550 -0.5031 -0.2967 -0.1364
 1504TIP3    H225928   1.861   5.726  10.438 -0.4480 -0.3064 -0.1444
 1505TIP3   OH225929   2.597   0.566  15.033  0.1094  0.0698 -0.8148
 1505TIP3    H125930   2.648   0.646  15.043  1.2350 -0.5425 -1.5763
 1505TIP3    H225931   2.559   0.572  14.946 -1.6887  0.8053 -0.0465
 1506TIP3   OH225932   2.425   3.453   1.698  0.6829 -0.1396 -0.0359
 1506TIP3    H125933   2.399   3.361   1.687  0.7542 -0.4991  2.2723
 1506TIP3    H225934   2.354   3.503   1.657  0.1478 -1.2037 -0.4425
 1507TIP3   OH225935   5.404   6.233   0.617 -0.2360  0.3139  0.7001
 1507TIP3    H125936   5.414   6.323   0.647 -1.3098  0.4955  0.5621
 1507TIP3    H225937   5.309   6.222   0.607 -0.4155 -1.7160  3.5292
 1508TIP3   OH225938   6.371   2.029  14.566  0.1209 -0.3623 -0.2512
 1508TIP3    H125939   6.310   1.961  14.540 -1.1227  0.4670  0.3867
 1508TIP3    H225940   6.363   2.096  14.498  1.3860 -0.8604 -0.9133
 1509TIP3   OH225941   5.402   1.511  14.845 -0.3209 -0.2940  0.5671
 1509TIP3    H125942   5.328   1.539  14.898 -0.6126 -2.3019  1.2970
 1509TIP3    H225943   5.442   1.593  14.814 -2.1366  0.8417  1.0960
 1510TIP3   OH225944   0.464   1.907   5.500  0.0144  0.8118 -0.4032
 1510TIP3    H125945   0.428   1.870   5.581 -0.5492 -0.8072 -1.3396
 1510TIP3    H225946   0.482   1.999   5.521 -1.6951  0.8623  1.0491
 1511TIP3   OH225947   5.772   0.079  14.351  0.4369 -0.8003 -0.4966
 1511TIP3    H125948   5.816   0.125  14.423 -1.9877  1.6762 -0.4064
 1511TIP3    H225949   5.817   0.108  14.272  0.1285  0.2982 -0.2857
 1512TIP3   OH225950   5.178   5.073   3.017 -0.0676  0.4308  0.4061
 1512TIP3    H125951   5.087   5.053   2.997 -0.9309  0.5800  3.7042
 1512TIP3    H225952   5.213   4.993   3.057  1.5250  0.1564 -1.3497
 1513TIP3   OH225953   5.393   5.195   4.740  0.0598  0.2299  0.0274
 1513TIP3    H125954   5.485   5.220   4.732 -0.0826  0.5072 -0.9140
 1513TIP3    H225955   5.394   5.111   4.784  0.7827  0.1258 -0.1808
 1514TIP3   OH225956   6.017   3.802  12.602  0.6765 -0.6012 -0.0065
 1514TIP3    H125957   6.036   3.892  12.574 -0.2085  0.0879  1.4882
 1514TIP3    H225958   5.949   3.773  12.542 -0.4516  0.4726  0.7053
 1515TIP3   OH225959   5.830   1.782  13.165 -0.0880  0.0029 -0.1603
 1515TIP3    H125960   5.910   1.732  13.181  0.1303  0.6992  1.0696
 1515TIP3    H225961   5.847   1.829  13.083  0.0726 -1.1729 -0.8189
 1516TIP3   OH225962   2.901   0.231   5.633 -0.3718  0.6162 -0.1526
 1516TIP3    H125963   2.856   0.197   5.556 -1.1359  0.8064  0.2015
 1516TIP3    H225964   2.981   0.271   5.598  0.8738 -2.0278 -0.5190
 1517TIP3   OH225965   0.757   4.783  15.020 -0.3824  0.0227  0.1795
 1517TIP3    H125966   0.703   4.793  15.099  0.5483 -2.4676  1.2152
 1517TIP3    H225967   0.704   4.727  14.963  0.4484 -1.2619  0.6238
 1518TIP3   OH225968   5.158   3.129  10.997 -0.0178 -0.1472  0.3644
 1518TIP3    H125969   5.084   3.179  10.963 -0.1160 -1.5073 -1.5771
 1518TIP3    H225970   5.235   3.181  10.975 -0.1697 -0.4690 -1.0246
 1519TIP3   OH225971   6.181   4.470   1.533  0.5313 -0.0419  0.0823
 1519TIP3    H125972   6.127   4.401   1.495 -0.6515  0.6025  0.5501
 1519TIP3    H225973   6.229   4.507   1.459  1.2492 -1.3963 -0.1640
 1520TIP3   OH225974   1.315   2.638  16.237 -0.2449 -0.3456  0.0551
 1520TIP3    H125975   1.266   2.712  16.201 -1.2599 -0.5991  0.8413
 1520TIP3    H225976   1.402   2.645  16.198 -0.6945  0.5319 -0.8513
 1521TIP3   OH225977   4.499   5.673  14.769 -0.0166  0.0258  0.6510
 1521TIP3    H125978   4.485   5.613  14.695 -1.8030  2.3277 -1.0317
 1521TIP3    H225979   4.415   5.676  14.814  0.8927 -0.9016  2.5202
 1522TIP3   OH225980   3.247   2.204  11.817 -0.1232  0.4499  0.0498
 1522TIP3    H125981   3.153   2.209  11.835 -0.2726 -1.4999  0.0710
 1522TIP3    H225982   3.268   2.285  11.771 -2.0879  0.3614 -1.1055
 1523TIP3   OH225983   2.074   2.497   3.836 -0.2219  0.7044 -0.0399
 1523TIP3    H125984   2.168   2.485   3.822 -0.5153 -1.8548 -0.2265
 1523TIP3    H225985   2.051   2.433   3.903 -1.7021  1.9447  0.7090
 1524TIP3   OH225986   1.251   1.743  13.541  0.2556 -0.2534  0.4469
 1524TIP3    H125987   1.270   1.652  13.517  1.5748 -0.2273  1.2946
 1524TIP3    H225988   1.302   1.758  13.621 -2.3344  0.2901  2.1202
 1525TIP3   OH225989   6.375   1.711   5.518 -0.3452 -0.0087  0.1344
 1525TIP3    H125990   6.371   1.795   5.473 -0.4945 -0.0682  0.0382
 1525TIP3    H225991   6.373   1.733   5.611 -1.2968  0.0436  0.1068
 1526TIP3   OH225992   3.194   5.067  11.283 -0.6802  0.5146 -0.0699
 1526TIP3    H125993   3.192   4.977  11.250  0.8048  0.5125 -0.2406
 1526TIP3    H225994   3.247   5.062  11.362 -1.5853  1.0575  0.5891
 1527TIP3   OH225995   3.011   2.305  16.772  0.2860  0.5674  0.1776
 1527TIP3    H125996   3.043   2.231  16.722 -2.5731  0.2737 -1.4690
 1527TIP3    H225997   2.968   2.361  16.707  0.8922  2.8300  1.6191
 1528TIP3   OH225998   3.946   2.382   2.216 -0.4307  0.0338 -0.5237
 1528TIP3    H125999   3.876   2.353   2.157 -3.0035  2.3385  1.0889
 1528TIP3    H226000   3.907   2.375   2.304  2.6224 -1.6360  0.8454
 1529TIP3   OH226001   1.871   4.498   0.176 -0.0368 -0.1080  0.1610
 1529TIP3    H126002   1.817   4.573   0.152 -0.5867 -0.5181  0.0892
 1529TIP3    H226003   1.844   4.477   0.266  0.3176 -0.0456  0.2842
 1530TIP3   OH226004   0.973   2.132   3.233 -0.5959  0.0678 -0.2547
 1530TIP3    H126005   0.957   2.037   3.233  2.5946 -0.5911  1.3707
 1530TIP3    H226006   1.018   2.148   3.150 -4.3002  1.0196 -2.3537
 1531TIP3   OH226007   0.377   0.204   4.881  0.0278  0.3434  0.1845
 1531TIP3    H126008   0.311   0.226   4.815 -0.8521 -0.7004  0.6821
 1531TIP3    H226009   0.358   0.264   4.954 -1.4036 -0.9686  0.9438
 1532TIP3   OH226010   1.743   2.414   0.864  0.6205 -0.2057 -0.1238
 1532TIP3    H126011   1.737   2.500   0.907 -1.7503 -0.2380 -0.2571
 1532TIP3    H226012   1.717   2.351   0.932 -0.4338 -0.5204 -0.7964
 1533TIP3   OH226013   2.173   1.575  14.108  0.7439  0.1051 -0.1985
 1533TIP3    H126014   2.231   1.636  14.154  0.2858  0.7472 -0.4509
 1533TIP3    H226015   2.120   1.536  14.178  0.0272  1.0996 -0.1602
 1534TIP3   OH226016   4.332   3.350   1.354  0.1100  0.4675 -0.0139
 1534TIP3    H126017   4.383   3.432   1.354 -0.7722  1.0337 -0.2668
 1534TIP3    H226018   4.322   3.329   1.261 -0.3761  0.5300  0.0220
 1535TIP3   OH226019   0.772   2.402   3.809  0.4088  0.3271 -0.0234
 1535TIP3    H126020   0.837   2.471   3.792 -0.3299  1.1150  0.2749
 1535TIP3    H226021   0.710   2.409   3.736  1.9329 -2.0539 -1.6983
 1536TIP3   OH226022   3.490   4.748  16.155  0.5712 -0.5858 -0.2240
 1536TIP3    H126023   3.533   4.799  16.223 -0.0865 -0.0819 -0.1778
 1536TIP3    H226024   3.416   4.802  16.127 -0.3499 -1.6526  0.0706
 1537TIP3   OH226025   0.695   3.441   5.460  0.0572 -0.0518  0.3305
 1537TIP3    H126026   0.787   3.465   5.471 -0.3380  0.8886  1.9007
 1537TIP3    H226027   0.654   3.463   5.544 -1.3591 -1.6463  0.1119
 1538TIP3   OH226028   1.302   1.599  15.827  0.0754  0.5038 -0.3011
 1538TIP3    H126029   1.298   1.524  15.887 -2.2774 -1.1388 -2.3064
 1538TIP3    H226030   1.390   1.635  15.839  1.8872 -3.4751 -0.2592
 1539TIP3   OH226031   3.241   6.401   1.258  0.0637 -0.1704 -0.2125
 1539TIP3    H126032   3.168   6.373   1.313  0.2598 -1.4892 -0.5891
 1539TIP3    H226033   3.318   6.392   1.315  0.4059 -2.5580 -0.9568
 1540TIP3   OH226034   2.921   0.983   0.012  0.1468  0.1755 -0.0520
 1540TIP3    H126035   2.952   0.910   0.066 -1.0774  0.1646  0.6801
 1540TIP3    H226036   2.970   1.058   0.044  0.2396 -0.0378  0.3200
 1541TIP3   OH226037   5.647   0.739  14.150  0.3139  0.2726  0.2669
 1541TIP3    H126038   5.702   0.739  14.229  3.3281  1.5896 -1.6603
 1541TIP3    H226039   5.693   0.681  14.089 -1.4674 -0.0201 -0.8722
 1542TIP3   OH226040   4.525   5.993  16.413 -0.5354 -0.1399 -0.2207
 1542TIP3    H126041   4.542   6.024  16.502 -1.4585 -0.3069  0.0277
 1542TIP3    H226042   4.504   6.072  16.364  0.2702 -0.0090 -0.3802
 1543TIP3   OH226043   2.747   5.666  15.243 -0.0432 -0.1412  0.0026
 1543TIP3    H126044   2.766   5.693  15.333  2.0214 -1.5722  0.0717
 1543TIP3    H226045   2.829   5.683  15.196 -0.3991 -1.3759 -1.1044
 1544TIP3   OH226046   0.634   2.546  16.513 -0.3141  0.0765  0.8472
 1544TIP3    H126047   0.708   2.499  16.475 -0.7477 -0.5568  0.7850
 1544TIP3    H226048   0.640   2.634  16.476  0.6232  0.1431  1.1277
 1545TIP3   OH226049   5.062   2.140  11.969 -0.5724  0.2502 -0.0653
 1545TIP3    H126050   4.974   2.137  12.007 -0.4811  2.0890  0.3775
 1545TIP3    H226051   5.052   2.191  11.889  0.2673  1.5992  0.6414
 1546TIP3   OH226052   4.742   2.789   3.348 -0.3293 -0.5228  0.5080
 1546TIP3    H126053   4.739   2.699   3.383 -1.9215 -0.2352  1.2008
 1546TIP3    H226054   4.784   2.840   3.417 -0.0248 -0.6106  0.3903
 1547TIP3   OH226055   5.269   6.761  12.477 -0.3762 -0.5402 -0.4069
 1547TIP3    H126056   5.302   6.747  12.388  1.9075  1.1803  0.0771
 1547TIP3    H226057   5.346   6.788  12.527 -1.9097  0.1343  1.7208
 1548TIP3   OH226058   1.228   6.052   3.745  0.1562 -0.0425 -0.1104
 1548TIP3    H126059   1.259   6.122   3.687 -1.4678  0.9786  0.1842
 1548TIP3    H226060   1.199   6.098   3.824 -0.8020 -1.0621  0.1499
 1549TIP3   OH226061   3.743   2.236   2.823  0.1274 -0.4932 -0.3135
 1549TIP3    H126062   3.653   2.206   2.836 -0.0379  0.4314  0.8398
 1549TIP3    H226063   3.780   2.240   2.911  1.8325 -2.3667 -0.8879
 1550TIP3   OH226064   0.673   0.514   1.927  0.2799 -1.0200  0.4945
 1550TIP3    H126065   0.686   0.428   1.888 -0.2719 -0.0821 -2.0192
 1550TIP3    H226066   0.590   0.545   1.889 -0.0499  0.2184  2.1097
 1551TIP3   OH226067   6.196   0.175  16.060  0.0835 -0.0673  0.1708
 1551TIP3    H126068   6.209   0.246  16.122  1.0387 -1.1623  1.2761
 1551TIP3    H226069   6.277   0.171  16.009 -0.6182  0.7010 -1.0712
 1552TIP3   OH226070   5.440   5.895   3.511  0.2673 -0.3149  0.2795
 1552TIP3    H126071   5.410   5.895   3.420 -0.9123  2.0524  0.5974
 1552TIP3    H226072   5.510   5.960   3.514  0.5840 -0.6687  1.0136
 1553TIP3   OH226073   3.736   0.047  13.194  0.2732 -0.8643  0.3027
 1553TIP3    H126074   3.672  -0.024  13.198  1.2469 -1.8913 -1.3595
 1553TIP3    H226075   3.787   0.039  13.275  0.6931 -2.3928 -0.0926
 1554TIP3   OH226076   4.570   0.041   2.149  0.3637  0.0049  0.3197
 1554TIP3    H126077   4.490   0.004   2.111  0.1865  0.4071  0.2944
 1554TIP3    H226078   4.629   0.054   2.075  0.8186 -1.1771  0.4541
 1555TIP3   OH226079   5.821   6.705  13.300 -0.9838  0.3029  0.1457
 1555TIP3    H126080   5.896   6.748  13.341 -0.1966 -0.9648  0.0560
 1555TIP3    H226081   5.825   6.732  13.208  0.5489 -1.3007 -0.3129
 1556TIP3   OH226082   6.234   5.458   2.614 -0.1050  0.2585 -0.7236
 1556TIP3    H126083   6.184   5.516   2.670  1.2222  0.4165  0.3598
 1556TIP3    H226084   6.238   5.504   2.530  0.6664  1.6333  0.0189
 1557TIP3   OH226085   4.917   2.705   5.338  0.3363 -0.0945 -0.3908
 1557TIP3    H126086   4.983   2.654   5.291  1.0789 -0.2920  0.8396
 1557TIP3    H226087   4.967   2.753   5.404 -0.6431  0.4613 -0.0452
 1558TIP3   OH226088   4.279   6.393  16.555 -0.3552  0.0217  0.0960
 1558TIP3    H126089   4.222   6.341  16.612  0.5421 -1.1800 -0.0849
 1558TIP3    H226090   4.308   6.466  16.610 -1.9361  0.5998  0.2363
 1559TIP3   OH226091   4.294   2.477   3.176  0.1219 -0.0780  0.3544
 1559TIP3    H126092   4.260   2.550   3.228  1.4797 -0.4790  1.9057
 1559TIP3    H226093   4.216   2.430   3.147 -0.7206  0.9736  0.8334
 1560TIP3   OH226094   5.982   0.278   1.541 -0.0285  0.2440  0.2236
 1560TIP3    H126095   5.913   0.334   1.507  0.8894  0.7016 -0.9384
 1560TIP3    H226096   6.033   0.253   1.464  0.7775 -0.5357  0.9895
 1561TIP3   OH226097   3.574   2.013   2.237 -0.0757  0.3987 -0.3777
 1561TIP3    H126098   3.615   1.986   2.319  0.8760 -2.7537 -1.7285
 1561TIP3    H226099   3.646   2.010   2.173 -1.0008  1.7495 -1.5172
 1562TIP3   OH226100   1.703   4.502   1.632  0.3042  0.1274  0.8093
 1562TIP3    H126101   1.781   4.467   1.589 -0.8342 -1.2718 -0.1894
 1562TIP3    H226102   1.729   4.590   1.660  1.9596  0.0241 -0.2711
 1563TIP3   OH226103   4.396   4.875   0.126 -0.1732 -0.5712 -0.0058
 1563TIP3    H126104   4.449   4.928   0.185  0.7159  1.3808 -2.3704
 1563TIP3    H226105   4.314   4.923   0.117  0.3465  0.0742 -1.5892
 1564TIP3   OH226106   5.268   0.979   4.367  0.5165  0.3476  0.3909
 1564TIP3    H126107   5.202   0.915   4.343 -0.0550  1.0304  0.0897
 1564TIP3    H226108   5.231   1.025   4.443  1.6379 -0.7574  1.6801
 1565TIP3   OH226109   0.641   4.503  13.726  0.3307 -0.4813 -0.8637
 1565TIP3    H126110   0.732   4.531  13.726 -0.3193  1.8895  0.7084
 1565TIP3    H226111   0.610   4.519  13.637  0.9887  0.3775 -0.9385
 1566TIP3   OH226112   2.267   0.008   0.430  0.1326 -0.5507 -0.1215
 1566TIP3    H126113   2.187  -0.027   0.468 -1.5471  3.3001  0.3014
 1566TIP3    H226114   2.252   0.102   0.423  4.3055  0.2817 -0.8414
 1567TIP3   OH226115   1.845   0.998  15.584 -0.2869 -0.0358 -0.6724
 1567TIP3    H126116   1.798   0.966  15.661 -0.4417  0.6348 -0.4757
 1567TIP3    H226117   1.798   0.960  15.509 -0.7614  0.1187 -0.4594
 1568TIP3   OH226118   3.210   5.757   3.693  0.0124  0.1851  0.8029
 1568TIP3    H126119   3.255   5.673   3.698 -0.5872 -0.3790 -1.7539
 1568TIP3    H226120   3.190   5.779   3.784 -2.0242 -3.7083  1.5245
 1569TIP3   OH226121   0.651   1.099   2.455 -0.0911 -0.5654  0.1365
 1569TIP3    H126122   0.639   1.024   2.514  1.9363 -0.0677  1.2730
 1569TIP3    H226123   0.741   1.089   2.422 -0.3956  0.4488 -1.0633
 1570TIP3   OH226124   5.735   3.139  11.117  0.0559  0.2155 -0.2071
 1570TIP3    H126125   5.729   3.123  11.023 -0.1343  1.3186 -0.3864
 1570TIP3    H226126   5.661   3.090  11.154 -0.5582  0.7197 -0.7593
 1571TIP3   OH226127   0.934   6.481   0.053 -0.1631  0.1537  0.5611
 1571TIP3    H126128   0.858   6.478  -0.005  1.6242 -1.4951 -1.9205
 1571TIP3    H226129   0.959   6.573   0.056  0.6668  0.1829 -2.8989
 1572TIP3   OH226130   3.832   6.172   3.801  0.6607 -0.0091  0.5008
 1572TIP3    H126131   3.761   6.221   3.841  0.6762 -0.9362  1.7369
 1572TIP3    H226132   3.792   6.129   3.725  0.3321  0.8321  0.1947
 1573TIP3   OH226133   0.616   4.562   3.325  0.0988  0.4377  0.5195
 1573TIP3    H126134   0.615   4.554   3.421  1.5310 -2.8777  0.3805
 1573TIP3    H226135   0.583   4.478   3.294  1.4514  0.7255 -1.9042
 1574TIP3   OH226136   1.461   3.713   2.249  0.6969  0.1406 -0.2584
 1574TIP3    H126137   1.384   3.758   2.284  0.4441  0.9139 -1.7214
 1574TIP3    H226138   1.477   3.642   2.311 -2.2088 -1.1169 -0.7661
 1575TIP3   OH226139   4.754   1.927   3.222  0.6388 -0.3250  0.4440
 1575TIP3    H126140   4.754   1.883   3.307 -0.3492 -0.3085  0.4647
 1575TIP3    H226141   4.663   1.955   3.210  1.1182  1.1704  0.1535
 1576TIP3   OH226142   0.969   5.563  15.510 -0.7972  0.3978 -0.5205
 1576TIP3    H126143   1.025   5.641  15.504 -0.1402  0.0359  0.6402
 1576TIP3    H226144   0.943   5.558  15.602 -1.2918 -0.4394 -0.6908
 1577TIP3   OH226145   1.527   1.849   0.804  0.7243 -0.2887  0.3415
 1577TIP3    H126146   1.444   1.862   0.759  0.6622  0.2107  0.6000
 1577TIP3    H226147   1.540   1.929   0.855  0.4485 -1.1354  1.7908
 1578TIP3   OH226148   2.525   4.461   0.573 -0.1451 -0.6237  0.2329
 1578TIP3    H126149   2.512   4.412   0.654  1.1120 -1.0927  0.1632
 1578TIP3    H226150   2.620   4.467   0.563 -0.2868  0.0646 -0.8235
 1579TIP3   OH226151   2.440   4.633  13.986  0.3519  0.4274 -0.2736
 1579TIP3    H126152   2.351   4.666  13.971  0.2174 -0.7354 -2.3625
 1579TIP3    H226153   2.427   4.543  14.015  0.8517  0.4763  0.1182
 1580TIP3   OH226154   1.424   2.424  14.294 -0.4283  0.4364 -0.6925
 1580TIP3    H126155   1.349   2.409  14.236 -1.1271  0.0432  0.2890
 1580TIP3    H226156   1.399   2.500  14.346 -0.8502 -0.6507  0.7392
 1581TIP3   OH226157   6.533   0.085  12.125  0.9073 -0.0599 -0.2138
 1581TIP3    H126158   6.544   0.164  12.073  0.5613  0.2095  0.1113
 1581TIP3    H226159   6.585   0.101  12.204  1.7750 -0.6412 -0.6600
 1582TIP3   OH226160   6.240   2.239  16.014 -0.4815  0.2871 -0.3636
 1582TIP3    H126161   6.232   2.308  16.081  0.7253  0.0226  0.0840
 1582TIP3    H226162   6.195   2.164  16.052  1.3393 -0.2790  0.7916
 1583TIP3   OH226163   0.118   3.551   5.401  0.2456 -0.0661  0.5487
 1583TIP3    H126164   0.048   3.616   5.413 -0.7539 -1.0840  0.4250
 1583TIP3    H226165   0.156   3.573   5.315 -0.1026  0.3281  0.4890
 1584TIP3   OH226166   6.493   2.128   5.338  0.3525 -0.4039  0.4105
 1584TIP3    H126167   6.441   2.051   5.362  0.1953 -0.5710 -0.4166
 1584TIP3    H226168   6.462   2.150   5.250  4.4456 -3.0617 -2.0475
 1585TIP3   OH226169   3.878   0.967  13.604  0.0679 -0.1933  0.3969
 1585TIP3    H126170   3.872   0.874  13.624  0.5206 -0.3975 -0.3671
 1585TIP3    H226171   3.822   0.979  13.527 -2.2118  0.7048  2.0867
 1586TIP3   OH226172   1.182   4.161  15.978  0.2087 -0.1066  0.4972
 1586TIP3    H126173   1.171   4.256  15.988  3.7713  0.9604 -3.1403
 1586TIP3    H226174   1.114   4.136  15.914 -0.3535  0.0809  1.0126
 1587TIP3   OH226175   2.280   1.732   3.789 -0.2948 -0.2133  0.8594
 1587TIP3    H126176   2.260   1.698   3.701 -0.3334  0.7018  0.4995
 1587TIP3    H226177   2.371   1.709   3.804 -0.5986 -1.3607  1.0561
 1588TIP3   OH226178   1.725   0.502  13.374 -0.0029  0.5749  0.0722
 1588TIP3    H126179   1.760   0.520  13.461 -0.2609 -0.8097  0.4973
 1588TIP3    H226180   1.646   0.556  13.368  0.0636  0.7492  0.6653
 1589TIP3   OH226181   2.620   0.517  12.901  0.2825  0.5775  0.7141
 1589TIP3    H126182   2.674   0.557  12.833 -0.2818  0.2015  0.0304
 1589TIP3    H226183   2.533   0.513  12.863  0.3884 -1.6815  0.5789
 1590TIP3   OH226184   5.856   5.042  10.525  0.3219  0.2722  0.1034
 1590TIP3    H126185   5.877   5.098  10.451 -0.8656  0.5237 -0.0552
 1590TIP3    H226186   5.830   5.102  10.594  1.7785  0.0634  0.8741
 1591TIP3   OH226187   1.131   3.084   4.755  0.0435  0.1210  0.2066
 1591TIP3    H126188   1.212   3.130   4.736 -0.3588  1.2498  1.1071
 1591TIP3    H226189   1.091   3.134   4.826 -1.3796 -0.4713 -0.1382
 1592TIP3   OH226190   4.650   3.072   0.568 -0.1901  0.0865 -0.1280
 1592TIP3    H126191   4.611   3.069   0.655  0.9670  1.7036  0.4840
 1592TIP3    H226192   4.581   3.039   0.510 -2.1003  1.8127  1.0219
 1593TIP3   OH226193   1.892   3.149   1.501  0.3029 -0.4619  0.3665
 1593TIP3    H126194   1.976   3.130   1.544 -0.1395  1.4679  2.2504
 1593TIP3    H226195   1.915   3.164   1.410  1.8889 -0.7381  0.6843
 1594TIP3   OH226196   2.778   1.115   2.995  0.4157  0.3976  0.6696
 1594TIP3    H126197   2.779   1.202   2.955 -3.3155  1.2372  2.0183
 1594TIP3    H226198   2.812   1.057   2.927  1.9365  2.7064 -0.6915
 1595TIP3   OH226199   2.288   6.374   3.140  0.4091  0.5663 -0.1900
 1595TIP3    H126200   2.306   6.323   3.061  2.6894  0.9419  0.0324
 1595TIP3    H226201   2.192   6.377   3.145  0.1521 -2.7331 -0.8112
 1596TIP3   OH226202   3.390   1.208  11.784 -0.5842  0.8388  0.4429
 1596TIP3    H126203   3.444   1.279  11.748  1.4066 -0.9450 -0.3235
 1596TIP3    H226204   3.444   1.172  11.855 -0.1665 -1.7332 -1.0800
 1597TIP3   OH226205   5.796   1.020  15.367 -0.4689  0.6726 -0.6127
 1597TIP3    H126206   5.703   1.017  15.392 -0.5135  0.4194 -0.7964
 1597TIP3    H226207   5.795   1.056  15.278 -0.3403  1.2513 -0.3817
 1598TIP3   OH226208   4.981   3.194   2.247 -0.1936 -0.0142  0.3394
 1598TIP3    H126209   5.039   3.258   2.288 -0.0681  0.5068 -0.6215
 1598TIP3    H226210   5.039   3.124   2.217 -0.1073  0.2977 -0.2307
 1599TIP3   OH226211   0.322   6.519   3.886  0.0130 -0.5903  0.6672
 1599TIP3    H126212   0.255   6.570   3.841 -1.4693 -1.9981  1.1436
 1599TIP3    H226213   0.318   6.549   3.977 -0.5237 -1.1657  0.8471
 1600TIP3   OH226214   6.122   2.111   5.809  0.4539 -0.6208  0.1309
 1600TIP3    H126215   6.083   2.199   5.806 -0.3157 -0.8034  2.4760
 1600TIP3    H226216   6.214   2.125   5.785  0.9193  1.2735  2.6159
 1601TIP3   OH226217   5.996   4.806   4.153 -0.1518  0.0158 -0.2825
 1601TIP3    H126218   5.993   4.726   4.205  0.3562 -0.0021 -0.2678
 1601TIP3    H226219   5.991   4.777   4.062  2.6627 -0.3025 -0.4446
 1602TIP3   OH226220   5.839   6.073   0.332 -0.8336 -0.5356  0.4930
 1602TIP3    H126221   5.871   6.058   0.243 -0.8552  0.2213  0.3462
 1602TIP3    H226222   5.800   5.990   0.358 -1.3395 -0.6014 -0.4244
 1603TIP3   OH226223   2.820   1.674  16.031 -0.2592  0.7013 -0.2778
 1603TIP3    H126224   2.865   1.598  16.069 -2.9355 -1.0356 -0.3133
 1603TIP3    H226225   2.781   1.719  16.106 -0.6032  0.6918 -0.4477
 1604TIP3   OH226226   1.015   0.483  13.146 -0.1095 -0.5934  0.2766
 1604TIP3    H126227   1.025   0.557  13.207  1.9908  0.5180 -1.2918
 1604TIP3    H226228   0.962   0.518  13.075 -2.5347 -1.8841  1.3339
 1605TIP3   OH226229   3.939   1.788  16.128 -0.0806  0.4515  0.4721
 1605TIP3    H126230   3.850   1.822  16.119 -0.2023 -0.1637 -0.9087
 1605TIP3    H226231   3.932   1.722  16.198 -0.5922  0.7794  0.7402
 1606TIP3   OH226232   4.834   1.675   5.272  0.1496  0.6592 -0.5529
 1606TIP3    H126233   4.787   1.639   5.197  0.0031  1.1122 -0.6858
 1606TIP3    H226234   4.774   1.665   5.346 -0.0180  0.9133 -0.6519
 1607TIP3   OH226235   5.374   5.666  12.468 -0.1948 -0.1947  0.0014
 1607TIP3    H126236   5.357   5.691  12.377 -0.6408  1.0810  0.4148
 1607TIP3    H226237   5.440   5.729  12.497  0.7059 -1.2373  0.2704
 1608TIP3   OH226238   1.344   3.455   0.343  0.4104 -0.1975  0.5607
 1608TIP3    H126239   1.320   3.527   0.284 -0.8167  0.0781  1.3611
 1608TIP3    H226240   1.368   3.383   0.285 -0.5800  0.1348 -0.2939
 1609TIP3   OH226241   2.709   0.848   4.514  0.0503 -0.1983 -0.3216
 1609TIP3    H126242   2.703   0.794   4.435  0.3865 -0.3790 -0.2251
 1609TIP3    H226243   2.775   0.805   4.568 -0.4711 -0.3097  0.2426
 1610TIP3   OH226244   1.967   0.153  13.675 -0.2365 -0.6283 -0.3687
 1610TIP3    H126245   1.910   0.080  13.651 -0.0451 -0.4498 -1.4366
 1610TIP3    H226246   2.042   0.112  13.718 -0.0610 -1.0938 -1.0926
 1611TIP3   OH226247   3.747   3.296  15.984  0.1641 -0.2192  0.5749
 1611TIP3    H126248   3.762   3.388  16.008  0.5587 -0.4700  1.3407
 1611TIP3    H226249   3.832   3.266  15.952 -0.7448  0.5974 -3.0186
 1612TIP3   OH226250   3.345   0.676   3.270 -0.1554  0.4127 -0.7298
 1612TIP3    H126251   3.361   0.739   3.199  1.1540 -0.8445 -1.6069
 1612TIP3    H226252   3.433   0.649   3.298 -0.6851 -0.7846 -0.1545
 1613TIP3   OH226253   6.275   4.141  12.239 -0.3523 -0.7101 -0.0224
 1613TIP3    H126254   6.186   4.154  12.206 -0.5211 -1.8693 -0.0658
 1613TIP3    H226255   6.266   4.075  12.308  0.5268 -1.1472 -0.3117
 1614TIP3   OH226256   5.012   1.886   4.118  0.2818  0.2439 -0.0173
 1614TIP3    H126257   5.087   1.840   4.082 -1.2535 -0.6994 -2.2220
 1614TIP3    H226258   5.036   1.979   4.113  0.2989  0.1837 -3.4081
 1615TIP3   OH226259   0.487   4.066  11.478 -0.6520 -0.2189  0.0464
 1615TIP3    H126260   0.446   3.987  11.512 -1.5629  0.6092  0.9119
 1615TIP3    H226261   0.575   4.065  11.516 -1.0046 -0.3011  0.8860
 1616TIP3   OH226262   0.426   4.129  11.755 -0.2877  0.3755  0.5196
 1616TIP3    H126263   0.404   4.186  11.682  0.8419  1.4341  0.9497
 1616TIP3    H226264   0.502   4.171  11.796 -1.3031  0.2170  2.7252
 1617TIP3   OH226265   1.000   1.708  10.871  0.2012 -0.0078  0.7776
 1617TIP3    H126266   0.920   1.759  10.881 -0.7443 -1.3505  0.4268
 1617TIP3    H226267   1.011   1.700  10.776  0.8487  0.2931  0.8229
 1618TIP3   OH226268   0.965   2.358   5.102  0.2119  0.2332 -0.2109
 1618TIP3    H126269   0.998   2.418   5.169 -0.6421 -1.2841  1.6938
 1618TIP3    H226270   0.913   2.412   5.044 -1.3668  1.2560  1.9990
 1619TIP3   OH226271   3.455   5.784  15.248 -0.3057  0.5693  0.6731
 1619TIP3    H126272   3.426   5.804  15.337 -3.1907  2.0278 -0.4663
 1619TIP3    H226273   3.523   5.849  15.230 -0.2603  0.7728  1.5297
 1620TIP3   OH226274   5.321   4.163  13.391 -0.2877 -0.7256  0.4388
 1620TIP3    H126275   5.361   4.247  13.417 -1.8417  0.5406 -0.9971
 1620TIP3    H226276   5.262   4.141  13.463 -0.5516 -0.1018  0.4184
 1621TIP3   OH226277   6.201   2.468  14.377 -0.6190  0.2995  0.2491
 1621TIP3    H126278   6.176   2.420  14.456 -0.1249 -1.7379 -0.7615
 1621TIP3    H226279   6.274   2.524  14.405 -1.5878  0.9548  1.5865
 1622TIP3   OH226280   1.955   2.955  15.832  0.3898 -0.1268 -0.0482
 1622TIP3    H126281   1.997   3.000  15.906  0.2402  0.7494 -0.4787
 1622TIP3    H226282   1.913   2.879  15.871  0.6923  0.0815  0.7040
 1623TIP3   OH226283   1.548   4.499  14.502  0.4482  0.1584 -0.0379
 1623TIP3    H126284   1.563   4.544  14.585  0.7525 -0.9348  0.5189
 1623TIP3    H226285   1.453   4.492  14.494  0.4095 -1.5553  1.2744
 1624TIP3   OH226286   2.293   6.370   1.927  0.4079  0.0966 -0.5655
 1624TIP3    H126287   2.274   6.464   1.919 -0.2576 -0.0372 -0.5510
 1624TIP3    H226288   2.368   6.367   1.987  0.1250  0.5893 -0.1743
 1625TIP3   OH226289   5.523   3.957   4.615  0.6056 -0.3398 -0.4253
 1625TIP3    H126290   5.442   3.910   4.638  1.0906 -1.0630 -0.1821
 1625TIP3    H226291   5.514   4.042   4.658 -1.2942  0.6990 -2.6649
 1626TIP3   OH226292   1.275   5.185  13.584 -0.2591 -0.2961 -0.2019
 1626TIP3    H126293   1.354   5.144  13.548  0.3016 -0.9639  1.6793
 1626TIP3    H226294   1.220   5.112  13.610 -0.9711  0.1736 -0.3636
 1627TIP3   OH226295   1.179   6.542  15.878  0.3271  0.0781  0.1198
 1627TIP3    H126296   1.274   6.547  15.884  0.3639  0.3319 -0.5278
 1627TIP3    H226297   1.161   6.450  15.857  0.6409  0.5434 -2.5677
 1628TIP3   OH226298   0.810   5.288   4.184  0.3440 -0.0943  0.2148
 1628TIP3    H126299   0.895   5.274   4.226  0.2710  1.1786  0.8306
 1628TIP3    H226300   0.749   5.234   4.234  0.6546 -0.4087  0.2582
 1629TIP3   OH226301   1.250   5.228   2.258  0.1029  0.2176  0.1163
 1629TIP3    H126302   1.315   5.295   2.237 -1.1229  1.2908 -0.3900
 1629TIP3    H226303   1.231   5.186   2.174  1.5934 -1.5169  0.5757
 1630TIP3   OH226304   3.891   2.672   4.145 -0.3601 -0.2646 -0.4739
 1630TIP3    H126305   3.805   2.707   4.123  0.3894  2.1721  0.1286
 1630TIP3    H226306   3.875   2.580   4.166 -2.7669  0.0567 -0.6002
 1631TIP3   OH226307   1.079   0.782   2.888  0.4058 -0.9447  0.1602
 1631TIP3    H126308   1.112   0.712   2.944 -0.1026  0.4355  2.3439
 1631TIP3    H226309   0.986   0.789   2.911  1.0075  2.3781  2.4814
 1632TIP3   OH226310   5.240   0.603  11.975  0.0218  0.2209 -0.0665
 1632TIP3    H126311   5.261   0.654  12.054 -0.0552 -0.2938  0.2880
 1632TIP3    H226312   5.276   0.516  11.992 -1.7398 -0.4921  0.2498
 1633TIP3   OH226313   6.364   4.388  15.392 -0.1895 -0.1520 -0.0266
 1633TIP3    H126314   6.449   4.365  15.355 -0.3881  1.3169 -1.5187
 1633TIP3    H226315   6.375   4.476  15.426 -1.2894  0.3846 -0.9668
 1634TIP3   OH226316   2.762   1.360  11.007 -0.3010 -0.5288 -0.2894
 1634TIP3    H126317   2.677   1.326  11.034 -0.8592  0.6150 -0.5301
 1634TIP3    H226318   2.780   1.431  11.070  0.7046 -1.0680  0.0510
 1635TIP3   OH226319   5.820   4.674  12.031 -0.0718 -0.5204 -0.2474
 1635TIP3    H126320   5.871   4.641  12.105  0.9543 -0.7779 -1.0324
 1635TIP3    H226321   5.882   4.729  11.982 -0.8493 -0.0167 -0.6823
 1636TIP3   OH226322   3.021   3.760  16.283 -0.3413 -0.4202  0.0608
 1636TIP3    H126323   3.083   3.827  16.253 -1.4387  0.5773 -0.0357
 1636TIP3    H226324   3.037   3.754  16.377  0.6023 -0.9134 -0.1246
 1637TIP3   OH226325   2.852   5.823  12.574  0.0891 -0.4781  0.4105
 1637TIP3    H126326   2.838   5.730  12.591 -0.1159 -0.9730 -2.0391
 1637TIP3    H226327   2.943   5.838  12.598 -0.0451 -1.1517  1.4007
 1638TIP3   OH226328   6.693   4.936   4.976  0.4456  0.2022  0.1022
 1638TIP3    H126329   6.745   4.909   4.900  1.1546  1.4657  0.1132
 1638TIP3    H226330   6.631   4.864   4.990  0.6796 -0.2998 -1.3221
 1639TIP3   OH226331   3.339   1.290  13.044 -0.0795  0.1444  0.4640
 1639TIP3    H126332   3.433   1.289  13.025 -0.0032  0.4746  0.8004
 1639TIP3    H226333   3.307   1.205  13.013  0.6519 -0.7033  1.8965
 1640TIP3   OH226334   2.009   5.763   1.196 -0.3355 -0.3557 -0.4190
 1640TIP3    H126335   1.986   5.827   1.129 -1.7307 -0.0655  0.3166
 1640TIP3    H226336   1.947   5.692   1.184  0.0556 -0.7633 -0.0658
 1641TIP3   OH226337   5.902   0.382   0.170  0.3274 -0.5355 -0.0691
 1641TIP3    H126338   5.848   0.345   0.101  1.0907 -0.2979 -0.8069
 1641TIP3    H226339   5.989   0.346   0.155 -0.0888 -3.2731  2.8109
 1642TIP3   OH226340   3.771   6.181   1.423  0.6152 -0.7890  0.2271
 1642TIP3    H126341   3.761   6.096   1.465  4.2728 -1.3705  0.2345
 1642TIP3    H226342   3.793   6.240   1.495  1.6461 -0.6300 -0.2096
 1643TIP3   OH226343   2.945   1.816  15.855 -0.0219 -0.5652  0.3310
 1643TIP3    H126344   2.914   1.794  15.767  1.1127 -1.6791  0.1969
 1643TIP3    H226345   2.898   1.756  15.913 -0.2135 -0.3317  0.4212
 1644TIP3   OH226346   5.612   3.436  14.298  0.0971 -0.6887  0.3074
 1644TIP3    H126347   5.664   3.414  14.375  0.4665  1.6930  0.8177
 1644TIP3    H226348   5.596   3.352  14.255  2.7990 -1.7286  1.1045
 1645TIP3   OH226349   3.169   1.412  11.166  0.2484  0.0518 -0.1726
 1645TIP3    H126350   3.168   1.451  11.079  2.5829 -0.5040 -0.4958
 1645TIP3    H226351   3.254   1.434  11.202 -0.4679 -0.1710  1.7964
 1646TIP3   OH226352   2.608   3.059  12.011  0.2330 -0.2505  0.0088
 1646TIP3    H126353   2.619   3.153  11.996 -2.4666 -0.0619 -1.2307
 1646TIP3    H226354   2.684   3.019  11.968  1.9156  1.3346  1.3193
 1647TIP3   OH226355   5.927   2.517  14.431  0.5947  0.5542  0.0751
 1647TIP3    H126356   5.925   2.433  14.476 -0.4353  0.6019  0.1242
 1647TIP3    H226357   6.013   2.519  14.388  1.2548  0.1441  1.3287
 1648TIP3   OH226358   5.598   4.378  13.647  0.2291 -0.3600 -0.5486
 1648TIP3    H126359   5.557   4.308  13.699  0.6869  0.9092  1.6621
 1648TIP3    H226360   5.541   4.389  13.572 -2.0506 -0.4596  1.0650
 1649TIP3   OH226361   5.913   0.870  14.846 -0.0798 -0.2429  0.7094
 1649TIP3    H126362   5.952   0.785  14.826 -0.7917 -0.1684 -1.1575
 1649TIP3    H226363   5.967   0.933  14.798 -1.9536 -0.0693 -1.3131
 1650TIP3   OH226364   0.292   3.296   2.337 -0.2769  0.1732 -0.0701
 1650TIP3    H126365   0.364   3.321   2.278 -0.3695  1.0393  0.1775
 1650TIP3    H226366   0.336   3.267   2.416 -0.1945  1.0067  0.1992
 1651TIP3   OH226367   1.012   1.125  13.321  0.0240  0.2272 -0.3958
 1651TIP3    H126368   1.022   1.135  13.227 -1.3027  0.8935 -0.4878
 1651TIP3    H226369   1.036   1.211  13.357  0.6796 -0.0710 -0.1023
 1652TIP3   OH226370   1.728   4.379   1.276 -0.1372  0.0203 -0.7056
 1652TIP3    H126371   1.688   4.445   1.220 -0.0449  0.1155 -0.6603
 1652TIP3    H226372   1.769   4.429   1.346  0.7687 -0.0191 -1.1938
 1653TIP3   OH226373   0.720   6.421   2.516 -0.1599 -0.0738 -0.0556
 1653TIP3    H126374   0.790   6.404   2.452  0.1435 -1.0381  0.5094
 1653TIP3    H226375   0.657   6.475   2.469  1.3458  1.5146 -0.3400
 1654TIP3   OH226376   4.235   3.726   4.438 -0.3915  0.0842  0.0501
 1654TIP3    H126377   4.309   3.785   4.426 -0.0201 -0.5593 -0.9039
 1654TIP3    H226378   4.263   3.665   4.506 -0.5521  0.6414  0.6216
 1655TIP3   OH226379   4.523   2.601   4.482 -0.5858  0.3484 -0.1699
 1655TIP3    H126380   4.561   2.642   4.404  0.3845 -0.2071 -0.0158
 1655TIP3    H226381   4.437   2.641   4.492  0.4848  2.7046  0.2486
 1656TIP3   OH226382   0.780   3.478  12.238  0.1570  0.0552 -0.1888
 1656TIP3    H126383   0.729   3.558  12.245  0.3237  0.3670 -2.0093
 1656TIP3    H226384   0.831   3.474  12.319 -2.5529 -0.1890  1.6351
 1657TIP3   OH226385   5.426   0.258  13.021 -0.0772  0.8249  0.3945
 1657TIP3    H126386   5.517   0.283  13.036  0.3065  0.3295 -1.0170
 1657TIP3    H226387   5.387   0.258  13.109  1.1590  1.4671  0.9699
 1658TIP3   OH226388   5.499   4.389  14.751 -0.0777 -0.7430 -0.1678
 1658TIP3    H126389   5.528   4.480  14.765 -1.3886 -0.3471  0.1546
 1658TIP3    H226390   5.543   4.362  14.671  1.0213 -0.1336  0.1972
 1659TIP3   OH226391   1.765   2.952   1.775 -0.2758 -0.0654  0.2644
 1659TIP3    H126392   1.718   2.976   1.696  1.5417  0.6117 -0.6662
 1659TIP3    H226393   1.759   2.856   1.778  1.2154 -0.2792 -1.7743
 1660TIP3   OH226394   3.016   0.626   4.254 -0.7699  0.4386  0.0942
 1660TIP3    H126395   3.097   0.581   4.277  0.5407  1.7671 -1.6164
 1660TIP3    H226396   3.040   0.719   4.250 -3.0434  1.2147  2.1539
 1661TIP3   OH226397   5.658   0.802   1.740  0.2353 -0.8265  0.3795
 1661TIP3    H126398   5.636   0.830   1.829 -0.2941  1.1037 -0.3173
 1661TIP3    H226399   5.713   0.872   1.706 -2.5883  0.3944 -2.0547
 1662TIP3   OH226400   4.296   2.376  12.016  0.1869 -0.2736  0.0266
 1662TIP3    H126401   4.364   2.409  12.075 -0.2901  0.0614  0.3948
 1662TIP3    H226402   4.324   2.404  11.929  0.2010  0.4134  0.2481
 1663TIP3   OH226403   1.242   0.809   3.645 -0.5248  0.1836  0.6577
 1663TIP3    H126404   1.295   0.864   3.588 -1.1723 -2.2571 -2.6066
 1663TIP3    H226405   1.302   0.742   3.677 -0.9082 -0.7535 -0.4955
 1664TIP3   OH226406   3.532   6.778   3.453  0.5356 -0.2341  0.5197
 1664TIP3    H126407   3.613   6.818   3.421  1.6440 -3.6048 -1.4042
 1664TIP3    H226408   3.463   6.815   3.397  1.6714 -1.7282 -2.0311
 1665TIP3   OH226409   1.070   4.405  16.706  0.0402  0.1450 -0.4071
 1665TIP3    H126410   1.123   4.325  16.711 -0.7778 -0.4215 -0.6255
 1665TIP3    H226411   1.098   4.456  16.782 -0.7079 -1.1711  0.8020
 1666TIP3   OH226412   1.782   6.016  15.518  0.0693  0.2437 -0.3960
 1666TIP3    H126413   1.779   6.066  15.436  0.7472  0.0599 -0.5413
 1666TIP3    H226414   1.872   6.028  15.549  0.4836 -1.5018 -0.8187
 1667TIP3   OH226415   1.717   5.991   6.323 -0.0705 -0.0487  0.2097
 1667TIP3    H126416   1.751   6.045   6.252  0.6443 -0.8963 -0.1086
 1667TIP3    H226417   1.682   6.054   6.387  0.1804  0.7542 -0.4320
 1668TIP3   OH226418   4.361   3.446  13.674  0.5002  0.3965  0.4389
 1668TIP3    H126419   4.373   3.430  13.768 -0.4068 -1.7351  0.2465
 1668TIP3    H226420   4.305   3.375  13.645 -1.3667  2.4119 -1.2611
 1669TIP3   OH226421   3.607   3.583   2.049  0.2852  0.6274 -0.3797
 1669TIP3    H126422   3.599   3.611   2.140  1.0812 -0.6802  0.1250
 1669TIP3    H226423   3.700   3.593   2.028 -0.0453  1.8166 -1.3738
 1670TIP3   OH226424   4.159   4.022  12.162 -0.0066  0.0807  0.1357
 1670TIP3    H126425   4.110   4.091  12.118  0.8147  1.4953  1.3246
 1670TIP3    H226426   4.158   4.048  12.255  0.5306 -1.3846  0.5706
 1671TIP3   OH226427   4.908   0.173  13.115 -0.2535 -0.5712  0.1235
 1671TIP3    H126428   4.858   0.244  13.075 -0.8086 -0.8032  0.3937
 1671TIP3    H226429   4.968   0.216  13.175  0.2844 -0.2479 -0.6355
 1672TIP3   OH226430   6.749   6.091  12.085  0.0076  0.0259  0.5667
 1672TIP3    H126431   6.838   6.072  12.054 -0.0275  0.5190  0.1610
 1672TIP3    H226432   6.757   6.096  12.180  0.8638  2.3652  0.4139
 1673TIP3   OH226433   2.217   0.017  16.054 -0.2939 -0.3153  0.1612
 1673TIP3    H126434   2.241  -0.042  15.983  1.7511 -0.2342  0.7237
 1673TIP3    H226435   2.292   0.016  16.113 -1.0956  1.1876  1.2888
 1674TIP3   OH226436   1.450   2.047  16.931  0.4028  0.1093 -0.3738
 1674TIP3    H126437   1.412   1.968  16.892 -0.2418  0.4891 -0.5328
 1674TIP3    H226438   1.417   2.119  16.877 -0.1426  0.6083  0.5900
 1675TIP3   OH226439   6.640   1.778   5.309 -0.1881 -0.6279 -0.0665
 1675TIP3    H126440   6.657   1.684   5.297 -2.9485 -1.1897 -0.1769
 1675TIP3    H226441   6.604   1.785   5.397  2.5161  0.8055  1.0282
 1676TIP3   OH226442   4.218   0.568  11.983 -0.0343  0.0454  0.6381
 1676TIP3    H126443   4.272   0.616  12.045  0.7290 -0.0833  0.0836
 1676TIP3    H226444   4.233   0.611  11.899 -0.0863 -0.5590  0.3115
 1677TIP3   OH226445   4.103   0.117   6.021  0.0458  0.4384  0.1943
 1677TIP3    H126446   4.032   0.182   6.015 -1.7094 -1.2143  1.5919
 1677TIP3    H226447   4.124   0.115   6.115  1.3175  0.2155 -0.0837
 1678TIP3   OH226448   6.071   1.897   0.030 -0.2279 -0.3282  0.3384
 1678TIP3    H126449   6.013   1.971   0.011  0.0702 -0.5732 -1.6642
 1678TIP3    H226450   6.152   1.916  -0.016  1.2114 -0.2239  2.7130
 1679TIP3   OH226451   1.391   0.371   6.546  0.3703 -0.0682  0.0375
 1679TIP3    H126452   1.454   0.435   6.512  0.4453 -0.2422 -0.1487
 1679TIP3    H226453   1.309   0.391   6.500  0.9823 -1.6791 -1.8861
 1680TIP3   OH226454   4.299   6.672   1.566 -0.1110 -0.4455 -0.4309
 1680TIP3    H126455   4.343   6.756   1.551  1.0694 -0.8172  0.7684
 1680TIP3    H226456   4.234   6.666   1.496  0.3312  1.0969 -1.0088
 1681TIP3   OH226457   3.838   5.126   0.458 -0.0794  0.2011 -0.3628
 1681TIP3    H126458   3.834   5.030   0.455 -2.6759  0.2321 -0.0862
 1681TIP3    H226459   3.927   5.147   0.429 -0.0910 -2.2062 -2.5740
 1682TIP3   OH226460   1.229   1.965   2.983 -0.1409 -0.3891 -0.5139
 1682TIP3    H126461   1.159   2.030   2.985 -0.3021 -0.3826 -3.1434
 1682TIP3    H226462   1.307   2.013   2.955  0.0438 -1.0723 -1.1955
 1683TIP3   OH226463   6.723   2.177  15.449  0.1044  0.7120  0.0739
 1683TIP3    H126464   6.731   2.098  15.501  1.0208  0.7081 -0.0573
 1683TIP3    H226465   6.801   2.178  15.394  1.1569  2.6796  1.4462
 1684TIP3   OH226466   6.291   5.566   1.580 -0.0263  0.3178 -0.4068
 1684TIP3    H126467   6.358   5.607   1.636 -0.3999  2.2255 -1.2966
 1684TIP3    H226468   6.318   5.474   1.575  2.6098  1.0352 -0.8307
 1685TIP3   OH226469   4.712   5.155   4.884  0.3466 -0.4791  0.0961
 1685TIP3    H126470   4.639   5.107   4.845  0.0418  0.4075 -0.4718
 1685TIP3    H226471   4.790   5.110   4.853  0.0793 -0.3311 -0.8373
 1686TIP3   OH226472   3.720   5.092   5.843  0.8314 -0.7411 -0.4787
 1686TIP3    H126473   3.801   5.096   5.894 -0.4243  0.0840  1.5641
 1686TIP3    H226474   3.701   5.184   5.821  1.1275 -1.0461 -2.1402
 1687TIP3   OH226475   1.773   4.154  11.905  0.1032  0.1109  0.0367
 1687TIP3    H126476   1.815   4.123  11.985 -0.9549 -1.2538  0.0900
 1687TIP3    H226477   1.744   4.075  11.860 -0.6755  0.9224 -0.9557
 1688TIP3   OH226478   1.896   2.785  16.203  0.6588 -0.0993  0.6510
 1688TIP3    H126479   1.893   2.877  16.226 -1.5595 -0.2983  1.4438
 1688TIP3    H226480   1.969   2.777  16.143  0.9023  2.1597  0.5772
 1689TIP3   OH226481   6.797   3.347   2.387 -0.1904 -0.5855  0.6037
 1689TIP3    H126482   6.764   3.263   2.419  1.4893 -1.3932  0.3380
 1689TIP3    H226483   6.892   3.341   2.398 -0.0464  1.4119  0.8619
 1690TIP3   OH226484   2.313   0.964  16.845 -0.0420 -0.0391 -0.0172
 1690TIP3    H126485   2.408   0.967  16.833 -0.2238  0.3409 -1.5250
 1690TIP3    H226486   2.299   1.005  16.931  1.1000  0.6906 -0.1499
 1691TIP3   OH226487   4.537   6.650  15.101  0.0682  0.0396 -0.3309
 1691TIP3    H126488   4.586   6.633  15.021 -2.3472 -0.5646 -1.7769
 1691TIP3    H226489   4.474   6.577  15.107 -1.5179  1.4099  0.6853
 1692TIP3   OH226490   4.913   1.849  16.149 -0.2278  0.2612 -0.0810
 1692TIP3    H126491   4.982   1.797  16.191 -1.3818 -1.5669 -0.3245
 1692TIP3    H226492   4.958   1.926  16.115  1.6042 -0.6407  0.1716
 1693TIP3   OH226493   5.121   5.894   6.398 -0.3880 -0.1173 -0.1661
 1693TIP3    H126494   5.146   5.804   6.380 -0.9746 -0.4387  0.5512
 1693TIP3    H226495   5.194   5.930   6.448 -0.7691 -0.6577  0.8138
 1694TIP3   OH226496   4.835   1.349  13.917 -0.3353 -0.1391  0.1911
 1694TIP3    H126497   4.912   1.389  13.957 -2.1250  2.4627  1.2977
 1694TIP3    H226498   4.810   1.409  13.846 -0.4841 -1.7706 -1.2096
 1695TIP3   OH226499   0.228   4.205  14.760  0.3232 -0.2554 -0.1086
 1695TIP3    H126500   0.302   4.262  14.739 -0.6144  2.1257  2.5525
 1695TIP3    H226501   0.263   4.143  14.824  0.1424  0.7100  0.9577
 1696TIP3   OH226502   3.636   0.151   1.180 -0.2434  0.4080  0.4409
 1696TIP3    H126503   3.613   0.225   1.123  2.9946  0.3425 -1.1360
 1696TIP3    H226504   3.584   0.078   1.145  0.4653  0.7475 -1.4709
 1697TIP3   OH226505   1.031   2.091   3.748  0.1029  0.9417 -0.7377
 1697TIP3    H126506   1.048   2.118   3.658  1.1169 -0.1134 -0.8902
 1697TIP3    H226507   0.936   2.084   3.754  0.0487  0.5144 -1.8850
 1698TIP3   OH226508   0.124   1.010  13.120 -0.1969  0.1991  0.7839
 1698TIP3    H126509   0.135   1.026  13.214  1.4061 -0.0937  0.6723
 1698TIP3    H226510   0.187   0.941  13.100  0.5031  1.2408 -0.7822
 1699TIP3   OH226511   5.274   0.999  15.000  0.6647  0.3164 -0.9250
 1699TIP3    H126512   5.203   1.027  15.057  1.2101 -0.0717 -0.0450
 1699TIP3    H226513   5.306   0.917  15.039 -0.4385 -1.2178 -3.0204
 1700TIP3   OH226514   5.616   2.983   1.250  0.1924 -0.0737 -0.3113
 1700TIP3    H126515   5.668   3.063   1.251 -0.1335  0.1694 -1.6441
 1700TIP3    H226516   5.528   3.011   1.276  0.0902 -0.0063 -0.7280
 1701TIP3   OH226517   6.430   1.613  16.786 -0.7399 -0.0772  0.0456
 1701TIP3    H126518   6.520   1.645  16.796 -1.1088  0.8281  0.5674
 1701TIP3    H226519   6.420   1.598  16.692 -0.0551 -0.1659 -0.0169
 1702TIP3   OH226520   3.999   0.863   4.760  0.1577 -0.1115  0.2150
 1702TIP3    H126521   4.064   0.920   4.718 -1.0580  1.2176  0.0641
 1702TIP3    H226522   3.951   0.823   4.687 -1.1290  1.2288  0.2893
 1703TIP3   OH226523   1.440   5.367  13.299 -0.3908 -0.1842 -0.4645
 1703TIP3    H126524   1.350   5.339  13.316  0.1534 -0.1843  3.0047
 1703TIP3    H226525   1.462   5.425  13.371  2.9319 -1.4980 -0.2360
 1704TIP3   OH226526   6.236   4.604  16.511  0.0663 -0.2829 -0.0750
 1704TIP3    H126527   6.225   4.547  16.588 -0.3768 -1.6586 -1.1155
 1704TIP3    H226528   6.291   4.553  16.452 -0.6825  0.2106 -1.2127
 1705TIP3   OH226529   0.751   5.868  13.409 -0.3553 -0.7325  0.4602
 1705TIP3    H126530   0.822   5.882  13.472  0.1448 -0.2925 -0.1906
 1705TIP3    H226531   0.784   5.800  13.350 -1.0330 -1.5290  0.9722
 1706TIP3   OH226532   1.691   1.167   0.206 -0.2248  0.6753 -0.0131
 1706TIP3    H126533   1.770   1.120   0.233  0.6717  1.7454 -0.6796
 1706TIP3    H226534   1.622   1.134   0.264  0.4082 -1.2472 -0.2872
 1707TIP3   OH226535   0.457   5.835  10.995  0.2919 -0.0774 -0.2361
 1707TIP3    H126536   0.394   5.864  11.061  1.4955  0.8893  0.5565
 1707TIP3    H226537   0.442   5.892  10.920 -1.3042 -1.3967 -0.9668
 1708TIP3   OH226538   6.567   1.358   1.437  0.0876 -0.7885 -0.3295
 1708TIP3    H126539   6.508   1.289   1.405  0.9245 -1.0749 -1.2839
 1708TIP3    H226540   6.602   1.398   1.358 -1.1471  1.4564  0.1919
 1709TIP3   OH226541   0.067   3.052  16.515  0.4086 -0.3971 -0.0191
 1709TIP3    H126542   0.088   3.102  16.594  0.6544  0.3122 -0.5160
 1709TIP3    H226543  -0.028   3.042  16.517  0.4853 -1.0152  0.7299
 1710TIP3   OH226544   3.494   5.005  13.000  0.3826  0.0398 -0.5992
 1710TIP3    H126545   3.412   4.975  12.962 -0.1688  1.1514 -0.3089
 1710TIP3    H226546   3.504   4.953  13.080 -1.3104  1.5833  0.6837
 1711TIP3   OH226547   0.780   5.433  14.823  0.2027  0.0393 -0.1079
 1711TIP3    H126548   0.800   5.416  14.915  0.5863 -1.8080 -0.4862
 1711TIP3    H226549   0.859   5.473  14.788  0.2663  0.2136  0.2333
 1712TIP3   OH226550   0.477   3.677   0.390  0.0938  0.1597  0.1036
 1712TIP3    H126551   0.449   3.597   0.345  1.4808 -0.7633  0.7904
 1712TIP3    H226552   0.572   3.666   0.401  0.5086  2.3868 -0.6933
 1713TIP3   OH226553   2.251   4.259   4.930  0.1809  0.0836 -0.0321
 1713TIP3    H126554   2.257   4.355   4.929 -2.0089  0.2705 -0.9374
 1713TIP3    H226555   2.316   4.231   4.866 -0.1670  1.0848 -0.8589
 1714TIP3   OH226556   2.209   3.551   1.547  0.1603  0.4717 -0.6460
 1714TIP3    H126557   2.173   3.469   1.514 -2.1635  1.8658 -1.8253
 1714TIP3    H226558   2.140   3.586   1.604  1.0851  1.6322 -0.2030
 1715TIP3   OH226559   6.136   1.271  11.364 -0.1044  0.3590 -0.3766
 1715TIP3    H126560   6.189   1.263  11.285  1.2980 -0.0498  0.5442
 1715TIP3    H226561   6.073   1.200  11.358  1.3154 -0.9807 -0.2140
 1716TIP3   OH226562   2.946   1.529   1.645 -0.2860  0.2467 -0.2481
 1716TIP3    H126563   2.963   1.624   1.641  2.9087 -0.1381  1.3805
 1716TIP3    H226564   2.931   1.511   1.737 -0.9476 -0.8738 -0.5571
 1717TIP3   OH226565   3.609   5.100   2.150  0.0537  0.0938  0.5519
 1717TIP3    H126566   3.634   5.012   2.122 -0.6566  0.0703 -0.0312
 1717TIP3    H226567   3.519   5.110   2.120  0.1497  1.0486  0.5613
 1718TIP3   OH226568   2.662   1.975   2.959  0.2709 -0.3615  0.1525
 1718TIP3    H126569   2.577   1.944   2.928  0.4430  1.4439 -2.4685
 1718TIP3    H226570   2.656   2.070   2.951  1.5186  0.0335  2.9220
 1719TIP3   OH226571   2.203   2.001  16.092 -0.1314  0.4741  0.2198
 1719TIP3    H126572   2.132   2.024  16.152 -0.5715 -0.5641  0.1241
 1719TIP3    H226573   2.158   1.979  16.010  0.4035  1.1039 -0.2451
 1720TIP3   OH226574   1.350   2.342  11.736  0.1002  0.2725 -0.3484
 1720TIP3    H126575   1.286   2.302  11.677 -0.0475  0.1467 -0.1009
 1720TIP3    H226576   1.422   2.370  11.678 -0.8484  1.7955 -0.8440
 1721TIP3   OH226577   0.056   4.127  13.981 -0.4118  0.0546  0.1585
 1721TIP3    H126578   0.080   4.056  13.922  2.2462 -0.3947  1.6359
 1721TIP3    H226579  -0.034   4.106  14.008 -0.1418 -2.0479 -0.3990
 1722TIP3   OH226580   2.516   0.230   4.516  0.1807 -0.1758 -0.2493
 1722TIP3    H126581   2.438   0.269   4.554  1.0401  0.8413  0.5432
 1722TIP3    H226582   2.539   0.288   4.443  0.7282  0.0803  0.1201
 1723TIP3   OH226583   2.546   2.254  14.347 -0.1219 -0.2047 -0.1878
 1723TIP3    H126584   2.505   2.283  14.429  2.3810  0.9156  0.7645
 1723TIP3    H226585   2.599   2.178  14.372  0.9444  0.3641 -0.6639
 1724TIP3   OH226586   2.651   4.240   5.133  0.2988  0.2989 -0.0438
 1724TIP3    H126587   2.652   4.307   5.065 -0.9601 -1.7480 -2.2634
 1724TIP3    H226588   2.559   4.233   5.158  0.7397  1.0248  1.9910
 1725TIP3   OH226589   1.169   4.994   5.434  0.4691  0.1051  0.6420
 1725TIP3    H126590   1.239   4.989   5.499  1.9768  0.5427 -0.8624
 1725TIP3    H226591   1.137   5.084   5.440  2.6738  1.1225 -1.1479
 1726TIP3   OH226592   0.599   5.456   1.192  0.1151 -0.4884 -0.2199
 1726TIP3    H126593   0.686   5.445   1.229  0.2757  1.5403  0.1212
 1726TIP3    H226594   0.549   5.501   1.261 -0.9299 -0.7836 -0.7578
 1727TIP3   OH226595   2.405   2.660   2.030 -0.1334 -0.1081  0.7085
 1727TIP3    H126596   2.363   2.623   1.953  2.5385  1.7919 -1.8842
 1727TIP3    H226597   2.465   2.592   2.060  0.7856  0.0649 -0.6472
 1728TIP3   OH226598   3.288   4.676   0.252 -0.1527  0.2356  0.0394
 1728TIP3    H126599   3.265   4.721   0.333 -0.8224 -1.8873  1.1246
 1728TIP3    H226600   3.251   4.588   0.263  2.2067 -1.0199 -1.3529
 1729TIP3   OH226601   4.630   1.505  16.223 -0.1345 -0.1150  0.0945
 1729TIP3    H126602   4.561   1.571  16.207  0.0257  0.3479  1.2304
 1729TIP3    H226603   4.656   1.477  16.135 -0.3703  1.1706 -0.4173
 1730TIP3   OH226604   3.199   4.188   3.217  0.6693  0.2955  0.1741
 1730TIP3    H126605   3.286   4.151   3.229  0.3661 -1.1053 -1.4091
 1730TIP3    H226606   3.142   4.111   3.205 -0.3741  1.2033 -1.1048
 1731TIP3   OH226607   3.199   2.609   1.836  0.5982  0.6799  0.0442
 1731TIP3    H126608   3.286   2.600   1.875 -0.2664  0.0248  1.9466
 1731TIP3    H226609   3.167   2.520   1.825 -0.2070  0.9256  0.2781
 1732TIP3   OH226610   5.424   3.439   1.580  0.1924  0.4135 -0.6721
 1732TIP3    H126611   5.492   3.487   1.626  1.1930 -2.3100  0.9113
 1732TIP3    H226612   5.351   3.435   1.642 -0.3251  0.8163 -1.2366
 1733TIP3   OH226613   2.191   5.838   3.520  0.3411  0.5495  0.1294
 1733TIP3    H126614   2.166   5.914   3.468 -0.9227  0.4919  0.6011
 1733TIP3    H226615   2.228   5.874   3.600 -0.2494  0.6873  0.3497
 1734TIP3   OH226616   2.702   6.230   4.417  0.6233  0.2008  0.4521
 1734TIP3    H126617   2.686   6.235   4.511  3.0042  1.1782  0.8613
 1734TIP3    H226618   2.681   6.140   4.394 -0.5208  0.0953  1.7877
 1735TIP3   OH226619   6.581   5.875   2.259  0.7366 -0.4565  0.3362
 1735TIP3    H126620   6.665   5.915   2.282  0.5811  2.8558 -3.5731
 1735TIP3    H226621   6.518   5.945   2.267 -1.3448 -2.3052  1.1020
 1736TIP3   OH226622   1.556   0.929  11.422 -0.2697 -0.9322  0.3414
 1736TIP3    H126623   1.577   0.839  11.449 -2.5204 -1.0946  1.7731
 1736TIP3    H226624   1.529   0.973  11.503 -0.6156  0.6207 -0.5795
 1737TIP3   OH226625   3.302   1.629   3.793 -0.2337  0.1846 -0.1578
 1737TIP3    H126626   3.361   1.558   3.772 -2.0975 -1.2437 -0.8135
 1737TIP3    H226627   3.300   1.683   3.714  1.3376  1.1497  0.4109
 1738TIP3   OH226628   3.237   3.686  16.035 -0.1759  0.3882 -0.2147
 1738TIP3    H126629   3.230   3.781  16.031 -0.0770  0.3746 -0.7634
 1738TIP3    H226630   3.312   3.669  16.092  0.2792  0.6519 -0.7262
 1739TIP3   OH226631   6.566   1.875  16.034  0.1015 -0.3263  0.0405
 1739TIP3    H126632   6.566   1.910  15.945  0.0830 -2.1076 -0.7224
 1739TIP3    H226633   6.655   1.841  16.047  0.2255  0.2924  0.8687
 1740TIP3   OH226634   1.270   4.091  10.742 -0.0365 -0.3514 -0.4145
 1740TIP3    H126635   1.224   4.070  10.661 -1.9098  1.4489  0.0939
 1740TIP3    H226636   1.358   4.117  10.713 -0.1140 -1.4138 -1.6834
 1741TIP3   OH226637   1.128   6.638   6.100 -0.3333 -0.4427  0.0794
 1741TIP3    H126638   1.135   6.558   6.152  0.1061  0.3678  1.3174
 1741TIP3    H226639   1.205   6.637   6.044 -0.5712 -1.1017 -0.2509
 1742TIP3   OH226640   2.822   0.112  11.598  0.1004  0.7052  0.2258
 1742TIP3    H126641   2.798   0.020  11.588 -2.5827  1.3443  0.0167
 1742TIP3    H226642   2.897   0.124  11.539 -0.0435 -1.1303 -0.3835
 1743TIP3   OH226643   2.974   4.990   3.813 -0.0914  0.1642  0.2356
 1743TIP3    H126644   2.919   4.998   3.891  0.7373 -0.0044  0.8501
 1743TIP3    H226645   2.918   4.944   3.750 -1.4427  1.9570  0.0516
 1744TIP3   OH226646   5.509   1.607  16.792  0.6154 -0.7372 -0.2094
 1744TIP3    H126647   5.481   1.694  16.763  0.2459 -0.7828  0.0026
 1744TIP3    H226648   5.602   1.617  16.812  0.5109 -0.3201  0.0904
 1745TIP3   OH226649   2.018   4.312   1.221 -0.2033  0.0087  0.5184
 1745TIP3    H126650   1.930   4.345   1.239  0.3033  1.2117  0.9340
 1745TIP3    H226651   2.021   4.226   1.262 -1.3824 -0.3175 -0.0494
 1746TIP3   OH226652   4.581   1.180   0.452  0.0164 -0.2658 -0.0771
 1746TIP3    H126653   4.542   1.262   0.419 -0.2283  0.5880  2.1855
 1746TIP3    H226654   4.675   1.195   0.448  0.0352 -0.6034 -1.3493
 1747TIP3   OH226655   5.138   0.397  13.182  0.1022  0.2169 -0.1993
 1747TIP3    H126656   5.212   0.354  13.225 -1.0383 -1.9868 -0.2777
 1747TIP3    H226657   5.118   0.472  13.237  1.7348  0.2721  0.3681
 1748TIP3   OH226658   2.426   1.450   5.559  0.0994 -0.2820  0.1149
 1748TIP3    H126659   2.437   1.504   5.638 -1.0331  0.2302 -0.0588
 1748TIP3    H226660   2.460   1.364   5.584  3.0770  0.7643  0.0433
 1749TIP3   OH226661   5.070   2.824   1.825  0.1835  0.4996 -0.2606
 1749TIP3    H126662   5.163   2.813   1.805  0.2387 -0.6328  0.5055
 1749TIP3    H226663   5.058   2.775   1.907 -1.0339  0.8575 -0.2119
 1750TIP3   OH226664   1.575   4.276  13.730  0.1125 -0.1726 -0.2074
 1750TIP3    H126665   1.660   4.319  13.728 -0.8399  1.9212  0.7246
 1750TIP3    H226666   1.544   4.288  13.820 -1.3514 -0.4892 -0.6357
 1751TIP3   OH226667   4.517   1.166   5.369  0.4123 -0.6522 -0.3481
 1751TIP3    H126668   4.583   1.224   5.329 -0.7212  0.2234 -0.9937
 1751TIP3    H226669   4.449   1.158   5.303 -0.7555 -0.4929  0.8065
 1752TIP3   OH226670   3.282   5.972  13.394  0.3290 -0.4967 -0.2373
 1752TIP3    H126671   3.328   5.894  13.425 -0.0441 -0.5060  0.2990
 1752TIP3    H226672   3.193   5.962  13.427 -0.4459 -1.1285 -2.3944
 1753TIP3   OH226673   1.884   2.125   0.642 -0.2479 -0.2500  0.2467
 1753TIP3    H126674   1.909   2.203   0.691  0.0062 -1.1858  1.6474
 1753TIP3    H226675   1.922   2.138   0.555  1.1717  0.4515  0.9457
 1754TIP3   OH226676   5.100   4.363   1.051  0.1972  0.3541  0.1680
 1754TIP3    H126677   5.113   4.436   1.112 -0.0400 -1.1843  2.2115
 1754TIP3    H226678   5.184   4.318   1.049  0.4112  0.7932 -1.2546
 1755TIP3   OH226679   4.709   5.801   2.898  0.7801 -0.1596  0.1231
 1755TIP3    H126680   4.661   5.817   2.979  0.5024 -1.4657  0.2425
 1755TIP3    H226681   4.735   5.888   2.867 -3.5036  0.9232 -1.1036
 1756TIP3   OH226682   6.694   3.550  11.078  0.1231  0.1241  0.1030
 1756TIP3    H126683   6.774   3.509  11.112  0.6112  1.2869  0.3854
 1756TIP3    H226684   6.724   3.629  11.033 -0.9412  1.0906  1.0371
 1757TIP3   OH226685   2.546   5.875  16.026  0.3145 -0.4896 -0.4159
 1757TIP3    H126686   2.469   5.893  15.972 -2.0324 -2.8305  1.8401
 1757TIP3    H226687   2.551   5.949  16.086  0.8750  0.4640 -1.6058
 1758TIP3   OH226688   6.171   5.985   5.291 -0.1605  0.2006 -0.2646
 1758TIP3    H126689   6.119   6.000   5.370 -0.4929 -0.5613 -0.3274
 1758TIP3    H226690   6.232   5.914   5.316  0.9737  1.1836 -0.1374
 1759TIP3   OH226691   4.641   6.461  15.771  0.6770 -0.1842 -0.4442
 1759TIP3    H126692   4.655   6.485  15.862  1.5442 -2.5457  0.0938
 1759TIP3    H226693   4.546   6.461  15.761  0.4988 -1.5366  0.9553
 1760TIP3   OH226694   6.255   2.774  13.618  0.1986  0.2595  0.3753
 1760TIP3    H126695   6.350   2.786  13.610  0.3990 -1.8440 -1.5427
 1760TIP3    H226696   6.219   2.862  13.610  1.9485  0.9980  0.0525
 1761TIP3   OH226697   1.376   0.325   3.191  0.6407 -0.0433 -0.3089
 1761TIP3    H126698   1.463   0.328   3.231 -0.0052 -0.6582  1.2131
 1761TIP3    H226699   1.316   0.326   3.265 -0.6575  0.1957 -1.3378
 1762TIP3   OH226700   1.906   4.299   1.632  0.0447 -0.6158 -0.1991
 1762TIP3    H126701   1.910   4.252   1.716  0.3023 -1.4079 -0.6442
 1762TIP3    H226702   1.997   4.321   1.612 -0.1076  0.4472  0.1960
 1763TIP3   OH226703   0.030   2.612   1.725  0.3922  0.1134  0.4060
 1763TIP3    H126704   0.123   2.607   1.744  0.2131 -0.3008  1.2533
 1763TIP3    H226705  -0.006   2.530   1.759 -0.1901 -0.0124 -0.4773
 1764TIP3   OH226706   4.481   5.634  14.443  0.6517 -0.8695  0.1469
 1764TIP3    H126707   4.470   5.722  14.479  0.1129 -0.0289 -1.9148
 1764TIP3    H226708   4.403   5.587  14.470  0.1406 -0.1906 -0.1285
 1765TIP3   OH226709   6.056   2.562   3.157 -0.0103 -0.0453 -0.0855
 1765TIP3    H126710   5.965   2.577   3.185 -0.2604 -2.4218  0.6052
 1765TIP3    H226711   6.090   2.500   3.221  2.3909  1.3809  0.1114
 1766TIP3   OH226712   0.379   5.274   0.899  0.4726 -0.1722  0.1460
 1766TIP3    H126713   0.305   5.221   0.927  2.2960 -1.7148  2.4764
 1766TIP3    H226714   0.370   5.355   0.949  0.1166 -0.1610  0.0668
 1767TIP3   OH226715   2.964   2.138   4.433  0.0942 -0.0597 -0.1167
 1767TIP3    H126716   2.978   2.090   4.352  0.3127 -0.1218 -0.0418
 1767TIP3    H226717   3.047   2.133   4.479  0.4639  1.3124 -0.5852
 1768TIP3   OH226718   0.144   6.495   0.359  0.4985  0.3112 -0.2697
 1768TIP3    H126719   0.218   6.438   0.381  0.6286  0.2449 -0.8759
 1768TIP3    H226720   0.175   6.583   0.380  0.4717  0.2109  0.2054
 1769TIP3   OH226721   5.752   5.219  11.246  0.2741 -0.2363 -0.1373
 1769TIP3    H126722   5.807   5.184  11.317  0.7743  0.9481  0.0822
 1769TIP3    H226723   5.807   5.284  11.204 -0.0022 -0.9662 -1.6744
 1770TIP3   OH226724   5.743   0.379  12.205 -0.2059 -0.2030  0.2866
 1770TIP3    H126725   5.717   0.322  12.278  0.3497  1.2698  1.7011
 1770TIP3    H226726   5.679   0.361  12.137 -0.9621 -1.3884  1.2646
 1771TIP3   OH226727   3.980   6.405  13.967  0.0577  0.1509  0.2897
 1771TIP3    H126728   3.948   6.384  13.879  0.8144  2.7687 -0.6969
 1771TIP3    H226729   4.063   6.358  13.975  0.4957  0.7009 -0.8371
 1772TIP3   OH226730   6.323   1.589   6.091 -0.3648 -0.5447 -0.4474
 1772TIP3    H126731   6.314   1.677   6.130  1.8351 -0.0281 -0.9918
 1772TIP3    H226732   6.278   1.531   6.153  0.8403  0.5736  1.5790
 1773TIP3   OH226733   2.927   0.500  12.847  0.3442  0.0426  0.2009
 1773TIP3    H126734   2.945   0.579  12.898  0.3436  0.0188  0.2377
 1773TIP3    H226735   2.919   0.532  12.757  0.7176  0.0329  0.1614
 1774TIP3   OH226736   5.030   4.189   4.643 -0.0394 -0.2433  0.0124
 1774TIP3    H126737   4.957   4.147   4.597 -0.7615  0.4727  0.4741
 1774TIP3    H226738   5.079   4.117   4.683 -1.2480 -0.6683  0.7722
 1775TIP3   OH226739   5.214   6.567  13.817  0.2047  0.2968  0.4290
 1775TIP3    H126740   5.296   6.606  13.847  0.3248 -0.8755  1.7243
 1775TIP3    H226741   5.190   6.506  13.887 -1.0261 -0.4254 -0.5925
 1776TIP3   OH226742   2.125   1.217   1.314 -0.2438  0.0444 -0.3257
 1776TIP3    H126743   2.070   1.290   1.342  0.2989  0.1219  0.5952
 1776TIP3    H226744   2.176   1.252   1.242 -0.7386  0.2501 -0.5826
 1777TIP3   OH226745   5.928   5.814   6.005  0.0098 -0.0900 -0.2001
 1777TIP3    H126746   5.916   5.786   5.914  0.4587  0.4528 -0.4358
 1777TIP3    H226747   5.884   5.747   6.057  0.2902 -0.7516 -0.7900
 1778TIP3   OH226748   1.638   3.322  12.028 -0.2366 -0.2810  0.2930
 1778TIP3    H126749   1.640   3.265  11.951 -0.1197 -1.3044  1.0460
 1778TIP3    H226750   1.548   3.317  12.059 -0.8850  1.8556 -1.0100
 1779TIP3   OH226751   2.197   0.443  14.726  0.4351 -0.1945 -0.1606
 1779TIP3    H126752   2.114   0.428  14.681 -0.0209  0.3309  0.4841
 1779TIP3    H226753   2.240   0.357  14.726 -0.2873 -0.5637 -0.1574
 1780TIP3   OH226754   6.398   5.509  14.038 -0.6174  0.2572 -0.9022
 1780TIP3    H126755   6.432   5.548  14.118 -0.1935  0.3879 -1.1429
 1780TIP3    H226756   6.468   5.521  13.974  1.1846 -4.1028 -0.1137
 1781TIP3   OH226757   6.382   3.012  12.491  0.2942 -0.4548 -0.5233
 1781TIP3    H126758   6.291   2.982  12.488  0.1640 -0.0003 -1.2907
 1781TIP3    H226759   6.381   3.097  12.447  1.3842 -1.2474 -2.2130
 1782TIP3   OH226760   1.435   2.510  12.135 -0.1361  0.0402 -0.2710
 1782TIP3    H126761   1.497   2.544  12.199 -0.2578  0.4871 -0.3866
 1782TIP3    H226762   1.484   2.445  12.085  0.2065  0.3053 -0.2857
 1783TIP3   OH226763   0.529   5.089   1.931 -0.5418  0.4207  0.1136
 1783TIP3    H126764   0.447   5.123   1.967  0.5242  0.7112  2.4583
 1783TIP3    H226765   0.585   5.075   2.007  1.2081 -0.8737 -1.3113
 1784TIP3   OH226766   4.365   4.843   4.696  0.0181 -0.0211 -0.2943
 1784TIP3    H126767   4.333   4.754   4.713 -0.2360 -0.0959 -1.1395
 1784TIP3    H226768   4.288   4.890   4.663  0.4516  0.1697 -1.0470
 1785TIP3   OH226769   5.393   3.796   2.867  0.3159 -0.5288  0.2540
 1785TIP3    H126770   5.310   3.767   2.831 -0.0239 -0.5198  1.0162
 1785TIP3    H226771   5.427   3.858   2.803 -1.3948  1.3043  1.0290
 1786TIP3   OH226772   0.196   0.183   5.896  0.0737 -0.6317  0.7167
 1786TIP3    H126773   0.266   0.128   5.932 -0.1287 -1.2680  0.1456
 1786TIP3    H226774   0.123   0.123   5.883 -0.0858 -0.2678 -0.0924
 1787TIP3   OH226775   3.268   1.397   2.492  0.3829 -0.2135 -0.3997
 1787TIP3    H126776   3.341   1.396   2.430 -1.2961  0.1111 -2.5170
 1787TIP3    H226777   3.243   1.489   2.498 -1.2623 -0.5502 -1.5397
 1788TIP3   OH226778   4.922   5.411  11.028 -0.2245 -0.0916 -0.4098
 1788TIP3    H126779   4.857   5.344  11.049  0.7600 -0.6234  1.1781
 1788TIP3    H226780   4.985   5.367  10.971 -0.0366 -0.2805 -0.0612
 1789TIP3   OH226781   2.016   4.617  12.405 -0.2738 -0.0644 -0.5563
 1789TIP3    H126782   2.075   4.605  12.479 -2.0844  1.5407  1.2665
 1789TIP3    H226783   1.958   4.542  12.408  1.6152 -1.7583 -2.4785
 1790TIP3   OH226784   3.054   4.052  16.507 -0.0637 -0.1510 -0.7853
 1790TIP3    H126785   3.108   4.033  16.584 -1.3553  0.2308  0.2545
 1790TIP3    H226786   3.117   4.077  16.439  1.2870 -2.6082 -0.5567
 1791TIP3   OH226787   2.844   6.708   1.768 -0.3638 -0.4685 -0.1245
 1791TIP3    H126788   2.923   6.761   1.756 -1.9409  1.7308 -1.7376
 1791TIP3    H226789   2.786   6.763   1.820 -0.1444 -2.9706  3.0974
 1792TIP3   OH226790   3.010   5.943   0.818 -0.3279  0.5607  0.1333
 1792TIP3    H126791   3.073   5.963   0.887  0.2562 -0.8944  0.0676
 1792TIP3    H226792   2.996   6.026   0.773  1.3700  0.9726  0.3084
 1793TIP3   OH226793   5.500   3.384   0.998  0.2365 -0.0262 -0.2607
 1793TIP3    H126794   5.540   3.437   0.930 -0.1127  0.7613  0.1414
 1793TIP3    H226795   5.449   3.445   1.051 -3.1503 -1.1802 -1.8648
 1794TIP3   OH226796   6.445   0.593   5.270 -0.4102 -0.0935  0.4305
 1794TIP3    H126797   6.383   0.608   5.342 -2.6819  0.7867 -1.5505
 1794TIP3    H226798   6.490   0.677   5.260 -2.8059  1.0756 -1.4671
 1795TIP3   OH226799   0.021   2.755  12.931 -0.1532  0.5100 -0.5813
 1795TIP3    H126800  -0.027   2.700  12.868 -0.8961 -0.4808  0.7811
 1795TIP3    H226801  -0.029   2.837  12.934 -0.7210  0.1714 -0.5393
 1796TIP3   OH226802   5.180   2.492   0.184 -0.0170 -0.0465  0.5968
 1796TIP3    H126803   5.273   2.498   0.206 -0.3840  2.0304  1.8536
 1796TIP3    H226804   5.178   2.495   0.089  1.2044 -0.3587  0.5428
 1797TIP3   OH226805   6.022   5.611  15.559 -0.0433 -0.4066 -0.2609
 1797TIP3    H126806   6.109   5.611  15.600  0.2389  0.1683 -0.8432
 1797TIP3    H226807   6.029   5.675  15.488 -0.4999 -1.4602 -1.2799
 1798TIP3   OH226808   1.620   0.184   1.619  0.0348  0.5385  0.2135
 1798TIP3    H126809   1.527   0.195   1.635  0.2595  1.7766  0.7593
 1798TIP3    H226810   1.630   0.200   1.525 -0.0985  2.0759  0.4313
 1799TIP3   OH226811   0.241   1.527  16.245  0.2987  0.0665 -0.0371
 1799TIP3    H126812   0.150   1.550  16.225  0.4851  1.7526  0.8689
 1799TIP3    H226813   0.284   1.524  16.159 -0.6646 -1.1349 -0.5064
 1800TIP3   OH226814   3.530   6.147  13.940 -0.4446 -0.4230  0.5549
 1800TIP3    H126815   3.446   6.172  13.902 -0.4267 -0.5738  0.4111
 1800TIP3    H226816   3.515   6.150  14.035 -0.4693  0.0228  0.5397
 1801TIP3   OH226817   4.712   4.203  16.894 -0.0430 -0.3760 -0.0091
 1801TIP3    H126818   4.733   4.226  16.985  1.0445  0.3347 -0.4170
 1801TIP3    H226819   4.651   4.271  16.865  1.8905  1.1700 -0.6945
 1802TIP3   OH226820   3.203   4.153   6.250  0.0616 -0.3965  0.3414
 1802TIP3    H126821   3.212   4.221   6.182 -0.7581 -1.0684 -0.4722
 1802TIP3    H226822   3.255   4.185   6.323 -0.8592  1.4548  0.2488
 1803TIP3   OH226823   3.990   5.641  11.402  0.6027  0.6699  0.1661
 1803TIP3    H126824   3.984   5.604  11.314  0.1869  1.0012  0.0474
 1803TIP3    H226825   3.930   5.715  11.400  0.8982  0.9268  0.6072
 1804TIP3   OH226826   1.523   3.300  15.415 -0.2604 -0.5624 -0.3034
 1804TIP3    H126827   1.523   3.322  15.508  0.7417 -2.3384  0.1582
 1804TIP3    H226828   1.615   3.298  15.390 -0.4612 -1.2378 -1.0385
 1805TIP3   OH226829   0.393   3.449   0.271  0.4498 -0.1823  0.8945
 1805TIP3    H126830   0.299   3.446   0.259  0.3491  0.8040  1.3454
 1805TIP3    H226831   0.426   3.375   0.220 -0.6189 -1.0035  1.3641
 1806TIP3   OH226832   0.303   1.741   2.858  0.5640 -0.2626 -0.4955
 1806TIP3    H126833   0.284   1.688   2.781  1.4392  1.2616 -1.7893
 1806TIP3    H226834   0.217   1.760   2.896  0.0200  0.0451 -1.8371
 1807TIP3   OH226835   4.667   2.097   2.069 -0.5641  0.0615  0.7457
 1807TIP3    H126836   4.598   2.095   2.003 -0.2844  1.8977  0.3656
 1807TIP3    H226837   4.739   2.048   2.029 -0.4632  0.9912 -0.2540
 1808TIP3   OH226838   1.216   1.072  12.831  0.0052 -0.4379 -0.8104
 1808TIP3    H126839   1.133   1.048  12.791 -0.7176 -0.4234  0.6297
 1808TIP3    H226840   1.234   1.001  12.894 -0.3995  0.9787  0.9734
 1809TIP3   OH226841   6.549   1.025   1.729 -0.3422  0.4749  0.1981
 1809TIP3    H126842   6.476   0.967   1.709  1.1206 -1.2475 -0.4753
 1809TIP3    H226843   6.510   1.097   1.778 -2.1254 -1.6697  2.1889
 1810TIP3   OH226844   1.250   4.382  10.390 -0.5567 -0.0394 -0.4442
 1810TIP3    H126845   1.243   4.442  10.315  2.3476  0.5273 -0.3516
 1810TIP3    H226846   1.275   4.438  10.463  0.0742 -1.0819  0.1537
 1811TIP3   OH226847   6.695   6.664   3.605 -0.0858 -0.8041 -0.0980
 1811TIP3    H126848   6.754   6.629   3.539  0.6755  0.3752 -0.0622
 1811TIP3    H226849   6.626   6.708   3.555 -1.0512 -2.2908 -0.1435
 1812TIP3   OH226850   4.154   0.248  13.705  0.0468 -0.4435  0.8116
 1812TIP3    H126851   4.195   0.265  13.790  0.2171 -1.0886  0.8571
 1812TIP3    H226852   4.090   0.179  13.723 -0.3416 -0.1586  0.5340
 1813TIP3   OH226853   0.471   0.968   2.876 -0.2951 -0.1669 -0.1814
 1813TIP3    H126854   0.481   0.978   2.781 -1.6924 -0.5522 -0.3948
 1813TIP3    H226855   0.548   1.012   2.913 -0.2517  0.8859 -1.4485
 1814TIP3   OH226856   4.065   1.383  11.475  0.0071 -0.2345 -0.3843
 1814TIP3    H126857   4.114   1.306  11.447  0.7007  0.1337 -0.1897
 1814TIP3    H226858   4.105   1.456  11.427 -1.7573 -0.1931 -1.9101
 1815TIP3   OH226859   1.475   1.246   0.024 -0.0710  0.7798 -0.2433
 1815TIP3    H126860   1.553   1.247   0.080  0.1741  0.9097 -0.5772
 1815TIP3    H226861   1.474   1.333  -0.017  0.8268  0.0763 -1.8703
 1816TIP3   OH226862   4.004   3.454  11.398  0.0864  0.4721 -0.1086
 1816TIP3    H126863   4.077   3.450  11.459  1.1871  0.4109 -1.3944
 1816TIP3    H226864   4.020   3.382  11.336 -0.2918  1.3169 -1.2183
 1817TIP3   OH226865   6.164   3.289  16.115 -0.0422 -0.1804 -0.3700
 1817TIP3    H126866   6.107   3.213  16.115 -1.4855  0.8479 -0.6726
 1817TIP3    H226867   6.196   3.295  16.205 -0.9927 -0.3803 -0.0069
 1818TIP3   OH226868   3.438   3.408   1.591 -0.5617 -0.0367  0.5460
 1818TIP3    H126869   3.442   3.499   1.563 -1.2075  0.9208  3.2933
 1818TIP3    H226870   3.503   3.402   1.661 -1.2410 -1.4150  1.0908
 1819TIP3   OH226871   6.301   3.871   3.300  0.2884  0.1530 -0.0294
 1819TIP3    H126872   6.262   3.943   3.250 -1.6816 -0.7990  0.0804
 1819TIP3    H226873   6.231   3.840   3.357  0.9459 -2.1751 -0.4027
 1820TIP3   OH226874   5.029   0.023   0.765 -0.2632 -0.0046 -0.4568
 1820TIP3    H126875   4.940   0.059   0.771 -0.0585  0.3755  0.4761
 1820TIP3    H226876   5.028  -0.030   0.686 -1.4104 -0.2347 -0.3078
 1821TIP3   OH226877   3.843   4.807   1.541  0.2522 -0.6049  0.0285
 1821TIP3    H126878   3.758   4.800   1.497 -0.7101  1.0049  1.5131
 1821TIP3    H226879   3.878   4.892   1.512 -0.2159  0.2970  1.9297
 1822TIP3   OH226880   1.858   6.682  10.620 -0.1604 -0.1076  0.1425
 1822TIP3    H126881   1.831   6.618  10.554  0.8422 -0.5513  0.1370
 1822TIP3    H226882   1.935   6.725  10.582  0.4490 -0.3904  1.0035
 1823TIP3   OH226883   0.483   5.311   3.442 -0.2688 -0.0561 -0.0900
 1823TIP3    H126884   0.485   5.404   3.419 -1.1644 -0.1004 -0.3933
 1823TIP3    H226885   0.394   5.297   3.474 -0.5931 -1.1114 -1.3779
 1824TIP3   OH226886   6.212   2.718  12.718 -0.1693 -0.0431  0.3966
 1824TIP3    H126887   6.276   2.701  12.788  2.0777  0.4212 -1.4164
 1824TIP3    H226888   6.181   2.807  12.734  0.8481  0.3123  0.4379
 1825TIP3   OH226889   1.116   6.084   2.781 -0.0522  0.2756 -0.4261
 1825TIP3    H126890   1.050   6.154   2.783  0.2701  0.6129 -1.1877
 1825TIP3    H226891   1.123   6.061   2.688  0.7811  0.1249 -0.3288
 1826TIP3   OH226892   2.318   5.824  16.940 -0.0553  0.5001 -0.1584
 1826TIP3    H126893   2.343   5.857  16.853 -1.4021  0.9284 -0.4097
 1826TIP3    H226894   2.303   5.902  16.992  1.5972  0.2503  0.7626
 1827TIP3   OH226895   6.434   2.150   1.941 -0.6083  0.2102 -0.3973
 1827TIP3    H126896   6.515   2.193   1.971 -0.7276  0.0779  0.1255
 1827TIP3    H226897   6.399   2.109   2.020 -0.0855 -1.5365 -1.0354
 1828TIP3   OH226898   5.377   3.398  15.217  0.1594  0.0024  0.3242
 1828TIP3    H126899   5.369   3.436  15.129 -2.1632  2.7065  1.5443
 1828TIP3    H226900   5.355   3.306  15.205 -2.0295  0.6865 -1.7084
 1829TIP3   OH226901   1.288   0.796  12.425 -0.8506  0.2140  0.1490
 1829TIP3    H126902   1.301   0.713  12.470  0.9734  0.3184 -0.1091
 1829TIP3    H226903   1.326   0.862  12.483 -0.4134  0.6067 -0.5703
 1830TIP3   OH226904   3.048   5.057  14.939 -0.2758  0.2220  0.5129
 1830TIP3    H126905   3.051   4.969  14.976  0.0124 -0.0882 -0.2306
 1830TIP3    H226906   2.966   5.094  14.973 -1.1130 -0.8465 -0.2918
 1831TIP3   OH226907   1.434   4.071   2.360 -0.0561 -0.1156  0.2999
 1831TIP3    H126908   1.439   3.976   2.370 -0.1381  0.0059  1.6724
 1831TIP3    H226909   1.341   4.092   2.369  0.1724  0.2754  2.1281
 1832TIP3   OH226910   5.659   0.436   2.580  0.5502 -0.3514  0.2228
 1832TIP3    H126911   5.678   0.434   2.486 -1.0649  0.2555 -0.1471
 1832TIP3    H226912   5.740   0.407   2.621  1.2375 -0.7928 -1.3620
 1833TIP3   OH226913   4.402   1.046   2.111 -0.5227 -0.0018 -0.1141
 1833TIP3    H126914   4.455   1.029   2.033 -0.2988 -0.6051  0.1620
 1833TIP3    H226915   4.341   1.114   2.084  0.7015  1.0455 -0.3110
 1834TIP3   OH226916   3.942   6.569  14.621 -0.2677 -0.1327 -0.3711
 1834TIP3    H126917   3.981   6.594  14.537  1.2294 -0.4736  0.1930
 1834TIP3    H226918   3.979   6.483  14.640 -0.5598 -0.0462  0.6631
 1835TIP3   OH226919   2.530   1.939   0.444 -0.8208  0.3444  0.0268
 1835TIP3    H126920   2.532   1.851   0.483  0.2185  0.5954  0.5684
 1835TIP3    H226921   2.485   1.926   0.360 -1.0547 -0.6240  0.2827
 1836TIP3   OH226922   2.601   1.238  12.069 -0.1900 -0.7260  0.6013
 1836TIP3    H126923   2.671   1.190  12.024 -1.1853 -1.3334 -0.3525
 1836TIP3    H226924   2.538   1.171  12.093 -1.6664  0.0684 -0.8710
 1837TIP3   OH226925   2.009   2.140  15.381 -0.0183  0.2021 -0.5035
 1837TIP3    H126926   1.957   2.063  15.358 -1.4080  0.2092  2.1823
 1837TIP3    H226927   1.945   2.209  15.395  0.9595  1.0308  0.0527
 1838TIP3   OH226928   5.374   3.900  16.064 -0.5463  0.1224  0.5308
 1838TIP3    H126929   5.465   3.915  16.038 -0.7143 -0.3204 -0.3668
 1838TIP3    H226930   5.349   3.979  16.112  0.5965 -0.1517  1.6110
 1839TIP3   OH226931   4.100   1.513   0.098  0.1790  0.2324  0.4002
 1839TIP3    H126932   4.023   1.567   0.117 -1.5179 -0.9734 -2.4200
 1839TIP3    H226933   4.079   1.427   0.134 -0.8085 -0.6504 -2.0525
 1840TIP3   OH226934   4.083   6.352  12.397  0.7578  0.5000  0.2298
 1840TIP3    H126935   4.072   6.447  12.391  2.8080  0.8544  1.0108
 1840TIP3    H226936   4.176   6.341  12.419  0.3781 -1.6541  0.9346
 1841TIP3   OH226937   4.879   5.295  15.474  0.1810 -0.0039  0.2876
 1841TIP3    H126938   4.843   5.366  15.528 -0.2074 -1.3477  1.8606
 1841TIP3    H226939   4.818   5.286  15.402 -1.0806 -0.3044  1.3657
 1842TIP3   OH226940   3.343   1.576   4.985 -0.2127 -0.3536  0.7380
 1842TIP3    H126941   3.420   1.580   4.927  0.0482 -1.5733  0.9613
 1842TIP3    H226942   3.279   1.635   4.945  1.3393  1.8874  1.3458
 1843TIP3   OH226943   6.333   4.257  17.085 -0.1265 -0.3049  0.1214
 1843TIP3    H126944   6.249   4.231  17.047  0.6300 -1.9231 -0.5459
 1843TIP3    H226945   6.390   4.271  17.009  0.7168 -1.1025  0.5898
 1844TIP3   OH226946   5.158   5.483   2.939  0.1880  0.4171  0.0479
 1844TIP3    H126947   5.189   5.537   2.867  0.4572  2.9462  1.8993
 1844TIP3    H226948   5.063   5.489   2.935  0.1084 -1.0507 -1.1540
 1845TIP3   OH226949   5.702   3.442   1.815  0.4801 -0.0292 -0.4749
 1845TIP3    H126950   5.792   3.461   1.790  0.5136 -0.9360 -1.1166
 1845TIP3    H226951   5.697   3.346   1.813 -0.5450  0.0202 -0.6552
 1846TIP3   OH226952   5.886   4.437  13.810  0.1473 -0.2034 -0.7861
 1846TIP3    H126953   5.978   4.456  13.790  0.6955 -1.2816  0.5812
 1846TIP3    H226954   5.859   4.375  13.742  0.4704 -0.0176 -1.0919
 1847TIP3   OH226955   3.992   4.205  15.186 -0.0564 -0.2480 -0.0325
 1847TIP3    H126956   3.923   4.190  15.251 -0.0547  0.5505  0.1622
 1847TIP3    H226957   4.066   4.152  15.217  1.1494  2.6721  2.5541
 1848TIP3   OH226958   6.059   1.210   1.978  0.1121 -0.0377  0.1309
 1848TIP3    H126959   5.973   1.247   1.999 -0.9380 -1.9024 -0.6708
 1848TIP3    H226960   6.067   1.221   1.883  0.9443  0.4617  0.2517
 1849TIP3   OH226961   5.989   6.285  11.839  0.2144  0.5561 -0.5562
 1849TIP3    H126962   6.080   6.257  11.853  0.3011  0.5773 -1.0712
 1849TIP3    H226963   5.956   6.305  11.927 -0.1552 -2.0740 -0.0229
 1850TIP3   OH226964   1.843   2.084  13.524 -0.2266  0.4718 -0.1590
 1850TIP3    H126965   1.928   2.098  13.481 -0.2139 -0.4868 -0.4526
 1850TIP3    H226966   1.804   2.172  13.527  0.1404  0.6982 -1.3612
 1851TIP3   OH226967   6.252   5.347   3.147 -0.7180  0.7311  0.2520
 1851TIP3    H126968   6.313   5.417   3.125 -1.5691  0.9273 -1.7478
 1851TIP3    H226969   6.278   5.274   3.091  0.0929 -0.5791  2.2321
 1852TIP3   OH226970   0.617   4.050   3.467  0.7588  0.1369 -0.1934
 1852TIP3    H126971   0.574   3.997   3.400  0.6034  2.3960 -1.9650
 1852TIP3    H226972   0.701   4.006   3.481  0.8111 -0.3756 -1.9036
 1853TIP3   OH226973   6.677   3.642  16.332  0.2449  0.3285  0.2353
 1853TIP3    H126974   6.769   3.636  16.305  1.3598  3.5484  2.6938
 1853TIP3    H226975   6.632   3.675  16.254  1.6898  1.1200 -0.3126
 1854TIP3   OH226976   2.714   5.097   5.415  0.0475  0.1906  0.3750
 1854TIP3    H126977   2.707   5.061   5.326  3.2139  0.4265 -0.1194
 1854TIP3    H226978   2.662   5.038   5.469 -2.9959  0.7340 -1.7135
 1855TIP3   OH226979   2.208   1.819  14.560  0.1930 -0.0935  0.3274
 1855TIP3    H126980   2.261   1.879  14.507  1.0336 -0.9603  0.1455
 1855TIP3    H226981   2.138   1.873  14.595  0.2256  0.7382 -0.8126
 1856TIP3   OH226982   1.348   2.394  15.045  0.3275  0.0926 -0.5629
 1856TIP3    H126983   1.308   2.354  15.122  0.6657 -0.8320 -0.8602
 1856TIP3    H226984   1.280   2.392  14.978  1.1702 -2.6587 -1.4758
 1857TIP3   OH226985   6.315   6.532   5.378 -0.1278  0.1658  0.4466
 1857TIP3    H126986   6.270   6.603   5.424 -0.1903  1.2847 -1.2510
 1857TIP3    H226987   6.395   6.516   5.428 -0.6605  0.6531  1.4668
 1858TIP3   OH226988   0.749   1.153  11.822 -0.2543 -0.2883  0.3913
 1858TIP3    H126989   0.794   1.175  11.903 -1.0169  0.0605  0.7269
 1858TIP3    H226990   0.682   1.090  11.848 -0.7978  0.1651  0.1087
 1859TIP3   OH226991   0.074   4.748   0.033  0.4190 -0.4425 -0.1293
 1859TIP3    H126992   0.109   4.663   0.059 -2.9823 -2.0194 -0.1953
 1859TIP3    H226993   0.055   4.739  -0.060  0.8050  0.7133 -0.3334
 1860TIP3   OH226994   2.555   5.030  12.935 -0.4573 -0.3589 -0.0880
 1860TIP3    H126995   2.520   5.018  13.024 -0.7904  0.0399 -0.1601
 1860TIP3    H226996   2.530   5.120  12.912 -0.3886 -0.4671 -0.5900
 1861TIP3   OH226997   1.517   3.381  13.970  0.7549  0.2178  0.0819
 1861TIP3    H126998   1.480   3.394  13.883  1.3125 -0.0969 -0.2028
 1861TIP3    H226999   1.441   3.360  14.025  0.4390  0.1321 -0.3831
 1862TIP3   OH227000   2.712   1.322  15.478  0.0799  0.6140  0.1694
 1862TIP3    H127001   2.667   1.276  15.406  1.6375 -0.7135 -0.0131
 1862TIP3    H227002   2.667   1.290  15.556 -0.3764  0.5948 -0.0906
 1863TIP3   OH227003   6.095   4.509   1.182  0.0772 -0.1388 -0.1284
 1863TIP3    H127004   6.030   4.540   1.118 -0.9643  0.4307  1.1531
 1863TIP3    H227005   6.071   4.417   1.198  0.6610 -0.4406 -0.9117
 1864TIP3   OH227006   5.195   0.828   2.615 -0.4621 -0.6328  0.1072
 1864TIP3    H127007   5.283   0.840   2.579 -0.6412 -1.6733 -0.7318
 1864TIP3    H227008   5.152   0.913   2.605  0.2859 -0.2522  0.0922
 1865TIP3   OH227009   1.233   1.467   5.465 -0.4796  0.2923  0.4016
 1865TIP3    H127010   1.258   1.379   5.494 -0.7997  0.1395  0.2133
 1865TIP3    H227011   1.138   1.466   5.466 -0.5736 -0.3120 -2.4230
 1866TIP3   OH227012   6.299   0.735   2.703  0.4349 -0.4435  0.0602
 1866TIP3    H127013   6.248   0.798   2.755 -0.1264  1.2875 -2.3992
 1866TIP3    H227014   6.390   0.761   2.716  0.2418  0.5920 -0.4926
 1867TIP3   OH227015   3.805   2.848  16.372  0.1352  0.2452 -0.7280
 1867TIP3    H127016   3.803   2.944  16.364  1.0154  0.3162 -0.2442
 1867TIP3    H227017   3.866   2.832  16.444  0.5461 -0.7070 -1.2781
 1868TIP3   OH227018   3.006   3.709  15.310 -0.4955  0.3351 -0.1162
 1868TIP3    H127019   3.035   3.641  15.250 -2.4712  1.0296 -1.9876
 1868TIP3    H227020   3.085   3.735  15.357  0.8671 -1.2043 -1.4363
 1869TIP3   OH227021   4.792   3.606   3.776 -0.3328  0.8032  0.8085
 1869TIP3    H127022   4.861   3.587   3.840 -0.7488 -0.0263  1.0274
 1869TIP3    H227023   4.778   3.523   3.732 -1.0387  1.0246  0.6128
 1870TIP3   OH227024   0.893   6.058   4.081 -0.0706  0.4596  1.0714
 1870TIP3    H127025   0.904   6.000   4.005 -0.3974  2.5506 -0.6652
 1870TIP3    H227026   0.812   6.028   4.122 -0.6124  0.1156 -0.1948
 1871TIP3   OH227027   1.260   1.002   2.043 -0.5164 -0.4147  0.3753
 1871TIP3    H127028   1.235   1.008   2.135  0.8165  1.7777  0.6744
 1871TIP3    H227029   1.356   0.997   2.045 -0.4086  0.7112 -0.8852
 1872TIP3   OH227030   1.624   0.235  13.446 -0.4334  0.4182 -0.7008
 1872TIP3    H127031   1.598   0.272  13.531 -2.3249  0.0564 -1.0939
 1872TIP3    H227032   1.678   0.303  13.407 -1.0478  1.3594  0.0292
 1873TIP3   OH227033   5.389   6.601  17.170 -0.3805  0.3952 -0.2535
 1873TIP3    H127034   5.441   6.620  17.248  1.7385 -1.8102 -1.0195
 1873TIP3    H227035   5.299   6.625  17.195  0.3647  0.6498  2.5017
 1874TIP3   OH227036   0.055   4.717   0.616  0.0195 -0.5927 -0.7545
 1874TIP3    H127037  -0.027   4.748   0.654  1.3521  0.7652  1.1998
 1874TIP3    H227038   0.029   4.651   0.552 -2.6167  0.4213 -0.8140
 1875TIP3   OH227039   4.166   0.191  11.735  0.6437 -0.2099 -0.0825
 1875TIP3    H127040   4.072   0.210  11.743  1.0710  1.9917  0.1322
 1875TIP3    H227041   4.169   0.098  11.713 -1.5768 -0.4100  0.2006
 1876TIP3   OH227042   6.172   0.709   5.338  0.2153  0.5302 -0.1747
 1876TIP3    H127043   6.206   0.664   5.416  0.2806 -1.2469 -1.1702
 1876TIP3    H227044   6.077   0.705   5.348  0.2232  1.5507  0.4601
 1877TIP3   OH227045   5.074   5.531   5.522  0.2962  0.0841  0.4874
 1877TIP3    H127046   5.108   5.446   5.495  0.2371  0.7569 -1.9769
 1877TIP3    H227047   5.074   5.528   5.617  1.2772 -2.2704  0.4782
 1878TIP3   OH227048   2.783   4.004  14.904  0.1453  0.3714 -0.3458
 1878TIP3    H127049   2.703   4.057  14.901  0.5272  1.0716  0.8024
 1878TIP3    H227050   2.849   4.064  14.940  0.8680 -0.5678 -0.0821
 1879TIP3   OH227051   2.822   1.131   0.308 -0.3992  0.0565 -0.3446
 1879TIP3    H127052   2.805   1.160   0.398  1.2163  5.3240 -1.3740
 1879TIP3    H227053   2.912   1.097   0.312 -0.6999 -0.7259  0.1359
 1880TIP3   OH227054   3.872   4.407  13.312 -0.4270 -0.4317 -0.1502
 1880TIP3    H127055   3.902   4.463  13.241 -0.7723  0.9672  0.7674
 1880TIP3    H227056   3.829   4.334  13.269 -2.3643  1.3476 -1.3937
 1881TIP3   OH227057   5.138   2.648   2.745  0.2011 -0.0049  0.0998
 1881TIP3    H127058   5.114   2.708   2.815  0.2594  0.7355 -0.5053
 1881TIP3    H227059   5.233   2.657   2.737  0.0492  0.8794 -0.9259
 1882TIP3   OH227060   6.784   1.417   3.140 -0.7500  0.3978  0.4627
 1882TIP3    H127061   6.750   1.459   3.219 -5.3883  1.2294 -1.6900
 1882TIP3    H227062   6.724   1.344   3.123  1.3450 -1.0617 -1.2333
 1883TIP3   OH227063   3.196   3.302   3.749  0.3012 -0.0625  0.6424
 1883TIP3    H127064   3.224   3.394   3.756 -1.6648  0.5263  1.6123
 1883TIP3    H227065   3.142   3.288   3.827 -0.3462 -1.7138 -0.0695
 1884TIP3   OH227066   6.109   2.974  12.592 -0.5227  0.3495 -0.0892
 1884TIP3    H127067   6.084   3.066  12.586  2.8680  1.3550 -1.3782
 1884TIP3    H227068   6.065   2.933  12.518 -1.1711  1.1807 -0.1817
 1885TIP3   OH227069   6.203   3.337   3.194 -0.2091 -0.2655  0.4013
 1885TIP3    H127070   6.116   3.368   3.169  0.5880  0.3767 -1.7146
 1885TIP3    H227071   6.259   3.414   3.187  0.7792 -0.9659  0.4536
 1886TIP3   OH227072   4.653   5.317  16.144 -0.1458 -0.5723 -0.3347
 1886TIP3    H127073   4.637   5.383  16.077 -0.1301 -0.1993  0.0216
 1886TIP3    H227074   4.580   5.328  16.206  2.0962  2.1719  2.1318
 1887TIP3   OH227075   5.288   4.006   3.499 -0.0046  0.6837  0.0395
 1887TIP3    H127076   5.324   3.917   3.503  0.7174  0.9363 -0.5442
 1887TIP3    H227077   5.224   4.009   3.569  0.7309  0.0437  0.7637
 1888TIP3   OH227078   0.486   5.505   3.018 -0.0809 -0.2572  0.1802
 1888TIP3    H127079   0.538   5.564   2.964 -1.0303 -0.8753 -1.4742
 1888TIP3    H227080   0.549   5.444   3.055  0.5128 -0.3144 -0.8890
 1889TIP3   OH227081   4.926   6.290  12.113 -0.0626  0.1360  0.3684
 1889TIP3    H127082   4.881   6.222  12.063  0.5216 -0.5853  0.7984
 1889TIP3    H227083   4.955   6.246  12.193 -0.5278  1.1488  1.1077
 1890TIP3   OH227084   5.063   5.214   4.019  0.2896 -0.5237  0.2525
 1890TIP3    H127085   4.968   5.221   4.007  0.4823  1.1393 -0.6236
 1890TIP3    H227086   5.089   5.298   4.057  1.2282 -1.5630  1.9982
 1891TIP3   OH227087   2.097   5.312  12.398 -0.2409  0.3825 -0.1933
 1891TIP3    H127088   2.080   5.351  12.313 -1.2272 -0.1162 -0.2321
 1891TIP3    H227089   2.073   5.380  12.461 -1.4555  0.0377 -0.2729
 1892TIP3   OH227090   3.368   6.769  13.742  0.7094  0.3352  0.2800
 1892TIP3    H127091   3.328   6.735  13.822 -1.9446  1.2616 -0.5228
 1892TIP3    H227092   3.352   6.863  13.745  1.9924  0.6099 -0.6201
 1893TIP3   OH227093   1.163   3.846   6.046  0.2757 -0.0637  0.1031
 1893TIP3    H127094   1.135   3.936   6.026 -0.4717 -0.4011 -0.4269
 1893TIP3    H227095   1.140   3.834   6.139 -1.1724 -0.2427 -0.2460
 1894TIP3   OH227096   2.280   1.319   6.630 -0.3552  0.0295  0.3397
 1894TIP3    H127097   2.271   1.231   6.668  1.8175 -0.5688 -0.3593
 1894TIP3    H227098   2.335   1.366   6.693  2.9379 -0.8436 -1.6391
 1895TIP3   OH227099   5.954   4.061  15.481 -0.2839  0.0819  0.5593
 1895TIP3    H127100   5.985   4.035  15.568  3.1641  2.1120  0.1284
 1895TIP3    H227101   5.990   3.995  15.422  0.7431  0.8328  0.3313
 1896TIP3   OH227102   6.243   5.967  13.442  0.3211 -0.2112  0.0264
 1896TIP3    H127103   6.181   5.987  13.372  1.0861  1.1712 -0.2695
 1896TIP3    H227104   6.189   5.964  13.521  0.0090  2.1430 -0.0502
 1897TIP3   OH227105   6.032   0.033  13.460  0.0495 -0.6734 -0.0700
 1897TIP3    H127106   6.041  -0.024  13.537  1.0247 -1.5248 -0.7902
 1897TIP3    H227107   6.121   0.062  13.442 -0.3244  0.4165 -0.2306
 1898TIP3   OH227108   3.544   1.109   5.980 -0.4698 -0.1484 -0.2041
 1898TIP3    H127109   3.525   1.138   6.069  0.3340  1.0268 -0.4049
 1898TIP3    H227110   3.484   1.159   5.925  0.1233  0.2965 -0.4533
 1899TIP3   OH227111   1.332   2.883   4.555  0.0728 -0.0562  0.1858
 1899TIP3    H127112   1.350   2.967   4.511 -1.3038 -0.8905 -2.1873
 1899TIP3    H227113   1.240   2.866   4.536  0.4900 -2.4186  0.0084
 1900TIP3   OH227114   4.233   6.729  11.686  0.1061 -0.1951  0.1167
 1900TIP3    H127115   4.165   6.695  11.744  0.2647  0.0118  0.4261
 1900TIP3    H227116   4.196   6.721  11.598  0.2693 -1.4605  0.1530
 1901TIP3   OH227117   5.688   2.636   1.514  0.0548  0.2381 -0.2567
 1901TIP3    H127118   5.780   2.638   1.488  0.3617  0.9892  0.7600
 1901TIP3    H227119   5.666   2.729   1.526 -1.2992  0.1696 -1.9650
 1902TIP3   OH227120   4.828   0.299  12.321 -0.3419 -0.5653  0.6273
 1902TIP3    H127121   4.736   0.290  12.298  0.0847 -0.6672 -1.1780
 1902TIP3    H227122   4.856   0.210  12.344  0.4453 -1.6205 -3.6513
 1903TIP3   OH227123   3.479   2.542   0.624 -0.5511  0.1193  0.4650
 1903TIP3    H127124   3.546   2.476   0.643  0.5589  0.9746 -0.3393
 1903TIP3    H227125   3.501   2.575   0.537 -2.7739 -0.4334 -0.3870
 1904TIP3   OH227126   6.206   0.346  11.667 -0.0566 -0.3069  0.5181
 1904TIP3    H127127   6.159   0.264  11.650  0.7847 -0.3726 -1.7815
 1904TIP3    H227128   6.138   0.413  11.665 -0.1970 -0.2980 -3.5583
 1905TIP3   OH227129   6.668   2.413   3.265  0.2709 -0.1236  0.1043
 1905TIP3    H127130   6.740   2.476   3.268 -1.0659  1.5256 -0.2910
 1905TIP3    H227131   6.672   2.367   3.349  0.7006  1.2111  0.8438
 1906TIP3   OH227132   3.135   1.657   4.329 -1.0575  0.4501  0.0733
 1906TIP3    H127133   3.122   1.692   4.241 -2.9061 -2.4052 -0.9162
 1906TIP3    H227134   3.050   1.622   4.355  0.3016 -2.3216  1.3112
 1907TIP3   OH227135   0.720   6.432  16.404  0.4761 -0.1764  0.2208
 1907TIP3    H127136   0.748   6.443  16.495 -1.0406  1.2441  0.5549
 1907TIP3    H227137   0.799   6.446  16.353  0.6325  3.0720  1.1548
 1908TIP3   OH227138   1.655   3.265   0.739  0.3540 -0.5985  0.4056
 1908TIP3    H127139   1.634   3.189   0.793 -0.3627  0.0908  1.1318
 1908TIP3    H227140   1.661   3.338   0.801  0.2813  0.0717 -0.3528
 1909TIP3   OH227141   2.069   4.697   4.722 -0.3699  0.3844 -0.2311
 1909TIP3    H127142   2.152   4.668   4.684 -0.4365  1.2933 -1.1178
 1909TIP3    H227143   2.084   4.790   4.743 -0.8590  0.3080  0.4987
 1910TIP3   OH227144   0.189   4.457   0.699  0.8237 -0.4126 -0.2140
 1910TIP3    H127145   0.265   4.473   0.755  2.8431 -1.2307 -2.5300
 1910TIP3    H227146   0.151   4.543   0.684  3.0800  0.4523 -1.3258
 1911TIP3   OH227147   4.288   0.181   0.723  0.1447  0.1304  0.0178
 1911TIP3    H127148   4.284   0.257   0.781 -1.1438  0.1884 -0.1189
 1911TIP3    H227149   4.212   0.191   0.666 -0.2232 -1.4411  0.2093
 1912TIP3   OH227150   0.510   2.878   1.697  0.0979  0.0590 -0.1504
 1912TIP3    H127151   0.573   2.949   1.691 -0.0015  0.1004 -0.6865
 1912TIP3    H227152   0.427   2.916   1.668 -0.1204 -0.0707  0.2815
 1913TIP3   OH227153   5.356   1.824   4.861 -0.6348 -1.0851  0.3792
 1913TIP3    H127154   5.338   1.855   4.772  2.3175  0.5074  0.2227
 1913TIP3    H227155   5.394   1.737   4.849 -1.0935 -1.2639  0.1871
 1914TIP3   OH227156   5.938   1.984  11.958  0.4228  0.0998  0.4978
 1914TIP3    H127157   6.024   1.942  11.957  1.4705  2.1268 -1.6657
 1914TIP3    H227158   5.901   1.967  11.872 -1.1537 -0.2558  1.1960
 1915TIP3   OH227159   2.515   2.954   0.258 -0.3058  0.8281  0.5930
 1915TIP3    H127160   2.556   2.941   0.173  0.8325  0.3995  1.1906
 1915TIP3    H227161   2.451   3.024   0.244 -0.1391  0.7480 -0.6061
 1916TIP3   OH227162   0.578   4.230  15.241  0.6575 -0.5740 -0.0395
 1916TIP3    H127163   0.589   4.191  15.328  1.3867 -3.4083 -1.2830
 1916TIP3    H227164   0.666   4.230  15.203  0.6414  2.1365 -0.2882
 1917TIP3   OH227165   6.713   3.604  15.313  0.4559 -0.1935  0.5269
 1917TIP3    H127166   6.642   3.563  15.264 -1.1453  1.6589  1.1657
 1917TIP3    H227167   6.783   3.615  15.249 -0.8154  0.3246 -0.8401
 1918TIP3   OH227168   2.230   5.566   4.092 -0.1111 -0.2034  0.9366
 1918TIP3    H127169   2.259   5.478   4.116  0.7136 -0.2573 -0.1836
 1918TIP3    H227170   2.280   5.624   4.149  0.3885 -0.4140  0.7244
 1919TIP3   OH227171   3.642   3.260  12.662  0.1369  0.3680 -0.1046
 1919TIP3    H127172   3.678   3.276  12.575 -0.3438 -0.1957 -0.4142
 1919TIP3    H227173   3.617   3.168  12.661 -1.0071  0.6639  0.2137
 1920TIP3   OH227174   3.585   1.549   3.865  0.6246  0.2443  0.1351
 1920TIP3    H127175   3.611   1.632   3.904 -1.1807  1.5997 -1.3885
 1920TIP3    H227176   3.617   1.553   3.775 -0.2350 -0.3006 -0.2098
 1921TIP3   OH227177   1.351   5.867  12.523 -0.0891 -0.2103 -0.0133
 1921TIP3    H127178   1.409   5.935  12.556 -1.8179  1.5812 -0.5058
 1921TIP3    H227179   1.392   5.836  12.442  0.7679  0.1335  0.2812
 1922TIP3   OH227180   0.763   2.535  13.202  0.0042 -0.1399  0.5254
 1922TIP3    H127181   0.814   2.511  13.280 -0.3507 -2.8020  0.0470
 1922TIP3    H227182   0.737   2.451  13.164 -2.1831  1.1133 -0.9498
 1923TIP3   OH227183   2.096   4.106  13.808 -0.2076  0.1248 -0.7072
 1923TIP3    H127184   2.030   4.068  13.867  1.1924 -1.7303 -0.2523
 1923TIP3    H227185   2.064   4.085  13.720 -1.5541  1.6140 -0.6188
 1924TIP3   OH227186   6.571   1.758   2.417  0.2198 -0.5165  0.6598
 1924TIP3    H127187   6.598   1.667   2.403 -1.3580 -0.7081 -1.7314
 1924TIP3    H227188   6.476   1.753   2.430 -0.2018  0.8474 -1.3042
 1925TIP3   OH227189   4.442   3.793  12.219  0.2789 -0.1667  0.2820
 1925TIP3    H127190   4.348   3.808  12.228  0.3374 -0.1187  0.8038
 1925TIP3    H227191   4.450   3.698  12.207  0.1267 -0.1121 -0.3312
 1926TIP3   OH227192   3.408   4.093  16.666 -0.3469  0.3311 -0.2960
 1926TIP3    H127193   3.465   4.017  16.656  1.5062  1.4888  0.7691
 1926TIP3    H227194   3.346   4.068  16.734  1.0999  0.1841  1.0293
 1927TIP3   OH227195   3.333   3.643  16.956  0.3933  0.7011  0.6849
 1927TIP3    H127196   3.368   3.587  17.025  0.4085  0.0879  0.1934
 1927TIP3    H227197   3.285   3.712  17.002 -1.1865 -0.7419  1.2807
 1928TIP3   OH227198   2.849   3.815  13.770  0.1905  0.8418  0.1200
 1928TIP3    H127199   2.856   3.733  13.818 -0.1014  0.3724 -0.6193
 1928TIP3    H227200   2.786   3.796  13.700 -0.8303  2.0520  0.6715
 1929TIP3   OH227201   5.741   4.917  16.128 -0.4802  0.3436 -0.1952
 1929TIP3    H127202   5.677   4.869  16.180 -0.6205  1.3530  0.6145
 1929TIP3    H227203   5.824   4.901  16.172 -0.7010  1.7797  0.8327
 1930TIP3   OH227204   3.611   5.757   4.619  0.1522 -0.0219 -0.4279
 1930TIP3    H127205   3.558   5.836   4.616 -0.5757 -0.2400  3.0031
 1930TIP3    H227206   3.700   5.788   4.639 -0.3309 -0.0395  1.9724
 1931TIP3   OH227207   4.701   5.393  14.922  0.1850  0.7364  0.2046
 1931TIP3    H127208   4.664   5.479  14.940  0.9960  0.5867  3.1259
 1931TIP3    H227209   4.792   5.399  14.950  0.2851 -1.0519  0.4218
 1932TIP3   OH227210   0.058   0.493  13.810  0.7279 -0.0689  0.8133
 1932TIP3    H127211   0.145   0.519  13.778 -0.0911  2.4101  0.4236
 1932TIP3    H227212   0.071   0.474  13.903  2.1053 -2.1211  0.2624
 1933TIP3   OH227213   5.735   4.561  14.910 -0.5222 -0.3140  0.0674
 1933TIP3    H127214   5.751   4.654  14.892  1.6016 -0.3342  1.5045
 1933TIP3    H227215   5.763   4.516  14.830 -0.4011  0.1901 -0.1809
 1934TIP3   OH227216   0.380   2.871  12.233  0.4170 -0.6245  0.4532
 1934TIP3    H127217   0.423   2.954  12.251 -0.1023 -0.4373  0.8541
 1934TIP3    H227218   0.296   2.896  12.193  0.2274 -0.9519  0.6423
 1935TIP3   OH227219   1.786   1.764  16.724 -0.2372  0.6465  0.2284
 1935TIP3    H127220   1.814   1.716  16.802  0.3658  0.0654 -0.3223
 1935TIP3    H227221   1.691   1.770  16.732 -0.4173 -1.2182  0.0289
 1936TIP3   OH227222   1.410   5.080   5.543  0.4238 -0.4537 -0.1160
 1936TIP3    H127223   1.495   5.078   5.498  0.4478  1.0295 -0.1955
 1936TIP3    H227224   1.382   5.171   5.536 -0.8921 -0.7944  0.4590
 1937TIP3   OH227225   4.534   1.663  13.003 -0.8185  0.1866  0.2409
 1937TIP3    H127226   4.622   1.655  12.965 -0.7531 -0.5819  0.5305
 1937TIP3    H227227   4.537   1.744  13.054 -0.6189  0.7398 -0.6224
 1938TIP3   OH227228   5.012   1.739  11.164 -0.3449 -0.1133 -0.3631
 1938TIP3    H127229   5.097   1.710  11.130  0.6827  1.6379  0.5423
 1938TIP3    H227230   5.001   1.827  11.127 -0.6181  0.6287  1.4127
 1939TIP3   OH227231   0.741   1.312   3.250 -0.4878  0.3356 -0.1607
 1939TIP3    H127232   0.830   1.279   3.256 -0.9708 -0.8897  0.7436
 1939TIP3    H227233   0.713   1.321   3.342 -0.5396  2.9094 -0.3537
 1940TIP3   OH227234   1.045   0.726   3.499  0.2923 -0.4935 -0.3157
 1940TIP3    H127235   1.117   0.737   3.562 -0.8229 -1.0985  1.1093
 1940TIP3    H227236   0.998   0.809   3.503  0.5766 -0.3024 -0.8382
 1941TIP3   OH227237   0.209   6.607  13.129 -1.4042  0.2315 -0.1282
 1941TIP3    H127238   0.199   6.515  13.156 -0.9339  0.0412 -0.5744
 1941TIP3    H227239   0.273   6.604  13.058 -2.1405  0.7965 -0.8357
 1942TIP3   OH227240   4.996   4.210   5.060 -0.1409 -0.3387  0.2116
 1942TIP3    H127241   5.015   4.121   5.030  1.9666 -0.2243  1.0647
 1942TIP3    H227242   5.054   4.266   5.008 -1.0562  0.4984  0.0622
 1943TIP3   OH227243   6.758   0.755  16.705  0.1103  0.3095  0.0857
 1943TIP3    H127244   6.769   0.660  16.701 -0.9276  0.1997 -0.7669
 1943TIP3    H227245   6.820   0.790  16.641  2.3015  0.4346  2.1248
 1944TIP3   OH227246   2.665   3.231  14.250  0.7074 -0.3138 -0.3170
 1944TIP3    H127247   2.637   3.234  14.341  1.0093  1.0193 -0.2471
 1944TIP3    H227248   2.584   3.227  14.200  0.4578  0.8703 -0.0340
 1945TIP3   OH227249   3.710   5.263   1.857  0.8861  0.0047  0.7692
 1945TIP3    H127250   3.643   5.304   1.804  1.5173  1.5519  1.1167
 1945TIP3    H227251   3.665   5.190   1.901  0.2058 -0.9043 -1.3149
 1946TIP3   OH227252   0.595   2.695   2.796 -0.8748 -0.0123  0.2280
 1946TIP3    H127253   0.608   2.674   2.888 -0.6301 -1.2553 -0.0621
 1946TIP3    H227254   0.547   2.620   2.761  1.3214 -0.8609 -1.2088
 1947TIP3   OH227255   1.765   4.630   4.309  0.7163  0.7562 -0.8108
 1947TIP3    H127256   1.721   4.580   4.378  2.3467  1.4812  0.8410
 1947TIP3    H227257   1.729   4.595   4.227  0.5392 -1.9070  0.3030
 1948TIP3   OH227258   5.911   0.219  14.551  0.3476  0.2846 -0.1631
 1948TIP3    H127259   5.918   0.314  14.559  1.3292  0.2751 -0.7006
 1948TIP3    H227260   5.884   0.189  14.638 -0.7711  1.1114 -0.2080
 1949TIP3   OH227261   5.073   2.318  15.615 -0.2480 -0.5990  0.3101
 1949TIP3    H127262   5.022   2.334  15.535  0.8760 -2.1845 -0.7897
 1949TIP3    H227263   5.155   2.280  15.584  1.0610  0.5999  2.1279
 1950TIP3   OH227264   2.265   2.825  13.227  0.4325  0.3155 -0.5465
 1950TIP3    H127265   2.245   2.917  13.242 -0.8114 -0.0285  0.0705
 1950TIP3    H227266   2.343   2.825  13.172  1.8346  1.7070  1.3564
 1951TIP3   OH227267   1.761   2.082   1.162  0.7980  0.2597 -0.1644
 1951TIP3    H127268   1.709   2.151   1.121  0.5215 -0.5178 -1.1337
 1951TIP3    H227269   1.800   2.034   1.089  1.8759  0.0602  0.5232
 1952TIP3   OH227270   4.656   3.567   1.167  0.5935 -0.2893  0.0195
 1952TIP3    H127271   4.606   3.574   1.248  1.7053  2.1243  0.5898
 1952TIP3    H227272   4.612   3.499   1.117 -2.8520  1.1970  0.7493
 1953TIP3   OH227273   6.433   2.811   1.191 -0.6067  0.2669  0.0726
 1953TIP3    H127274   6.455   2.812   1.285 -1.2258  0.8622  0.2209
 1953TIP3    H227275   6.515   2.786   1.148  0.1554  1.6091  0.6639
 1954TIP3   OH227276   6.049   1.293  15.711 -0.8199 -0.2075  0.1748
 1954TIP3    H127277   6.030   1.322  15.622  3.2626 -1.7581 -1.4298
 1954TIP3    H227278   6.003   1.210  15.720 -0.6428 -0.4151 -0.7984
 1955TIP3   OH227279   5.514   1.315  10.795  0.4377 -0.0735 -0.0895
 1955TIP3    H127280   5.606   1.325  10.773  0.3748 -0.1951 -0.4213
 1955TIP3    H227281   5.501   1.370  10.872  0.9044 -0.4518  0.2688
 1956TIP3   OH227282   0.896   0.463   2.361 -0.3338 -0.2533 -0.2876
 1956TIP3    H127283   0.938   0.487   2.444  0.4921  0.5670 -0.9291
 1956TIP3    H227284   0.934   0.378   2.339  0.9228  0.4112 -0.7878
 1957TIP3   OH227285   2.768   2.403   6.171 -0.1652  0.3826  0.2098
 1957TIP3    H127286   2.736   2.450   6.248 -0.3572 -0.0053  0.3724
 1957TIP3    H227287   2.766   2.311   6.198  2.9086  0.4142  0.9310
 1958TIP3   OH227288   3.856   5.817  17.008 -0.1347 -0.5704 -0.0680
 1958TIP3    H127289   3.770   5.815  17.049  0.0081 -1.7873  0.2094
 1958TIP3    H227290   3.918   5.830  17.080 -0.1037  0.9321 -0.3348
 1959TIP3   OH227291   3.703   3.715  10.556  0.2440  0.0761 -0.2263
 1959TIP3    H127292   3.608   3.718  10.549  0.3059 -0.6958 -1.8185
 1959TIP3    H227293   3.723   3.772  10.630 -1.3396  1.6434 -0.9222
 1960TIP3   OH227294   3.454   3.860  13.778 -0.0462  0.2249 -0.0411
 1960TIP3    H127295   3.496   3.905  13.852 -0.7702  0.4632  0.2299
 1960TIP3    H227296   3.506   3.886  13.702 -1.4836  2.9901 -0.1854
 1961TIP3   OH227297   6.590   4.786   0.712  0.6320  0.4003 -0.1558
 1961TIP3    H127298   6.535   4.707   0.713  0.9969  0.1345 -0.8754
 1961TIP3    H227299   6.554   4.840   0.641 -0.1251  1.2573  0.8496
 1962TIP3   OH227300   2.172   6.478  13.638 -0.3359 -0.0568  0.3042
 1962TIP3    H127301   2.195   6.485  13.546  0.1094  1.8346  0.5223
 1962TIP3    H227302   2.207   6.394  13.666  0.5058 -0.1475 -0.9776
 1963TIP3   OH227303   5.904   2.387  13.808 -0.3653  0.4089  0.0527
 1963TIP3    H127304   5.815   2.355  13.794 -0.1836  0.2962 -0.9313
 1963TIP3    H227305   5.896   2.483  13.805 -0.2703  0.4009 -1.4604
 1964TIP3   OH227306   4.672   5.440   3.786 -0.5801  0.1478 -0.5655
 1964TIP3    H127307   4.718   5.369   3.831  0.3712  1.3542  0.4227
 1964TIP3    H227308   4.614   5.477   3.852 -3.8039 -1.8884 -1.9954
 1965TIP3   OH227309   2.719   6.126   6.196 -0.1893  0.1424 -0.1742
 1965TIP3    H127310   2.645   6.066   6.206 -0.5969  0.4155 -1.3485
 1965TIP3    H227311   2.795   6.075   6.222 -0.4831 -1.0408 -1.5079
 1966TIP3   OH227312   3.785   4.976   0.013  0.4718  0.3029 -0.1663
 1966TIP3    H127313   3.844   5.051   0.017 -0.0668  0.8008 -1.1899
 1966TIP3    H227314   3.841   4.903  -0.013  1.4462 -0.1943  2.9564
 1967TIP3   OH227315   2.569   4.083   2.365  0.4517 -0.6575  0.4234
 1967TIP3    H127316   2.536   4.008   2.414  0.0988 -1.6786 -1.2911
 1967TIP3    H227317   2.644   4.049   2.316 -0.5606 -0.3098 -1.4669
 1968TIP3   OH227318   6.443   2.385   4.986  0.1038  0.3631  0.7349
 1968TIP3    H127319   6.432   2.311   5.045  0.9456  0.2103  0.7016
 1968TIP3    H227320   6.409   2.460   5.036 -0.9594 -0.0569  0.6823
 1969TIP3   OH227321   4.541   4.586   0.919  0.3782  0.2545 -0.1411
 1969TIP3    H127322   4.497   4.513   0.961  1.3442  0.1626  0.7693
 1969TIP3    H227323   4.612   4.609   0.980  2.8011 -0.8595 -2.3779
 1970TIP3   OH227324   1.672   5.459   4.879 -0.2396  0.7248 -0.1103
 1970TIP3    H127325   1.586   5.456   4.838 -1.6804 -0.8110  2.7141
 1970TIP3    H227326   1.732   5.482   4.808 -2.6168 -0.7192 -2.7830
 1971TIP3   OH227327   3.605   4.246  14.301 -0.2159 -0.1078  0.2518
 1971TIP3    H127328   3.519   4.235  14.341  0.2662  1.7054  1.9515
 1971TIP3    H227329   3.663   4.192  14.355 -0.0059  0.1411  0.2798
 1972TIP3   OH227330   0.910   1.768   2.915  0.1221 -0.4732 -0.3541
 1972TIP3    H127331   0.853   1.728   2.981  0.4695 -0.1248  0.1538
 1972TIP3    H227332   0.999   1.750   2.946  0.2852 -0.3020 -0.7237
 1973TIP3   OH227333   4.572   4.442   3.458  0.4365  0.4225  0.0804
 1973TIP3    H127334   4.577   4.472   3.367  1.9797 -0.1795 -0.0679
 1973TIP3    H227335   4.610   4.354   3.456  0.1056  0.2360  1.2506
 1974TIP3   OH227336   5.885   3.828  15.117  0.3123 -0.0245 -0.5628
 1974TIP3    H127337   5.869   3.791  15.204 -0.1251  0.2712 -0.5171
 1974TIP3    H227338   5.971   3.870  15.125  0.5261 -0.4794 -0.4350
 1975TIP3   OH227339   4.289   0.676  13.344 -0.7775  0.0657 -0.1670
 1975TIP3    H127340   4.304   0.746  13.408 -1.4180  1.1875 -1.1862
 1975TIP3    H227341   4.365   0.619  13.352 -0.5234  0.5481  1.1210
 1976TIP3   OH227342   3.006   4.679   5.389 -0.3304  0.2027 -1.1194
 1976TIP3    H127343   3.066   4.619   5.435 -2.1237 -0.5033  0.4249
 1976TIP3    H227344   3.055   4.762   5.384  0.5803 -0.1650  0.6588
 1977TIP3   OH227345   2.364   6.341   2.610  0.4843  0.5284 -0.2520
 1977TIP3    H127346   2.445   6.391   2.607 -0.3588  1.9423 -3.4058
 1977TIP3    H227347   2.296   6.401   2.578 -1.6702 -0.9196  1.2614
 1978TIP3   OH227348   5.907   6.053   5.101 -0.1512 -0.0495  0.3203
 1978TIP3    H127349   5.971   6.020   5.038 -1.5131 -2.2302 -0.0173
 1978TIP3    H227350   5.823   6.024   5.068 -1.0947  0.5499  2.0777
 1979TIP3   OH227351   1.839   0.337  11.537 -0.3354 -0.8262  0.1197
 1979TIP3    H127352   1.925   0.303  11.516  1.0203  2.1330  0.3571
 1979TIP3    H227353   1.838   0.343  11.633 -1.7519 -2.8803  0.3116
 1980TIP3   OH227354   4.875   4.520   2.966 -0.3308  0.1938  0.0813
 1980TIP3    H127355   4.855   4.559   2.881  2.3402 -3.6072 -2.6388
 1980TIP3    H227356   4.809   4.451   2.977 -0.0191 -0.0256  0.6148
 1981TIP3   OH227357   6.354   1.391  12.544 -0.2344  0.9252  0.3681
 1981TIP3    H127358   6.405   1.469  12.564 -0.8568  1.1494  1.1489
 1981TIP3    H227359   6.286   1.421  12.484  0.8123  0.5255 -1.0822
 1982TIP3   OH227360   1.107   2.672  13.371 -0.2418 -0.1612 -0.3906
 1982TIP3    H127361   1.175   2.657  13.305  0.4187 -1.4365  0.5361
 1982TIP3    H227362   1.097   2.767  13.374  0.9526  0.0070 -1.0879
 1983TIP3   OH227363   4.894   4.077   6.300  0.5706 -0.6049 -0.0923
 1983TIP3    H127364   4.877   4.086   6.394  0.8748 -2.3005  0.1474
 1983TIP3    H227365   4.933   4.160   6.274 -1.5905  0.7783  0.7903
 1984TIP3   OH227366   1.853   2.177  13.905  0.5209 -0.7026 -0.0339
 1984TIP3    H127367   1.837   2.150  13.815 -0.8361  0.2063 -0.0931
 1984TIP3    H227368   1.859   2.095  13.954  1.2282 -1.2026 -0.9319
 1985TIP3   OH227369   4.263   0.976  11.719 -0.3555 -0.0143  0.2518
 1985TIP3    H127370   4.331   1.039  11.694 -1.1544  0.2580 -1.3204
 1985TIP3    H227371   4.217   1.019  11.792 -0.6611  1.0930 -0.5625
 1986TIP3   OH227372   2.522   2.204  13.235 -0.0882  0.1258  0.2827
 1986TIP3    H127373   2.439   2.187  13.191 -1.1455  1.4523  1.6548
 1986TIP3    H227374   2.507   2.179  13.326  1.8769 -2.0734  0.1037
 1987TIP3   OH227375   2.965   5.410  11.431 -0.6032 -0.0447 -0.1479
 1987TIP3    H127376   2.977   5.382  11.340  1.2370  0.5284 -0.1191
 1987TIP3    H227377   2.939   5.502  11.425 -1.0656 -0.1711 -0.1044
 1988TIP3   OH227378   2.035   2.453   4.171 -0.3984 -0.3094 -0.0434
 1988TIP3    H127379   2.006   2.405   4.094  1.3685  0.5730 -1.3512
 1988TIP3    H227380   1.964   2.514   4.191 -1.0481 -0.8408 -0.7047
 1989TIP3   OH227381   0.772   0.888   0.010 -0.4144  0.1251  0.5657
 1989TIP3    H127382   0.852   0.934  -0.012 -0.0806 -1.2068 -1.1974
 1989TIP3    H227383   0.702   0.947  -0.015 -0.0000  0.5567  0.4150
 1990TIP3   OH227384   3.832   5.540  13.989  0.9486  0.5854  0.8217
 1990TIP3    H127385   3.853   5.633  13.998 -2.1476  1.4645  0.3239
 1990TIP3    H227386   3.825   5.509  14.079 -1.1963  1.7728  1.1484
 1991TIP3   OH227387   4.479   1.588   1.261 -0.0061 -0.3638  0.7759
 1991TIP3    H127388   4.436   1.568   1.344 -0.8348  3.1918  1.3713
 1991TIP3    H227389   4.465   1.682   1.248  1.7350 -0.3855 -2.4768
 1992TIP3   OH227390   3.928   1.048   1.030  0.0447  0.6400  0.2762
 1992TIP3    H127391   3.980   1.122   1.061  0.4821  0.4122  0.0883
 1992TIP3    H227392   3.862   1.087   0.973 -0.2728  0.9773  0.8709
 1993TIP3   OH227393   5.754   5.666   1.713  0.1719 -0.3739 -0.0643
 1993TIP3    H127394   5.846   5.641   1.703  0.3063 -0.2049  0.6814
 1993TIP3    H227395   5.748   5.698   1.803 -0.8282 -1.2621  0.1983
 1994TIP3   OH227396   5.728   6.281  16.328  0.3333  0.2733 -0.0818
 1994TIP3    H127397   5.735   6.199  16.376 -3.0619 -0.4978 -0.6837
 1994TIP3    H227398   5.718   6.348  16.395 -1.7814 -0.4801  0.4297
 1995TIP3   OH227399   1.285   1.546  12.391  0.3075 -0.3882 -0.0910
 1995TIP3    H127400   1.264   1.591  12.310 -0.1624 -1.2948 -0.4888
 1995TIP3    H227401   1.228   1.470  12.392 -0.0530 -0.1350  1.3376
 1996TIP3   OH227402   6.266   4.006  13.266 -0.2923 -0.0178  0.0937
 1996TIP3    H127403   6.304   3.938  13.322 -1.8164 -1.6520 -0.7575
 1996TIP3    H227404   6.321   4.007  13.188  0.7387  0.9806  0.7872
 1997TIP3   OH227405   6.593   1.093  16.553  0.0676 -0.3284 -0.1394
 1997TIP3    H127406   6.630   1.044  16.479 -0.2342 -1.0688  0.1880
 1997TIP3    H227407   6.648   1.067  16.627  2.8821  3.2726 -0.6639
 1998TIP3   OH227408   3.248   5.482  10.428  0.3476 -0.1952 -0.2720
 1998TIP3    H127409   3.227   5.572  10.402  1.1180  0.1747  0.3721
 1998TIP3    H227410   3.180   5.429  10.386  1.4029  0.3800 -2.9215
 1999TIP3   OH227411   5.550   2.154   0.328 -0.1564  0.3801 -0.8717
 1999TIP3    H127412   5.610   2.085   0.298  0.7109  1.1585 -0.9773
 1999TIP3    H227413   5.551   2.146   0.423 -2.3077 -1.5863 -0.9136
 2000TIP3   OH227414   6.151   5.539  12.431  0.6480 -0.3202  0.3392
 2000TIP3    H127415   6.205   5.557  12.354  0.8624 -1.6846  0.1376
 2000TIP3    H227416   6.189   5.459  12.468  0.1697 -0.0232  1.5218
 2001TIP3   OH227417   4.243   3.958  11.732 -0.3044 -0.1055 -0.6473
 2001TIP3    H127418   4.177   4.000  11.676  0.1762 -1.0631 -1.9701
 2001TIP3    H227419   4.280   3.889  11.678  2.1819  0.7132 -0.1344
 2002TIP3   OH227420   1.813   0.629  11.317 -0.2802 -0.2735  0.4957
 2002TIP3    H127421   1.854   0.641  11.403 -1.5341  0.3702  1.0283
 2002TIP3    H227422   1.873   0.674  11.257 -0.6879  1.5674  1.3974
 2003TIP3   OH227423   4.482   1.435  16.972  0.0244 -0.0435  0.1190
 2003TIP3    H127424   4.446   1.348  16.954 -1.0270  0.1698  1.0408
 2003TIP3    H227425   4.509   1.468  16.887  0.4644 -1.2730 -0.2420
 2004TIP3   OH227426   5.989   6.675  12.161 -0.0151  0.0787 -0.3890
 2004TIP3    H127427   6.066   6.623  12.184  0.4757  0.5107 -0.9999
 2004TIP3    H227428   6.025   6.754  12.119 -0.7461  0.7769  0.2588
 2005TIP3   OH227429   1.157   3.599   6.263  0.3306 -0.0018  0.0291
 2005TIP3    H127430   1.132   3.692   6.265  0.0923 -0.0573 -0.2425
 2005TIP3    H227431   1.091   3.555   6.315 -0.7923 -0.2900 -1.5750
 2006TIP3   OH227432   5.750   4.648   4.381 -0.3353 -0.2106 -0.2718
 2006TIP3    H127433   5.676   4.698   4.346 -0.3154  0.0207  0.0087
 2006TIP3    H227434   5.820   4.713   4.389  0.3354 -0.7141 -1.8485
 2007TIP3   OH227435   1.680   6.075  11.898 -0.2277 -0.1497 -0.4925
 2007TIP3    H127436   1.735   6.003  11.867 -1.0200 -0.6532 -0.7413
 2007TIP3    H227437   1.634   6.106  11.820 -2.5233 -1.6706  0.1524
 2008TIP3   OH227438   2.638   0.207  16.082 -0.3551 -0.2206  0.0079
 2008TIP3    H127439   2.596   0.224  15.998 -1.6065 -0.5435  0.5335
 2008TIP3    H227440   2.715   0.155  16.061 -0.2997  0.2397 -0.9871
 2009TIP3   OH227441   3.686   4.977  16.830  0.0448 -0.0756 -0.6551
 2009TIP3    H127442   3.739   4.904  16.862 -0.8919 -1.1157 -1.3693
 2009TIP3    H227443   3.603   4.936  16.804 -0.9979  1.4384  0.1317
 2010TIP3   OH227444   0.609   3.005   3.765  0.1899 -0.0507 -0.1956
 2010TIP3    H127445   0.593   2.925   3.816  0.1118  0.1296  0.0647
 2010TIP3    H227446   0.543   3.003   3.696 -0.1713  0.0741  0.1462
 2011TIP3   OH227447   0.673   5.313   3.059 -0.1638  0.1822  0.1911
 2011TIP3    H127448   0.762   5.341   3.081 -1.4005  3.0601  2.0809
 2011TIP3    H227449   0.659   5.234   3.113  0.9987  0.0487  0.3385
 2012TIP3   OH227450   3.784   5.815   5.400  0.1418  0.1140  0.2148
 2012TIP3    H127451   3.838   5.872   5.453 -1.0153 -0.3941  2.0395
 2012TIP3    H227452   3.694   5.831   5.430 -0.4748 -0.8763 -0.9528
 2013TIP3   OH227453   1.617   2.691   4.351 -0.2207  0.4214 -0.2996
 2013TIP3    H127454   1.706   2.655   4.358 -0.8193 -0.8690  1.2103
 2013TIP3    H227455   1.601   2.696   4.257  0.7143 -1.2677 -0.5899
 2014TIP3   OH227456   0.813   2.615  14.774 -0.0675 -0.1537  0.2844
 2014TIP3    H127457   0.760   2.536  14.783 -1.9527  1.0665  0.4089
 2014TIP3    H227458   0.842   2.634  14.863 -0.3788 -0.2132  0.4001
 2015TIP3   OH227459   2.272   3.170   3.229  0.5498  0.7358 -0.6982
 2015TIP3    H127460   2.331   3.150   3.156  2.6140 -3.1511  1.6371
 2015TIP3    H227461   2.323   3.228   3.285  1.0819 -0.3108 -0.0584
 2016TIP3   OH227462   5.170   4.834  10.791 -0.1543  0.9292  0.7669
 2016TIP3    H127463   5.216   4.819  10.873 -1.0140  0.0760  1.1101
 2016TIP3    H227464   5.194   4.924  10.766  3.7480 -0.2559 -0.4189
 2017TIP3   OH227465   3.663   6.010   2.176 -0.1888 -0.6157 -0.1162
 2017TIP3    H127466   3.745   5.989   2.131  0.5343 -0.1598  0.9455
 2017TIP3    H227467   3.625   6.081   2.125  2.1996  2.1442  1.6412
 2018TIP3   OH227468   5.548   0.931  16.518  0.3068 -0.1655 -0.0314
 2018TIP3    H127469   5.462   0.890  16.516  0.0557  0.2842  1.0715
 2018TIP3    H227470   5.608   0.864  16.484 -0.2874 -0.9599  0.4694
 2019TIP3   OH227471   0.041   5.654   0.322  0.5385 -0.2910  0.1668
 2019TIP3    H127472  -0.049   5.685   0.335  0.5068 -0.4072  0.2304
 2019TIP3    H227473   0.036   5.598   0.244  0.7998  0.6916 -0.5651
 2020TIP3   OH227474   1.788   6.607  17.026  0.5295  0.6104 -0.1963
 2020TIP3    H127475   1.766   6.624  16.935  1.5207  3.8959  0.0297
 2020TIP3    H227476   1.868   6.556  17.022 -0.3725 -0.8131 -1.0865
 2021TIP3   OH227477   4.464   2.640  15.423 -1.3896 -0.3946  0.0299
 2021TIP3    H127478   4.545   2.632  15.373 -0.7005  0.0080  1.0506
 2021TIP3    H227479   4.411   2.703  15.374 -0.8590 -0.2486 -0.3528
 2022TIP3   OH227480   0.832   5.360  16.885 -0.4036  0.2010  0.2215
 2022TIP3    H127481   0.916   5.347  16.928 -0.7803  0.8214  1.1758
 2022TIP3    H227482   0.784   5.418  16.944 -1.1089  0.7010 -0.8181
 2023TIP3   OH227483   3.590   4.372  11.363 -0.0602  0.2642  0.1454
 2023TIP3    H127484   3.673   4.418  11.349 -0.0479  0.3995  0.6544
 2023TIP3    H227485   3.539   4.430  11.419 -0.2735 -0.0769  0.3107
 2024TIP3   OH227486   0.462   3.459   5.274 -0.0798  0.5246  0.0884
 2024TIP3    H127487   0.420   3.490   5.354  1.4385 -0.5418  1.3470
 2024TIP3    H227488   0.554   3.482   5.285  1.0530 -3.7154  0.8357
 2025TIP3   OH227489   3.703   0.463   1.728 -0.1111 -0.2275  0.4534
 2025TIP3    H127490   3.662   0.396   1.782  0.4346 -0.4260  0.6208
 2025TIP3    H227491   3.687   0.434   1.638  0.0616 -0.5437  0.5245
 2026TIP3   OH227492   6.265   3.709   2.071  0.6847  0.3430  0.3344
 2026TIP3    H127493   6.230   3.768   2.138 -0.3055  2.1983 -1.6846
 2026TIP3    H227494   6.189   3.659   2.042  0.6438  1.0331 -0.8001
 2027TIP3   OH227495   6.665   3.628   2.842  0.7636 -0.4830  0.1769
 2027TIP3    H127496   6.712   3.587   2.769  0.0439 -0.8645 -0.0770
 2027TIP3    H227497   6.696   3.718   2.842  1.8037 -0.8276  0.2729
 2028TIP3   OH227498   6.015   3.252   3.653  0.0728 -0.2792  0.5090
 2028TIP3    H127499   5.940   3.196   3.632 -0.9567  1.6092 -1.1595
 2028TIP3    H227500   6.068   3.251   3.573  1.1208 -0.4455  1.1787
 2029TIP3   OH227501   0.579   1.890   4.596 -0.6030  0.0679 -0.3658
 2029TIP3    H127502   0.509   1.826   4.603 -0.0910 -0.4052  0.6669
 2029TIP3    H227503   0.581   1.915   4.504 -1.1079 -1.0621 -0.6891
 2030TIP3   OH227504   5.741   2.896  16.672  0.5297  0.5215  0.0550
 2030TIP3    H127505   5.665   2.907  16.614  1.0719 -0.2525 -0.8189
 2030TIP3    H227506   5.806   2.851  16.619  1.6087  1.1470  0.8070
 2031TIP3   OH227507   1.982   4.345  17.107 -0.1542  0.4850  0.2883
 2031TIP3    H127508   1.977   4.281  17.178 -0.0349 -0.0632 -0.1952
 2031TIP3    H227509   1.899   4.393  17.112  1.1230  2.7627  2.9264
 2032TIP3   OH227510   5.192   2.863   3.347  0.5030  0.1293 -0.1473
 2032TIP3    H127511   5.138   2.932   3.386 -0.4602 -0.2598 -0.7767
 2032TIP3    H227512   5.193   2.793   3.413  0.3869  0.2104 -0.0580
 2033TIP3   OH227513   2.955   3.090  17.087 -0.4300  0.7261 -0.2857
 2033TIP3    H127514   2.938   3.017  17.027 -0.2024  0.8110 -0.4553
 2033TIP3    H227515   2.938   3.169  17.036  1.5839  0.8598 -0.8552
 2034TIP3   OH227516   1.961   0.205  12.618  0.0735 -0.4509 -0.3538
 2034TIP3    H127517   2.026   0.263  12.579  1.0953 -0.7326  0.8525
 2034TIP3    H227518   2.012   0.133  12.654 -0.7743 -0.1520  1.5825
 2035TIP3   OH227519   5.343   1.259  11.536  0.3850 -0.0616 -0.1665
 2035TIP3    H127520   5.263   1.241  11.586 -0.7482 -1.4069 -2.3422
 2035TIP3    H227521   5.352   1.354  11.538 -0.9355  0.0696  0.5861
 2036TIP3   OH227522   2.303   2.907  12.309  0.3178  0.3467 -0.9353
 2036TIP3    H127523   2.350   2.956  12.241  0.2049  1.6601 -0.0972
 2036TIP3    H227524   2.212   2.933  12.298  0.3352  0.7693 -0.1307
 2037TIP3   OH227525   0.811   1.305   1.282 -0.0591  1.0485  0.3520
 2037TIP3    H127526   0.884   1.315   1.220 -1.2865 -0.8729 -1.5509
 2037TIP3    H227527   0.784   1.395   1.301 -0.6592  1.8163 -3.2901
 2038TIP3   OH227528   4.633   3.249  13.113  0.4222  0.5066 -0.3285
 2038TIP3    H127529   4.580   3.328  13.105 -0.1328  0.1120 -0.5788
 2038TIP3    H227530   4.580   3.191  13.168  0.4856  0.0150 -0.7901
 2039TIP3   OH227531   3.284   3.200  12.189  0.1268 -0.5012  0.3792
 2039TIP3    H127532   3.358   3.164  12.141 -0.3151 -0.2362 -0.5131
 2039TIP3    H227533   3.324   3.252  12.259  0.8969  2.2051 -1.9118
 2040TIP3   OH227534   0.768   6.750  12.788 -0.0898 -0.0045 -0.4566
 2040TIP3    H127535   0.677   6.774  12.772 -0.5395 -0.5826  1.1255
 2040TIP3    H227536   0.818   6.819  12.744 -1.2270 -0.3246 -2.4014
 2041TIP3   OH227537   2.433   1.614  13.021 -0.4112 -0.4259  0.2424
 2041TIP3    H127538   2.444   1.522  13.046 -1.5775 -0.8493 -0.6885
 2041TIP3    H227539   2.486   1.663  13.083  0.9821 -1.7994  0.1809
 2042TIP3   OH227540   3.416   2.345  17.088  0.2619 -0.1722 -0.5765
 2042TIP3    H127541   3.450   2.317  17.173  1.4385  1.3587 -0.4896
 2042TIP3    H227542   3.453   2.283  17.025 -0.3673 -1.1292 -0.0374
 2043TIP3   OH227543   2.283   1.535   3.578 -0.1326  0.0457  0.5651
 2043TIP3    H127544   2.330   1.462   3.618 -1.2409 -0.3368  1.2117
 2043TIP3    H227545   2.328   1.549   3.495  1.0065 -0.4113  1.0781
 2044TIP3   OH227546   3.417   0.226   3.885 -0.6964  0.0756  0.3973
 2044TIP3    H127547   3.457   0.139   3.876 -1.2711 -0.2330  0.7630
 2044TIP3    H227548   3.480   0.286   3.844 -0.9319 -0.6667 -1.1235
 2045TIP3   OH227549   0.403   0.329   0.230  0.3899  0.0398  0.3040
 2045TIP3    H127550   0.346   0.394   0.189 -0.4421 -0.4786  0.6333
 2045TIP3    H227551   0.469   0.381   0.275  0.0730  0.6463  0.0824
 2046TIP3   OH227552   4.482   0.950   3.858  0.0777 -0.0384  0.4930
 2046TIP3    H127553   4.558   0.923   3.807  1.0884  0.6983  1.5561
 2046TIP3    H227554   4.434   1.009   3.801  1.3714  1.0365  0.4726
 2047TIP3   OH227555   1.690   0.448   6.134  0.0232  0.6719 -0.0420
 2047TIP3    H127556   1.730   0.530   6.165 -0.1597  1.3817 -1.6133
 2047TIP3    H227557   1.674   0.398   6.214  2.1263  1.2377  0.8037
 2048TIP3   OH227558   0.777   5.711  14.844  0.3998 -0.1054  0.5324
 2048TIP3    H127559   0.789   5.738  14.935  0.0849 -0.1119  0.5770
 2048TIP3    H227560   0.729   5.629  14.849  0.6587 -0.2654  0.3707
 2049TIP3   OH227561   5.543   2.318   0.098  0.2650 -0.5500 -0.1594
 2049TIP3    H127562   5.573   2.264   0.171 -0.1203  1.8521  1.9600
 2049TIP3    H227563   5.623   2.356   0.062  0.3249  1.7536  2.0771
 2050TIP3   OH227564   2.228   5.282  13.221  0.0792 -0.1222  0.2889
 2050TIP3    H127565   2.302   5.223  13.209  0.8698  0.2133  2.9005
 2050TIP3    H227566   2.183   5.249  13.298 -0.8565  1.2840  0.3838
 2051TIP3   OH227567   4.545   1.204  12.099 -0.2278  0.4646 -0.2807
 2051TIP3    H127568   4.553   1.299  12.083 -1.0756  1.0159  2.1957
 2051TIP3    H227569   4.635   1.176  12.115  0.0322  0.8454 -1.0268
 2052TIP3   OH227570   0.480   3.769  13.228 -0.1429 -0.4661 -0.2950
 2052TIP3    H127571   0.415   3.726  13.283 -0.3065 -1.7568 -1.4426
 2052TIP3    H227572   0.501   3.850  13.274 -0.6972 -1.2157  1.3542
 2053TIP3   OH227573   5.818   4.864  13.612  0.4577  0.5271  0.0380
 2053TIP3    H127574   5.897   4.812  13.595  0.9697  1.0132  0.8272
 2053TIP3    H227575   5.747   4.814  13.573  0.9508 -0.7065  0.6659
 2054TIP3   OH227576   2.124   1.045   4.174  0.2207 -0.6157 -0.1355
 2054TIP3    H127577   2.073   1.060   4.094 -0.3150  0.2070  0.3394
 2054TIP3    H227578   2.138   1.132   4.210  0.1008 -0.9975  0.8796
 2055TIP3   OH227579   6.789   6.628  14.498  0.2942  0.5788  0.0791
 2055TIP3    H127580   6.838   6.560  14.450  2.5815  0.3529  2.4661
 2055TIP3    H227581   6.855   6.695  14.518 -0.8984  1.3936  1.5032
 2056TIP3   OH227582   4.597   1.530   0.613  0.0399 -0.4880 -0.7062
 2056TIP3    H127583   4.526   1.533   0.678  0.1816 -2.0596 -0.4512
 2056TIP3    H227584   4.565   1.469   0.546  1.1690 -1.2435 -0.5669
 2057TIP3   OH227585   2.456   1.414  15.902 -0.2513 -0.3135 -0.7139
 2057TIP3    H127586   2.509   1.449  15.830 -0.7395 -0.1496 -1.0011
 2057TIP3    H227587   2.385   1.366  15.859 -1.2955  0.8718 -0.3856
 2058TIP3   OH227588   5.972   4.555   0.909  0.1682  0.5072  0.1581
 2058TIP3    H127589   5.995   4.638   0.867  1.8993  1.4314  2.6669
 2058TIP3    H227590   5.924   4.580   0.988  1.8722 -0.7138  1.6691
 2059TIP3   OH227591   2.431   4.685  14.813 -0.0756 -0.4666 -0.1416
 2059TIP3    H127592   2.423   4.712  14.722 -0.8216 -0.3425 -0.0479
 2059TIP3    H227593   2.525   4.679  14.829  0.0546 -1.3002 -1.1551
 2060TIP3   OH227594   5.642   4.283   2.137  0.1431 -0.0440  0.2682
 2060TIP3    H127595   5.610   4.373   2.127 -0.0930  0.0538  1.7195
 2060TIP3    H227596   5.738   4.291   2.131  0.1471  0.3770  0.8109
 2061TIP3   OH227597   3.298   4.351   1.717  0.3832 -0.0282  0.0003
 2061TIP3    H127598   3.322   4.322   1.629  1.3524  0.7269 -0.0020
 2061TIP3    H227599   3.332   4.440   1.723 -0.1842  0.1442  0.9427
 2062TIP3   OH227600   1.568   0.515   4.258 -0.7789 -0.8530 -0.2460
 2062TIP3    H127601   1.473   0.507   4.272 -0.7041 -1.8620 -0.2667
 2062TIP3    H227602   1.576   0.543   4.167 -1.0449 -1.6781 -0.5379
 2063TIP3   OH227603   0.509   1.793  16.555 -0.0218  0.7155 -0.0081
 2063TIP3    H127604   0.554   1.749  16.483 -1.6209 -0.1239 -0.5722
 2063TIP3    H227605   0.503   1.727  16.624 -2.1942  0.0211 -0.7544
 2064TIP3   OH227606   5.648   3.710  13.545  0.2408  0.4715 -0.2972
 2064TIP3    H127607   5.738   3.684  13.530  0.2892  0.1951  0.4413
 2064TIP3    H227608   5.649   3.806  13.534  0.6124  0.4666 -0.3237
 2065TIP3   OH227609   6.378   2.537   6.728  0.2733 -0.3121 -0.1315
 2065TIP3    H127610   6.432   2.491   6.664  0.1065  0.3733 -0.7857
 2065TIP3    H227611   6.441   2.590   6.778  0.7154 -2.4779  1.8050
 2066TIP3   OH227612   0.156   5.628  12.870 -0.2288  0.0688  0.1142
 2066TIP3    H127613   0.177   5.630  12.964 -0.6105 -0.8285  0.2277
 2066TIP3    H227614   0.067   5.663  12.866 -0.5632 -0.7540  0.1993
 2067TIP3   OH227615   5.855   1.796   1.387 -0.0205  0.3161  0.0836
 2067TIP3    H127616   5.852   1.867   1.451 -1.1804 -1.2807  1.9060
 2067TIP3    H227617   5.772   1.804   1.340  0.2108  0.6369 -0.2779
 2068TIP3   OH227618   2.588   4.425   0.257 -0.1594  0.2744 -0.0960
 2068TIP3    H127619   2.574   4.348   0.312  1.6549  1.4598  2.2374
 2068TIP3    H227620   2.535   4.494   0.299  2.1553  1.4970  1.0392
 2069TIP3   OH227621   6.120   4.015  17.187 -0.1984  0.5311 -0.2199
 2069TIP3    H127622   6.038   3.997  17.232 -0.6975  0.8561 -0.9800
 2069TIP3    H227623   6.176   3.941  17.209 -0.7042  0.2904  0.2835
 2070TIP3   OH227624   2.788   0.548  10.579 -0.5995 -0.5504  0.1995
 2070TIP3    H127625   2.742   0.500  10.648  0.9790  0.3581  1.9747
 2070TIP3    H227626   2.721   0.604  10.540 -1.3468 -0.3522  1.6844
 2071TIP3   OH227627   5.962   4.402   2.817 -0.2194 -0.6777  0.0521
 2071TIP3    H127628   5.873   4.434   2.797  0.6680  1.7777 -0.4249
 2071TIP3    H227629   5.988   4.451   2.895  1.3752  0.0925 -0.9173
 2072TIP3   OH227630   2.680   4.665   2.082  0.1862  0.3924 -0.3065
 2072TIP3    H127631   2.765   4.695   2.049  0.7786  1.9378  2.2975
 2072TIP3    H227632   2.701   4.612   2.159 -1.1773 -0.7487 -0.6787
 2073TIP3   OH227633   2.062   0.201   1.508 -0.7490 -0.2668  0.1098
 2073TIP3    H127634   2.038   0.196   1.601  1.1235  0.6212  0.6930
 2073TIP3    H227635   2.069   0.295   1.490 -1.7445 -0.4117 -1.1345
 2074TIP3   OH227636   3.732   1.750  12.268  0.4026 -0.0472 -0.4622
 2074TIP3    H127637   3.711   1.818  12.203  0.5414 -1.3010 -1.8795
 2074TIP3    H227638   3.670   1.680  12.249  1.1245 -0.8475  0.0879
 2075TIP3   OH227639   2.377   1.650   0.532  0.1137  0.4371  0.3181
 2075TIP3    H127640   2.284   1.647   0.510  0.2545  1.3878 -0.4920
 2075TIP3    H227641   2.386   1.725   0.592  0.4212  0.6326  0.0335
 2076TIP3   OH227642   5.568   5.900  12.049  0.0532 -0.2033  0.1436
 2076TIP3    H127643   5.518   5.981  12.045 -0.1102 -0.3148 -0.1528
 2076TIP3    H227644   5.608   5.892  11.962 -0.5241 -0.8066 -0.0812
 2077TIP3   OH227645   5.100   2.489   4.356 -0.4123 -0.4413 -0.2758
 2077TIP3    H127646   5.175   2.436   4.384  0.0177  0.9174  1.3047
 2077TIP3    H227647   5.106   2.491   4.261  0.5172 -1.8332 -0.2761
 2078TIP3   OH227648   5.974   1.083   0.267 -0.1880 -0.2815 -0.4823
 2078TIP3    H127649   5.941   1.003   0.225  0.2642 -0.4824 -0.4599
 2078TIP3    H227650   6.007   1.136   0.194 -0.8510  0.0705 -0.5430
 2079TIP3   OH227651   6.114   3.119   5.833  0.0526 -0.1623  0.4099
 2079TIP3    H127652   6.072   3.149   5.753 -0.5796  0.3694  0.9251
 2079TIP3    H227653   6.115   3.023   5.825 -1.6508 -0.2198  0.5452
 2080TIP3   OH227654   2.131   4.778  12.240 -0.1040 -0.5676  0.4159
 2080TIP3    H127655   2.081   4.726  12.304 -0.0022  0.9553  1.8157
 2080TIP3    H227656   2.222   4.760  12.262 -0.0429  1.1807  1.8599
 2081TIP3   OH227657   6.678   3.207   3.726 -0.4364  0.3940  0.1409
 2081TIP3    H127658   6.689   3.302   3.721  0.9547  0.2289 -0.2418
 2081TIP3    H227659   6.632   3.192   3.808 -1.1655  1.4343 -0.0579
 2082TIP3   OH227660   1.577   6.300   3.179 -0.2210  0.0543 -0.4536
 2082TIP3    H127661   1.571   6.205   3.166  0.9015 -0.3262  1.4113
 2082TIP3    H227662   1.491   6.333   3.152 -1.1525 -1.6921  0.1866
 2083TIP3   OH227663   1.286   4.256   5.525  0.1915  0.0852 -0.0223
 2083TIP3    H127664   1.260   4.246   5.617  0.4549 -1.2679 -0.0741
 2083TIP3    H227665   1.264   4.346   5.504 -0.5512  0.2043  1.1549
 2084TIP3   OH227666   6.059   0.822  13.274 -0.2648  0.1400 -0.2659
 2084TIP3    H127667   6.033   0.811  13.365 -0.5181  0.4644 -0.2961
 2084TIP3    H227668   6.036   0.740  13.231 -0.5594  0.1554 -0.1343
 2085TIP3   OH227669   5.278   1.686  12.945  0.0247 -0.3331 -0.0402
 2085TIP3    H127670   5.206   1.646  12.897 -1.9867  0.7098  1.9254
 2085TIP3    H227671   5.257   1.670  13.037  2.7161 -0.5958  0.5916
 2086TIP3   OH227672   4.341   6.668  12.842 -0.2227  0.1578 -0.1077
 2086TIP3    H127673   4.273   6.672  12.909  1.8488  1.0981  2.0805
 2086TIP3    H227674   4.388   6.586  12.859 -0.6070 -0.3592 -1.4283
 2087TIP3   OH227675   1.650   0.640  15.378  0.1051 -0.2279  0.2683
 2087TIP3    H127676   1.611   0.610  15.296 -0.8616 -2.1053  1.3635
 2087TIP3    H227677   1.657   0.562  15.432  1.8474  0.7468  1.5699
 2088TIP3   OH227678   5.624   1.101  16.715 -0.0387 -0.0956  0.2073
 2088TIP3    H127679   5.718   1.087  16.701  0.0837  0.9570 -0.1257
 2088TIP3    H227680   5.583   1.062  16.638  0.1739 -0.0155  0.0515
 2089TIP3   OH227681   0.811   6.698  16.944 -0.1040  0.0105 -0.2005
 2089TIP3    H127682   0.831   6.791  16.943 -0.2703  0.1031 -2.6265
 2089TIP3    H227683   0.891   6.655  16.915  0.4702 -0.8001  2.3593
 2090TIP3   OH227684   0.782   3.406   3.366 -0.4165  0.4620 -0.1448
 2090TIP3    H127685   0.702   3.390   3.317 -0.7978 -1.2554  0.9729
 2090TIP3    H227686   0.839   3.453   3.304 -2.6610  2.8889 -0.5596
 2091TIP3   OH227687   6.112   6.339   0.197  0.0684 -0.3949  0.0783
 2091TIP3    H127688   6.188   6.288   0.227  0.1947 -0.4115 -0.2644
 2091TIP3    H227689   6.083   6.386   0.275 -0.8609 -1.9953  0.7377
 2092TIP3   OH227690   1.014   5.442  17.176  0.0413 -0.2671  0.0590
 2092TIP3    H127691   1.052   5.523  17.143 -1.5141  0.2811 -0.4627
 2092TIP3    H227692   1.051   5.373  17.122  0.8773  0.1571  0.0829
 2093TIP3   OH227693   1.663   4.455   4.512  0.1527 -0.1611  0.1352
 2093TIP3    H127694   1.594   4.442   4.576  0.1996  1.9459  0.6799
 2093TIP3    H227695   1.725   4.515   4.554  1.4960 -0.7066 -0.9440
 2094TIP3   OH227696   1.781   3.257   3.120 -0.0851  0.1470 -0.1622
 2094TIP3    H127697   1.801   3.208   3.040 -0.9532 -0.0077 -0.2880
 2094TIP3    H227698   1.853   3.235   3.179 -0.6823 -1.6844 -0.0384
 2095TIP3   OH227699   4.961   2.842  13.323 -0.1432  0.3332 -0.3286
 2095TIP3    H127700   4.978   2.761  13.371  0.0752 -0.4356 -1.6548
 2095TIP3    H227701   5.033   2.849  13.261 -0.7629  0.9400 -0.9977
 2096TIP3   OH227702   0.544   0.620  14.048 -0.1299  0.6645  0.2921
 2096TIP3    H127703   0.452   0.636  14.026  0.2802  1.0083 -1.3061
 2096TIP3    H227704   0.557   0.665  14.131 -1.0959  1.7415 -0.1113
 2097TIP3   OH227705   6.612   4.297  15.293  0.3666 -0.1418 -0.0971
 2097TIP3    H127706   6.681   4.280  15.229 -0.5278 -1.2355 -0.8022
 2097TIP3    H227707   6.645   4.259  15.375  1.2843  0.7892 -0.0116
 2098TIP3   OH227708   5.583   4.306   3.995  0.1669  0.1600 -0.0200
 2098TIP3    H127709   5.562   4.329   3.904  1.3526  1.9438  0.1128
 2098TIP3    H227710   5.497   4.295   4.037 -0.4252  0.8455 -0.9878
 2099TIP3   OH227711   1.881   5.739  11.659  0.2149 -0.0653  0.5463
 2099TIP3    H127712   1.955   5.683  11.637 -0.2227 -0.3142 -0.3611
 2099TIP3    H227713   1.806   5.700  11.613  0.0848  1.7881 -0.9639
 2100TIP3   OH227714   5.317   6.654   1.314  0.2124 -0.1533 -0.0767
 2100TIP3    H127715   5.319   6.576   1.370  0.3143  0.9072  1.4554
 2100TIP3    H227716   5.404   6.692   1.324  0.3034 -0.0599 -1.1648
 2101TIP3   OH227717   6.084   0.537  16.206 -0.2692 -0.0824 -0.3109
 2101TIP3    H127718   5.997   0.555  16.241  0.3978 -0.0966  1.4681
 2101TIP3    H227719   6.131   0.495  16.279  2.1684  2.6625 -0.1399
 2102TIP3   OH227720   2.447   3.290   1.399  0.0950 -0.4062  0.7538
 2102TIP3    H127721   2.495   3.220   1.444  2.5437  0.7881  0.1367
 2102TIP3    H227722   2.478   3.287   1.309 -0.2348  1.0675  0.5685
 2103TIP3   OH227723   5.194   0.454  12.933 -0.4632 -0.3255 -0.0871
 2103TIP3    H127724   5.239   0.538  12.947 -0.8662 -0.2901  1.1415
 2103TIP3    H227725   5.152   0.436  13.017 -1.2072 -1.2773 -0.6527
 2104TIP3   OH227726   5.916   1.483   2.868  0.3777 -0.3752  0.1687
 2104TIP3    H127727   5.971   1.462   2.943  1.6929 -0.3958 -0.7622
 2104TIP3    H227728   5.958   1.439   2.794  0.3457  1.3908 -0.9673
 2105TIP3   OH227729   5.628   5.676  14.856 -0.0841 -0.4845 -0.1843
 2105TIP3    H127730   5.661   5.754  14.811 -0.9874  0.2604  0.4198
 2105TIP3    H227731   5.700   5.614  14.852  0.8358  0.5619 -0.2429
 2106TIP3   OH227732   4.305   2.724   1.731 -0.2521 -0.0341 -0.7252
 2106TIP3    H127733   4.383   2.701   1.781  1.4069 -0.5746 -3.3770
 2106TIP3    H227734   4.257   2.784   1.788  1.3805 -0.7290  1.5429
 2107TIP3   OH227735   2.499   6.061  15.175 -0.2700 -0.6657 -0.5650
 2107TIP3    H127736   2.450   6.044  15.094 -0.1701 -1.8239 -0.3964
 2107TIP3    H227737   2.589   6.071  15.146 -0.3422 -0.3365 -0.6788
 2108TIP3   OH227738   2.839   6.490   4.397  0.7165 -0.3188  0.0467
 2108TIP3    H127739   2.770   6.437   4.437 -0.0121 -0.0144 -0.7585
 2108TIP3    H227740   2.820   6.579   4.428 -0.3430  0.0567 -1.5440
 2109TIP3   OH227741   5.310   1.822  11.644  0.3449 -0.2069  0.2537
 2109TIP3    H127742   5.243   1.834  11.576  1.0017  1.7481 -0.1147
 2109TIP3    H227743   5.270   1.858  11.723  0.7152  0.4149  0.1665
 2110TIP3   OH227744   5.527   2.846  14.019 -0.3100  0.5487  0.1653
 2110TIP3    H127745   5.599   2.785  14.039 -0.8827  0.3710  1.8400
 2110TIP3    H227746   5.566   2.910  13.960  1.2005  0.3504  0.8912
 2111TIP3   OH227747   6.660   2.075   0.123 -0.2413 -0.0452 -0.2187
 2111TIP3    H127748   6.659   2.005   0.058 -0.2531  0.2181 -0.5034
 2111TIP3    H227749   6.734   2.053   0.181 -2.0942 -1.9709  1.5749
 2112TIP3   OH227750   2.143   0.521  15.001 -0.2629  0.2798  0.5810
 2112TIP3    H127751   2.212   0.559  14.947  0.4212 -0.6813  0.7495
 2112TIP3    H227752   2.188   0.457  15.056 -1.4662 -1.2883 -0.1946
 2113TIP3   OH227753   2.883   1.959  12.030 -0.6478  0.1299  0.5912
 2113TIP3    H127754   2.792   1.987  12.032 -0.6354  0.2621  3.4016
 2113TIP3    H227755   2.883   1.872  12.071  0.3089 -0.6773 -0.9943
 2114TIP3   OH227756   4.329   6.781   4.132 -0.0097  0.3216  0.2116
 2114TIP3    H127757   4.375   6.814   4.209 -1.3150 -0.4237  1.3538
 2114TIP3    H227758   4.238   6.769   4.161 -0.7202  0.7360 -1.6641
 2115TIP3   OH227759   0.508   4.747   5.844 -0.1819  0.1431  0.1555
 2115TIP3    H127760   0.514   4.790   5.758 -0.7339 -0.4719 -0.2006
 2115TIP3    H227761   0.525   4.817   5.907  0.5379  0.5411 -0.4632
 2116TIP3   OH227762   5.174   0.127   4.444 -0.2837  0.3779  0.0519
 2116TIP3    H127763   5.257   0.084   4.423  0.0734  1.5718 -1.0960
 2116TIP3    H227764   5.199   0.218   4.462 -1.3670  0.7882 -0.4700
 2117TIP3   OH227765   2.182   1.980  13.593  0.0710 -0.4646  0.0529
 2117TIP3    H127766   2.154   1.921  13.523  1.7355  0.4214 -1.4399
 2117TIP3    H227767   2.118   1.966  13.663  0.5573 -4.2723 -0.0521
 2118TIP3   OH227768   6.083   0.825   2.991  0.0213  0.0212 -0.4117
 2118TIP3    H127769   6.110   0.849   2.902  3.1498 -0.0085  0.4103
 2118TIP3    H227770   6.111   0.899   3.045 -1.1566 -0.2918  0.6842
 2119TIP3   OH227771   0.822   5.700  12.546 -0.0430  0.0757  0.1519
 2119TIP3    H127772   0.897   5.717  12.603  0.4339 -0.0291 -0.4377
 2119TIP3    H227773   0.860   5.691  12.458 -0.7563  0.1437 -0.1705
 2120TIP3   OH227774   3.592   4.220   1.366 -0.1495  0.3139  0.1277
 2120TIP3    H127775   3.655   4.284   1.334  1.7079 -1.0199  0.9506
 2120TIP3    H227776   3.579   4.161   1.292 -1.7093  1.4362 -0.5635
 2121TIP3   OH227777   1.804   4.200   5.758  0.0933 -0.0654 -0.0916
 2121TIP3    H127778   1.826   4.119   5.802 -1.4805  0.0142  0.9316
 2121TIP3    H227779   1.885   4.251   5.757  0.1001  0.1607  3.3026
 2122TIP3   OH227780   6.779   1.764   2.066 -0.4210  0.1859  0.2459
 2122TIP3    H127781   6.690   1.767   2.099 -0.0119  2.9851  1.3855
 2122TIP3    H227782   6.770   1.782   1.972 -1.0472  1.0595  0.4590
 2123TIP3   OH227783   1.302   0.459   0.011  0.3716 -0.2118 -0.8161
 2123TIP3    H127784   1.340   0.546   0.004 -0.3977  0.2052  0.0711
 2123TIP3    H227785   1.217   0.472   0.052 -0.3868 -1.2238 -1.9897
 2124TIP3   OH227786   2.804   5.149  14.065 -0.6505 -0.2039 -0.1841
 2124TIP3    H127787   2.886   5.098  14.065 -1.4690 -1.5727 -0.2293
 2124TIP3    H227788   2.800   5.187  14.153  0.2066  0.1924 -0.3012
 2125TIP3   OH227789   3.063   4.970  14.326 -0.0726 -0.2462  0.3289
 2125TIP3    H127790   2.991   4.960  14.388  0.2927 -1.4117  0.6070
 2125TIP3    H227791   3.139   4.933  14.372  0.3689 -0.4220 -0.5167
 2126TIP3   OH227792   4.029   0.655   1.740 -0.3705  0.5963  1.1844
 2126TIP3    H127793   4.071   0.578   1.777  0.9299  0.3354 -0.6710
 2126TIP3    H227794   4.101   0.718   1.728 -0.2712  0.0588 -2.2871
 2127TIP3   OH227795   4.011   5.394  16.081 -0.2823  0.2618  0.0685
 2127TIP3    H127796   4.018   5.437  16.166  1.0796 -0.7906  0.5206
 2127TIP3    H227797   3.926   5.422  16.047 -0.5898  1.1719  1.5003
 2128TIP3   OH227798   4.980   5.990  11.495  0.1708 -0.0863 -1.1268
 2128TIP3    H127799   5.062   6.013  11.451  2.0278  0.6486  2.3822
 2128TIP3    H227800   4.995   5.901  11.528  0.0358  0.4435  0.4450
 2129TIP3   OH227801   0.144   1.602   4.575  0.3867 -0.1117 -0.7069
 2129TIP3    H127802   0.129   1.608   4.669  0.5757  0.4251 -0.7086
 2129TIP3    H227803   0.156   1.508   4.559 -0.8148 -0.3367 -0.3826
 2130TIP3   OH227804   6.576   0.684  11.830 -0.1273 -0.1645 -0.1177
 2130TIP3    H127805   6.556   0.632  11.908 -1.0791 -0.0164 -0.2481
 2130TIP3    H227806   6.560   0.624  11.757  0.2153 -0.1298 -0.2245
 2131TIP3   OH227807   3.795   6.563  13.531  0.1770 -0.4337  0.2912
 2131TIP3    H127808   3.728   6.630  13.515  0.6106 -0.2214 -0.6955
 2131TIP3    H227809   3.835   6.547  13.445  0.0937 -1.9572  0.5052
 2132TIP3   OH227810   5.997   5.203   2.003  0.2922 -0.4319 -0.2617
 2132TIP3    H127811   6.035   5.181   1.918 -0.0873 -0.9792 -0.2923
 2132TIP3    H227812   5.909   5.164   2.001 -0.5205  1.3012 -0.4180
 2133TIP3   OH227813   5.879   2.033  13.730 -0.0819  0.0589  0.2348
 2133TIP3    H127814   5.812   2.092  13.695  0.6127  0.5650 -0.2458
 2133TIP3    H227815   5.901   1.976  13.656 -0.5699 -0.6576  0.6257
 2134TIP3   OH227816   4.980   0.320   5.917  0.6672 -0.4945 -0.4275
 2134TIP3    H127817   4.944   0.370   5.844 -1.2855 -1.1618  0.0136
 2134TIP3    H227818   4.967   0.228   5.891  0.2550 -0.7373  0.6076
 2135TIP3   OH227819   5.685   5.067   5.292  0.2748  0.3617  0.1614
 2135TIP3    H127820   5.613   5.117   5.331 -1.0210 -2.7600  2.1778
 2135TIP3    H227821   5.747   5.055   5.364  1.7738  1.0906 -0.9561
 2136TIP3   OH227822   5.154   5.973   2.830  0.4049  0.2295 -0.0291
 2136TIP3    H127823   5.067   5.962   2.869  0.5289 -0.0788  0.1678
 2136TIP3    H227824   5.143   6.044   2.767  0.0949  0.4397  0.2542
 2137TIP3   OH227825   3.643   0.164   0.462 -0.1278 -0.6027  0.5617
 2137TIP3    H127826   3.717   0.109   0.488  0.7618  0.5057  0.4149
 2137TIP3    H227827   3.682   0.248   0.439 -1.5721  0.5780  2.1525
 2138TIP3   OH227828   0.175   6.679   2.014  0.5382 -0.3680 -0.2744
 2138TIP3    H127829   0.097   6.702   1.963  0.7876 -3.1654 -2.1936
 2138TIP3    H227830   0.222   6.761   2.026 -2.5590  1.3778  0.7950
 2139TIP3   OH227831   3.211   2.697   0.659  0.3326 -0.0825 -0.7204
 2139TIP3    H127832   3.165   2.687   0.576 -1.4346 -1.6887  0.3738
 2139TIP3    H227833   3.286   2.638   0.652 -0.4808 -1.1431 -0.7587
 2140TIP3   OH227834   2.453   4.571   3.155 -0.1496 -0.0442 -0.1590
 2140TIP3    H127835   2.452   4.660   3.120  0.4967  0.6207  1.4475
 2140TIP3    H227836   2.527   4.569   3.215 -1.6435 -0.8984  1.7773
 2141TIP3   OH227837   5.613   6.391   4.062 -0.4393 -0.0661 -0.1874
 2141TIP3    H127838   5.636   6.315   4.116 -0.7458 -0.0912 -0.0878
 2141TIP3    H227839   5.656   6.465   4.106 -0.6708 -0.0892  0.0866
 2142TIP3   OH227840   4.976   0.862  12.865 -0.1038 -0.4031  0.4000
 2142TIP3    H127841   5.003   0.952  12.884 -1.1714 -0.2001  1.0171
 2142TIP3    H227842   5.013   0.844  12.778 -0.8142  1.0236 -0.2196
 2143TIP3   OH227843   1.341   0.612   3.928 -0.4938  0.0832  0.1675
 2143TIP3    H127844   1.325   0.603   3.834  0.5590 -0.1041 -0.0027
 2143TIP3    H227845   1.310   0.529   3.966 -0.3425 -0.0880 -0.0859
 2144TIP3   OH227846   0.299   6.257   3.758 -0.3135 -0.2217  0.3920
 2144TIP3    H127847   0.328   6.323   3.821 -1.7685  0.5707  0.2902
 2144TIP3    H227848   0.281   6.306   3.678 -0.1773 -0.9534 -0.1002
 2145TIP3   OH227849   1.551   4.464  11.647  0.0646 -0.5155  0.8699
 2145TIP3    H127850   1.616   4.444  11.715  2.0620  2.3073 -0.0300
 2145TIP3    H227851   1.603   4.498  11.574 -2.3534  0.5468 -0.4382
 2146TIP3   OH227852   5.468   3.189  16.628  0.2605 -0.0371  0.2522
 2146TIP3    H127853   5.376   3.213  16.621  0.4652  0.5477 -0.7232
 2146TIP3    H227854   5.468   3.094  16.640 -0.4486 -0.3836 -1.9319
 2147TIP3   OH227855   1.743   1.350  16.064  0.5593  0.5522 -0.1645
 2147TIP3    H127856   1.788   1.434  16.063  0.6050  0.5795  1.5497
 2147TIP3    H227857   1.700   1.346  16.150  0.6056 -1.1975 -0.1762
 2148TIP3   OH227858   6.615   2.973  13.060  0.4587 -0.0010  0.2589
 2148TIP3    H127859   6.605   3.068  13.051 -0.2778 -0.0184  0.7398
 2148TIP3    H227860   6.655   2.961  13.146  2.4199 -0.0564 -0.6131
 2149TIP3   OH227861   0.172   0.613   5.502  0.0907 -0.1528 -0.1699
 2149TIP3    H127862   0.100   0.669   5.530 -0.0148  0.6024 -1.8664
 2149TIP3    H227863   0.213   0.585   5.584 -0.2614  1.8555  0.7622
 2150TIP3   OH227864   3.194   3.199  13.570  0.2902  0.9231  0.2479
 2150TIP3    H127865   3.283   3.235  13.580  0.1567  1.6143 -0.8836
 2150TIP3    H227866   3.138   3.276  13.566 -0.1202  0.5756 -1.2073
 2151TIP3   OH227867   4.003   4.483   0.035  0.2995  0.4076  0.1218
 2151TIP3    H127868   4.040   4.473  -0.052  1.0851  0.1959  0.4713
 2151TIP3    H227869   4.061   4.546   0.079 -0.2982  0.7879  0.3749
 2152TIP3   OH227870   1.253   3.127   5.214 -0.3605 -0.2571  0.3601
 2152TIP3    H127871   1.272   3.034   5.224  0.4323  0.0956  2.9415
 2152TIP3    H227872   1.326   3.171   5.257 -0.4780  1.6224 -1.2083
 2153TIP3   OH227873   6.206   6.606   1.783 -0.6401  0.1911  0.4451
 2153TIP3    H127874   6.272   6.542   1.758  1.9540  2.5966  0.6544
 2153TIP3    H227875   6.158   6.623   1.702  0.4523 -0.0263 -0.2758
 2154TIP3   OH227876   3.661   3.706  14.721  0.3611 -0.1159 -0.2727
 2154TIP3    H127877   3.580   3.716  14.771 -0.4903  0.0326 -1.6300
 2154TIP3    H227878   3.692   3.618  14.744 -0.7921 -0.6248 -0.5791
 2155TIP3   OH227879   3.186   5.187   0.497  0.0075  0.1542  0.0006
 2155TIP3    H127880   3.277   5.198   0.469  0.3494  1.9811  1.6582
 2155TIP3    H227881   3.151   5.276   0.503 -1.5194 -0.4447  0.5763
 2156TIP3   OH227882   1.213   5.047   4.326 -0.5064  0.3785 -0.0438
 2156TIP3    H127883   1.273   4.990   4.277  0.3972  0.3539  1.0388
 2156TIP3    H227884   1.203   5.124   4.271  1.7758  1.0704  0.3799
 2157TIP3   OH227885   3.896   5.891   1.451 -0.6117 -0.2430  0.0542
 2157TIP3    H127886   3.842   5.824   1.409 -0.6096  1.1463 -2.3719
 2157TIP3    H227887   3.914   5.955   1.381 -0.3374  2.1157  2.1198
 2158TIP3   OH227888   1.806   5.925   0.766 -0.4155 -0.6369 -0.2622
 2158TIP3    H127889   1.752   5.851   0.796 -1.1998 -0.2002 -0.5499
 2158TIP3    H227890   1.892   5.887   0.750 -0.8373 -1.5171 -0.5192
 2159TIP3   OH227891   3.375   4.470  11.544  0.0833 -0.2250  0.5590
 2159TIP3    H127892   3.291   4.460  11.590 -1.6976 -1.4446 -2.6446
 2159TIP3    H227893   3.394   4.382  11.512 -1.5517  1.0887 -5.1890
 2160TIP3   OH227894   5.838   0.969  14.543 -0.3114 -0.0261  0.1841
 2160TIP3    H127895   5.914   1.008  14.586 -0.9215  2.2272 -0.6248
 2160TIP3    H227896   5.763   1.012  14.583 -1.0332 -0.4168 -0.7186
 2161TIP3   OH227897   5.623   0.472  15.379  0.3592 -0.2384  0.0031
 2161TIP3    H127898   5.691   0.460  15.311  1.8018  0.1310  1.3224
 2161TIP3    H227899   5.597   0.563  15.370  1.5266  0.1968  0.7750
 2162TIP3   OH227900   4.665   3.834  11.528 -0.4197  0.2952  0.1146
 2162TIP3    H127901   4.709   3.815  11.445  1.0209  3.2765  0.0804
 2162TIP3    H227902   4.692   3.762  11.586 -1.6307 -1.9607 -1.9525
 2163TIP3   OH227903   6.520   3.815  15.687 -0.5449 -0.3540  0.9276
 2163TIP3    H127904   6.563   3.751  15.632 -1.0840 -0.4403  0.5989
 2163TIP3    H227905   6.580   3.890  15.690 -0.6426 -0.2367 -0.0052
 2164TIP3   OH227906   3.519   0.830  16.963 -0.1967 -0.1482 -1.1105
 2164TIP3    H127907   3.461   0.760  16.995 -0.4403  0.6130  0.1589
 2164TIP3    H227908   3.511   0.826  16.868 -3.4517  0.8227 -0.9819
 2165TIP3   OH227909   6.514   2.668   0.374 -0.0389  0.0802  0.3281
 2165TIP3    H127910   6.477   2.621   0.449 -2.4224  1.5256  0.1463
 2165TIP3    H227911   6.484   2.618   0.298  0.9207 -0.3926  0.2392
 2166TIP3   OH227912   5.935   0.543  13.285  0.1660  0.0520 -0.3338
 2166TIP3    H127913   5.842   0.562  13.269  0.0923  2.0170  1.9294
 2166TIP3    H227914   5.936   0.503  13.372  1.4257 -0.4337 -0.5521
 2167TIP3   OH227915   6.135   2.286  15.769  0.4632 -0.4950  0.1206
 2167TIP3    H127916   6.148   2.274  15.863  2.4117  1.1053  0.1034
 2167TIP3    H227917   6.074   2.359  15.762 -0.8855 -1.5673  0.0930
 2168TIP3   OH227918   3.816   4.836  10.287  0.1632  0.3008  0.1832
 2168TIP3    H127919   3.838   4.928  10.303  0.7841  0.0039  1.1080
 2168TIP3    H227920   3.832   4.824  10.193  1.5274  0.7635  0.3319
 2169TIP3   OH227921   2.857   4.367  11.102 -0.3715  0.5031  0.4570
 2169TIP3    H127922   2.846   4.284  11.056  1.1916 -0.3263  1.5003
 2169TIP3    H227923   2.867   4.432  11.032 -0.3670 -0.3667 -0.3703
 2170TIP3   OH227924   3.376   0.794   4.220 -0.3260 -0.5343 -0.4180
 2170TIP3    H127925   3.377   0.785   4.315 -1.7090  1.0961 -0.2088
 2170TIP3    H227926   3.410   0.882   4.204 -1.7465 -0.1197 -1.3064
 2171TIP3   OH227927   0.191   2.737   0.723 -0.5970  0.0347  0.7307
 2171TIP3    H127928   0.260   2.686   0.681 -1.2358  0.8103 -1.4045
 2171TIP3    H227929   0.225   2.826   0.725 -2.0536  0.7472 -1.8456
 2172TIP3   OH227930   1.829   3.316  12.632  0.0665  0.0853 -0.3831
 2172TIP3    H127931   1.783   3.235  12.611  0.9137 -0.2998 -0.7785
 2172TIP3    H227932   1.908   3.288  12.679  0.0552  0.7195  0.0338
 2173TIP3   OH227933   1.248   3.122   2.239  0.3385  0.2647 -0.5438
 2173TIP3    H127934   1.272   3.040   2.282  0.0825  1.4398  2.0628
 2173TIP3    H227935   1.154   3.114   2.222  0.3628 -0.0675 -0.5226
 2174TIP3   OH227936   0.690   6.699  14.984 -0.1759 -0.0497 -0.1108
 2174TIP3    H127937   0.600   6.709  15.016 -0.4042 -1.3100 -0.2822
 2174TIP3    H227938   0.683   6.639  14.910  0.8681 -0.6628  0.2563
 2175TIP3   OH227939   1.330   3.636  16.926 -0.4411  0.4111  0.1703
 2175TIP3    H127940   1.338   3.620  16.832 -1.0673 -0.9364  0.3170
 2175TIP3    H227941   1.236   3.643  16.941 -0.4644 -1.0262  0.9038
 2176TIP3   OH227942   0.269   2.703   3.606 -0.2824  0.0981  0.4568
 2176TIP3    H127943   0.188   2.688   3.654  0.9115 -1.9500  2.0041
 2176TIP3    H227944   0.298   2.616   3.578  0.1952  1.0014 -2.2212
 2177TIP3   OH227945   0.303   5.190   2.309  0.1782  0.2263  0.6589
 2177TIP3    H127946   0.384   5.217   2.267  0.1475  0.8599  0.9920
 2177TIP3    H227947   0.294   5.249   2.384 -0.7921  0.4274  0.3953
 2178TIP3   OH227948   1.127   0.687   0.128  1.1416  0.0842 -0.2323
 2178TIP3    H127949   1.068   0.613   0.111 -0.3958  1.0767  0.5899
 2178TIP3    H227950   1.128   0.736   0.046 -1.4510  1.5479  0.4766
 2179TIP3   OH227951   5.080   5.312   3.125  0.0246  0.1260 -0.7283
 2179TIP3    H127952   5.120   5.227   3.104  0.5443  0.2998 -0.4631
 2179TIP3    H227953   5.103   5.368   3.051  1.3777  0.5814  0.0056
 2180TIP3   OH227954   1.098   3.063   5.467  0.2752  0.3758 -0.2984
 2180TIP3    H127955   1.036   3.083   5.397 -1.1358  0.4308  0.8993
 2180TIP3    H227956   1.155   3.139   5.472  0.1843  0.5056 -1.1593
 2181TIP3   OH227957   1.164   3.830  15.725 -0.1225 -0.0285  0.1334
 2181TIP3    H127958   1.187   3.868  15.809  3.7753 -1.6432 -0.0179
 2181TIP3    H227959   1.100   3.762  15.746 -0.4513  0.6809  1.5299
 2182TIP3   OH227960   0.933   2.742   1.688 -0.0590  0.5656 -0.0359
 2182TIP3    H127961   0.864   2.729   1.622  1.8121 -1.6414 -1.6909
 2182TIP3    H227962   0.962   2.832   1.674  0.4230  0.1007 -2.4518
 2183TIP3   OH227963   2.375   2.377   5.661  0.3276 -0.3397 -0.4880
 2183TIP3    H127964   2.301   2.344   5.610  0.5164 -1.8099  0.1215
 2183TIP3    H227965   2.343   2.458   5.700 -0.0861  0.3967 -2.2525
 2184TIP3   OH227966   3.115   2.177  13.750  0.0236  0.6193 -0.1123
 2184TIP3    H127967   3.129   2.111  13.818 -0.2270  0.7585  0.0739
 2184TIP3    H227968   3.032   2.152  13.709  0.0644  0.6634 -0.2229
 2185TIP3   OH227969   6.503   0.647  13.646  0.5995  0.2630  0.5155
 2185TIP3    H127970   6.484   0.688  13.731 -0.1786  0.6385  0.1753
 2185TIP3    H227971   6.422   0.600  13.624  1.4343 -1.4211  0.8552
 2186TIP3   OH227972   2.304   4.295  14.985 -0.3466  0.0578 -0.3300
 2186TIP3    H127973   2.246   4.358  15.027 -0.1602  0.5699 -0.8276
 2186TIP3    H227974   2.386   4.302  15.034 -0.0839  0.7563 -0.8514
 2187TIP3   OH227975   6.404   6.739   3.896  0.4311  0.2071 -0.2598
 2187TIP3    H127976   6.396   6.707   3.806  0.5637 -0.5804  0.0048
 2187TIP3    H227977   6.392   6.834   3.888 -0.3305  0.0679 -1.0120
 2188TIP3   OH227978   6.750   4.123  15.453  0.5026 -0.6690 -0.2904
 2188TIP3    H127979   6.764   4.084  15.540  0.1839 -1.5534 -0.6367
 2188TIP3    H227980   6.823   4.184  15.444 -0.4235  0.7926  1.3503
 2189TIP3   OH227981   4.008   5.177  14.254 -0.6448  0.4549  0.7377
 2189TIP3    H127982   3.987   5.269  14.239 -3.0403  0.2133  2.1251
 2189TIP3    H227983   4.068   5.154  14.183 -3.2982  1.9574 -2.2491
 2190TIP3   OH227984   5.803   6.499   1.181  0.2193 -0.0684 -0.5585
 2190TIP3    H127985   5.724   6.485   1.232  0.1104  0.7867 -0.4751
 2190TIP3    H227986   5.857   6.422   1.197 -0.3738 -0.4087 -0.1985
 2191TIP3   OH227987   0.559   0.307  12.721 -0.0681 -0.3586 -0.5748
 2191TIP3    H127988   0.584   0.232  12.667 -0.2695 -0.8356 -0.0136
 2191TIP3    H227989   0.468   0.324  12.696  0.1962  0.1608 -1.2206
 2192TIP3   OH227990   3.692   3.844   6.232 -0.1189  0.4351 -0.7235
 2192TIP3    H127991   3.749   3.873   6.160  0.3166 -1.6778 -1.3006
 2192TIP3    H227992   3.738   3.870   6.311 -0.3338  2.3095 -1.1599
 2193TIP3   OH227993   0.498   6.137  11.797 -0.3614  0.6575  0.1957
 2193TIP3    H127994   0.503   6.188  11.877 -1.2460  2.0215 -0.5868
 2193TIP3    H227995   0.440   6.064  11.818  1.2019 -0.2856  1.4295
 2194TIP3   OH227996   3.888   2.787  17.037  0.3323 -0.0406 -0.1902
 2194TIP3    H127997   3.913   2.798  17.129 -1.3138 -1.8754  0.5475
 2194TIP3    H227998   3.934   2.708  17.009 -2.0956 -1.7513  0.3079
 2195TIP3   OH227999   2.681   3.392  10.992  0.0942 -0.2587 -0.4028
 2195TIP3    H128000   2.681   3.315  10.935 -2.9046  1.3476 -2.8526
 2195TIP3    H228001   2.595   3.391  11.035  1.2837  0.0185  2.2273
 2196TIP3   OH228002   1.364   4.800   0.087 -0.4602 -0.0290 -0.5762
 2196TIP3    H128003   1.383   4.883   0.131 -2.2765 -0.6917  1.6517
 2196TIP3    H228004   1.364   4.822  -0.006  2.3327  1.7198 -0.2855
 2197TIP3   OH228005   2.346   1.383  17.034  0.2251  0.2117  0.2115
 2197TIP3    H128006   2.279   1.325  17.070 -0.4416  1.0543  0.3774
 2197TIP3    H228007   2.405   1.325  16.986 -0.5209 -0.5782  0.2144
 2198TIP3   OH228008   1.428   5.650   0.486 -1.1586  0.5343 -0.3497
 2198TIP3    H128009   1.477   5.574   0.456  2.3962  1.6505  2.0031
 2198TIP3    H228010   1.360   5.614   0.543 -1.0697 -0.9610 -1.1527
 2199TIP3   OH228011   0.526   4.258  12.983 -0.0914 -0.4987  0.2733
 2199TIP3    H128012   0.457   4.319  12.960  0.2569 -0.8601 -1.9618
 2199TIP3    H228013   0.574   4.244  12.902  1.3884 -1.8013  1.3036
 2200TIP3   OH228014   0.219   0.153  13.630  0.5434  0.5529  0.9866
 2200TIP3    H128015   0.285   0.083  13.625 -1.4649 -1.4676  1.2510
 2200TIP3    H228016   0.238   0.197  13.712  0.8912 -0.7295  1.6199
 2201TIP3   OH228017   0.360   1.588  13.722 -0.7525  0.6795  0.0669
 2201TIP3    H128018   0.294   1.637  13.673 -1.3460 -0.4000 -0.2412
 2201TIP3    H228019   0.430   1.652  13.738 -1.3784  1.5471 -0.5529
 2202TIP3   OH228020   3.189   5.209   2.315 -0.0554  0.8638 -0.1550
 2202TIP3    H128021   3.161   5.294   2.349 -0.6969  0.6099 -0.0449
 2202TIP3    H228022   3.233   5.231   2.232  0.7143  1.3934  0.3790
 2203TIP3   OH228023   3.150   4.523  14.474 -0.1980 -0.5365  0.4695
 2203TIP3    H128024   3.116   4.436  14.454 -0.8699 -0.1893  0.0872
 2203TIP3    H228025   3.088   4.559  14.537 -1.0761  0.4517 -0.9042
 2204TIP3   OH228026   2.550   3.869   2.738 -0.0708 -0.2340 -0.1828
 2204TIP3    H128027   2.495   3.947   2.747  0.6606  0.2698  0.0161
 2204TIP3    H228028   2.518   3.826   2.658 -0.8729 -0.0596  0.0341
 2205TIP3   OH228029   6.646   0.845  17.025  0.2217  0.5078 -0.5102
 2205TIP3    H128030   6.695   0.919  17.060 -0.8891  0.8874  0.2879
 2205TIP3    H228031   6.713   0.782  17.000  1.1570  1.4659 -0.4987
 2206TIP3   OH228032   1.956   5.055  13.099 -0.2815 -0.6699  0.3234
 2206TIP3    H128033   1.891   5.124  13.083 -0.1217 -1.0333 -2.4312
 2206TIP3    H228034   1.910   4.991  13.153 -2.5802 -1.2160 -2.0457
 2207TIP3   OH228035   6.075   1.682   2.619 -0.2645  0.4646  0.3862
 2207TIP3    H128036   6.094   1.775   2.612  0.1359  0.3518 -0.1114
 2207TIP3    H228037   6.118   1.654   2.700  0.6215  0.4847 -0.0545
 2208TIP3   OH228038   5.461   4.698   3.010  0.3838 -0.1162  0.0380
 2208TIP3    H128039   5.552   4.669   3.001  0.6512 -0.2910  2.6438
 2208TIP3    H228040   5.467   4.792   3.027  0.1256 -0.1902  0.5770
 2209TIP3   OH228041   5.233   1.590   5.201 -0.7768 -0.3482 -0.1990
 2209TIP3    H128042   5.233   1.594   5.297 -1.5576  1.0367 -0.2382
 2209TIP3    H228043   5.310   1.537   5.180  0.1486  0.3713  1.1638
 2210TIP3   OH228044   2.716   3.347   0.291  0.3541  0.4876 -0.2200
 2210TIP3    H128045   2.629   3.325   0.324  0.7614  0.0035  0.5528
 2210TIP3    H228046   2.772   3.345   0.368  1.0323  0.9101 -0.6927
 2211TIP3   OH228047   4.910   3.946   4.228  0.0872 -0.2431 -0.3784
 2211TIP3    H128048   4.877   3.922   4.315  0.1642 -0.6589 -0.4619
 2211TIP3    H228049   4.838   3.924   4.168 -0.2014  0.6131 -0.3598
 2212TIP3   OH228050   5.389   4.713   5.072  0.6626  0.1789  0.0815
 2212TIP3    H128051   5.423   4.658   5.001 -0.7486 -1.5272  0.6509
 2212TIP3    H228052   5.389   4.656   5.148 -4.6387 -0.5488 -0.1175
 2213TIP3   OH228053   6.572   5.072   0.242  0.2137  0.0405 -0.3144
 2213TIP3    H128054   6.482   5.105   0.243  0.3896  0.5235 -0.2105
 2213TIP3    H228055   6.613   5.117   0.168  0.5913  0.4275  0.1249
 2214TIP3   OH228056   0.978   4.100   1.478 -0.3158 -0.4919 -0.0343
 2214TIP3    H128057   0.918   4.161   1.436  0.2469  0.0905 -0.0085
 2214TIP3    H228058   0.932   4.068   1.555 -0.0905  0.9650  0.7306
 2215TIP3   OH228059   0.545   0.182  15.483 -0.4107  0.2901 -0.3565
 2215TIP3    H128060   0.583   0.117  15.423  0.6487 -1.3593  1.9412
 2215TIP3    H228061   0.452   0.182  15.462 -0.3580 -1.6002 -0.7790
 2216TIP3   OH228062   1.640   6.288   4.075 -0.0927  0.0641  0.5059
 2216TIP3    H128063   1.677   6.228   4.140 -2.6526 -3.5023 -1.0205
 2216TIP3    H228064   1.635   6.236   3.994 -3.2029  2.0678 -0.7683
 2217TIP3   OH228065   5.586   0.301  13.692  0.5069  0.9401  0.1554
 2217TIP3    H128066   5.577   0.259  13.778  0.7447  0.9079  0.1663
 2217TIP3    H228067   5.510   0.271  13.643 -0.4475  2.1693  0.8478
 2218TIP3   OH228068   2.200   4.003   2.498  0.0920  0.0807  0.2134
 2218TIP3    H128069   2.218   4.036   2.410  0.5515  0.4050  0.4298
 2218TIP3    H228070   2.105   4.002   2.504  0.0458 -0.2663 -0.4095
 2219TIP3   OH228071   3.152   3.356   5.487 -0.6309 -0.1582  0.1203
 2219TIP3    H128072   3.112   3.350   5.573 -0.6185 -0.4574  0.1061
 2219TIP3    H228073   3.079   3.348   5.426 -0.5544 -0.7177  0.0941
 2220TIP3   OH228074   6.209   1.316   2.248  0.0966 -0.1666  0.6412
 2220TIP3    H128075   6.127   1.276   2.220  0.6690 -1.5984  0.9181
 2220TIP3    H228076   6.275   1.282   2.187  0.7455 -0.3396  1.4154
 2221TIP3   OH228077   6.168   6.682  14.661  0.0500  0.2268 -0.3168
 2221TIP3    H128078   6.249   6.718  14.696  0.1500 -0.6730  0.3920
 2221TIP3    H228079   6.178   6.587  14.667 -1.2088  0.0995  0.1614
 2222TIP3   OH228080   2.279   3.190   4.793 -0.1785  0.5857 -0.1674
 2222TIP3    H128081   2.374   3.203   4.793  0.0433 -0.8307 -0.7487
 2222TIP3    H228082   2.265   3.113   4.848 -0.8087 -0.1776 -1.3470
 2223TIP3   OH228083   1.948   3.983  13.607  0.1968 -0.3049 -0.0229
 2223TIP3    H128084   1.903   4.032  13.538 -1.7310 -0.0209  1.3746
 2223TIP3    H228085   1.976   3.902  13.564 -0.5282  0.0682 -1.2594
 2224TIP3   OH228086   5.288   4.265  13.138  0.4405 -0.6039 -0.7679
 2224TIP3    H128087   5.276   4.196  13.073 -1.7620 -0.3657 -0.6655
 2224TIP3    H228088   5.287   4.219  13.222  0.3278 -0.5816 -0.7574
 2225TIP3   OH228089   6.343   1.722  12.500  0.2488 -0.7862  0.2573
 2225TIP3    H128090   6.434   1.707  12.523  0.7147  2.9127  1.4754
 2225TIP3    H228091   6.346   1.765  12.415 -0.1621  0.7131  0.9615
 2226TIP3   OH228092   1.944   5.773  13.449 -0.2301 -0.3708  0.1546
 2226TIP3    H128093   2.034   5.801  13.466  0.0481 -2.0345  1.6836
 2226TIP3    H228094   1.890   5.847  13.477  0.6012  0.2606  0.1303
 2227TIP3   OH228095   4.245   1.585  13.480  0.0978 -0.0155 -0.0266
 2227TIP3    H128096   4.317   1.523  13.484  0.5568  0.1331 -3.4651
 2227TIP3    H228097   4.197   1.562  13.401 -1.1908  2.4609 -0.0659
 2228TIP3   OH228098   4.657   2.167  13.102 -0.6140 -0.0358 -0.2670
 2228TIP3    H128099   4.750   2.148  13.095  0.1175  2.9670 -0.2117
 2228TIP3    H228100   4.638   2.162  13.195 -0.4505 -0.3215 -0.2475
 2229TIP3   OH228101   1.325   6.750  11.070 -0.0535 -1.4512 -0.1256
 2229TIP3    H128102   1.389   6.777  11.136 -0.5977 -0.9662  0.2211
 2229TIP3    H228103   1.254   6.711  11.121 -0.8110 -0.4192 -0.3506
 2230TIP3   OH228104   5.299   6.719   4.682  0.5504  0.2620  0.5165
 2230TIP3    H128105   5.320   6.633   4.645 -1.0652  0.1671 -0.2817
 2230TIP3    H228106   5.368   6.776   4.650  0.3048 -0.2518 -0.9972
 2231TIP3   OH228107   0.224   1.753  14.219  0.5752 -0.4831  0.4140
 2231TIP3    H128108   0.211   1.691  14.147 -1.0705  0.1785  0.0894
 2231TIP3    H228109   0.312   1.788  14.206  0.4251 -0.6208 -1.0845
 2232TIP3   OH228110   4.379   6.441  15.249 -0.1884 -0.1905  0.4283
 2232TIP3    H128111   4.447   6.426  15.184 -1.2846 -0.3396 -0.7279
 2232TIP3    H228112   4.301   6.462  15.198 -0.9005  0.4962  1.7233
 2233TIP3   OH228113   2.575   1.056  16.529  0.0463 -0.1295  0.0602
 2233TIP3    H128114   2.489   1.090  16.554 -0.3734 -1.8023  0.9892
 2233TIP3    H228115   2.560   0.964  16.507  1.7937 -0.8147  1.4756
 2234TIP3   OH228116   4.106   0.925  16.154 -0.0146  0.7169  0.0406
 2234TIP3    H128117   4.163   0.935  16.230  0.1613 -2.5012  0.4461
 2234TIP3    H228118   4.167   0.905  16.082 -0.2957  2.3748 -0.7103
 2235TIP3   OH228119   6.553   0.650   0.191  0.3201 -0.1987  0.3205
 2235TIP3    H128120   6.506   0.567   0.198  0.0374 -0.0842 -0.1834
 2235TIP3    H228121   6.508   0.709   0.251  0.9342 -0.5893  1.1903
 2236TIP3   OH228122   1.478   2.265   3.884 -0.4076  0.1502  0.0058
 2236TIP3    H128123   1.495   2.185   3.933 -1.7124  0.3689  0.8494
 2236TIP3    H228124   1.398   2.247   3.834 -0.1608  0.5936 -0.5644
 2237TIP3   OH228125   4.680   0.813  16.576 -0.0720  0.6908  0.0102
 2237TIP3    H128126   4.621   0.841  16.647  0.7536  3.3881 -0.2675
 2237TIP3    H228127   4.754   0.772  16.621 -1.3761 -1.3834  0.4263
 2238TIP3   OH228128   1.241   5.856   3.198 -0.6429 -0.4690 -0.1337
 2238TIP3    H128129   1.197   5.935   3.229  0.8996  0.1501  0.5929
 2238TIP3    H228130   1.228   5.792   3.269  0.9588  0.2372  0.8586
 2239TIP3   OH228131   3.734   4.116   3.504  0.3410  0.0071  0.2249
 2239TIP3    H128132   3.780   4.199   3.518  0.3558 -0.0592  0.5866
 2239TIP3    H228133   3.705   4.119   3.413 -2.5895  1.9212  1.0672
 2240TIP3   OH228134   3.395   4.690   2.551  0.3922  0.0382  0.3844
 2240TIP3    H128135   3.428   4.758   2.493 -0.1210 -1.0273 -1.2438
 2240TIP3    H228136   3.419   4.608   2.507  0.1742 -0.8241  1.8037
 2241TIP3   OH228137   6.241   4.560   0.441 -0.5648  0.2621  0.3032
 2241TIP3    H128138   6.325   4.584   0.402 -1.3764  1.0290 -1.0751
 2241TIP3    H228139   6.245   4.464   0.450  0.7580  0.3641  1.0711
 2242TIP3   OH228140   2.599   4.025  15.218  0.4662  0.3331  0.4707
 2242TIP3    H128141   2.671   3.965  15.201  0.5572 -0.2209  2.5688
 2242TIP3    H228142   2.638   4.112  15.210  0.3689  0.2136 -2.4409
 2243TIP3   OH228143   0.273   2.564  15.830  0.8274  0.1929  0.2440
 2243TIP3    H128144   0.318   2.648  15.834 -0.9035  1.1370  2.7345
 2243TIP3    H228145   0.238   2.559  15.741  0.9956  2.1248  0.0336
 2244TIP3   OH228146   6.222   3.171  14.625  0.0283 -0.1593  0.4104
 2244TIP3    H128147   6.274   3.091  14.617 -0.0665 -0.1880  0.0724
 2244TIP3    H228148   6.135   3.147  14.594 -0.1315 -0.0538  0.7766
 2245TIP3   OH228149   4.464   1.272   5.625  0.1444 -0.1783 -0.2825
 2245TIP3    H128150   4.456   1.248   5.533  1.6414 -0.9548 -0.2509
 2245TIP3    H228151   4.388   1.232   5.668 -0.4685  0.0475 -1.1497
 2246TIP3   OH228152   0.753   5.176   0.893  0.4727  0.4385  0.5132
 2246TIP3    H128153   0.731   5.130   0.974  0.4044 -0.2236  0.1247
 2246TIP3    H228154   0.729   5.267   0.910  0.9146  0.3973  1.4059
 2247TIP3   OH228155   5.255   5.130  16.201  0.0610 -0.6367  0.6508
 2247TIP3    H128156   5.190   5.061  16.188  1.7976 -1.9703 -2.0293
 2247TIP3    H228157   5.338   5.083  16.209  0.9012  1.0452  2.9183
 2248TIP3   OH228158   2.172   4.358   1.469  0.4632 -0.1373 -0.5414
 2248TIP3    H128159   2.124   4.352   1.387  0.6494 -0.4197 -0.6309
 2248TIP3    H228160   2.217   4.442   1.465  0.1583  0.0237 -0.5583
 2249TIP3   OH228161   5.840   3.057  14.336 -0.2083 -0.2706 -0.9094
 2249TIP3    H128162   5.878   2.985  14.287  0.6011 -0.6336  0.2270
 2249TIP3    H228163   5.913   3.117  14.351 -0.1896 -0.6610  0.7165
 2250TIP3   OH228164   4.579   2.708   5.590 -0.0337 -0.1578  0.7820
 2250TIP3    H128165   4.617   2.645   5.652  0.7356  0.9292  1.4479
 2250TIP3    H228166   4.596   2.793   5.629  2.6462  0.7687 -2.0034
 2251TIP3   OH228167   5.185   0.779  13.580  0.1184 -0.4931  0.1523
 2251TIP3    H128168   5.107   0.740  13.619 -0.7581  1.4429  0.4081
 2251TIP3    H228169   5.257   0.751  13.637 -0.7687  0.0162  1.5492
 2252TIP3   OH228170   3.121   5.174   3.534 -0.3088  0.3030 -0.3461
 2252TIP3    H128171   3.134   5.171   3.439  0.5446  2.5799 -0.3479
 2252TIP3    H228172   3.185   5.238   3.565 -0.4922 -0.4927  1.8020
 2253TIP3   OH228173   1.536   4.528  16.065  0.4567  0.0320 -0.4974
 2253TIP3    H128174   1.473   4.591  16.100 -0.0769  0.2872 -1.8659
 2253TIP3    H228175   1.599   4.515  16.136 -0.7866  0.2394  0.6727
 2254TIP3   OH228176   1.037   5.012  14.476 -0.5220 -0.2203 -0.0358
 2254TIP3    H128177   1.016   4.930  14.520 -0.6661 -1.1422 -1.7212
 2254TIP3    H228178   1.062   5.072  14.546 -0.4169 -1.7010  1.2351
 2255TIP3   OH228179   0.040   5.871  13.997 -0.5446 -0.1632 -0.2064
 2255TIP3    H128180   0.020   5.923  13.919 -1.2810 -1.8002 -1.1602
 2255TIP3    H228181   0.103   5.805  13.967  1.4507  0.9406  1.3003
 2256TIP3   OH228182   6.592   2.908   5.246 -0.0214  0.0962 -0.8271
 2256TIP3    H128183   6.589   2.984   5.304  5.4842 -1.5677  2.3894
 2256TIP3    H228184   6.535   2.843   5.287  0.5663  0.3273  0.3950
 2257TIP3   OH228185   5.397   3.794  12.487 -0.4198 -0.3608 -0.3658
 2257TIP3    H128186   5.365   3.840  12.564 -2.6305 -0.1056 -1.3833
 2257TIP3    H228187   5.424   3.708  12.520 -0.2911  0.1260  0.8403
 2258TIP3   OH228188   0.700   0.381  17.064  0.4844 -0.0258  0.3392
 2258TIP3    H128189   0.705   0.442  16.991 -0.6374  0.7229  0.8626
 2258TIP3    H228190   0.612   0.344  17.060  0.6400 -0.4920  0.9148
 2259TIP3   OH228191   0.227   3.347  10.990 -0.2677 -0.4876 -0.5945
 2259TIP3    H128192   0.226   3.443  10.991 -1.3573 -0.4444  1.5755
 2259TIP3    H228193   0.163   3.323  11.057 -0.6411 -2.7590 -1.6859
 2260TIP3   OH228194   1.509   0.067  12.654 -0.1977 -0.4663  0.0935
 2260TIP3    H128195   1.542   0.155  12.637  1.2569 -0.7472  1.1966
 2260TIP3    H228196   1.578   0.009  12.624 -0.9768 -1.2269 -0.2737
 2261TIP3   OH228197   4.011   6.511   5.092 -0.3290 -0.0604 -0.7344
 2261TIP3    H128198   3.978   6.449   5.156 -0.4707  0.3730 -0.3791
 2261TIP3    H228199   3.934   6.538   5.041 -0.6083  1.1793  0.2916
 2262TIP3   OH228200   1.875   2.405  15.371 -0.2432 -0.1813 -0.0671
 2262TIP3    H128201   1.892   2.352  15.293  1.1509 -0.5948  0.4787
 2262TIP3    H228202   1.800   2.460  15.348 -0.0962 -0.5698 -1.5448
 2263TIP3   OH228203   0.883   4.318  11.134 -0.2369  0.0780 -0.7961
 2263TIP3    H128204   0.809   4.344  11.079 -0.9681  1.0459  0.5964
 2263TIP3    H228205   0.924   4.400  11.160 -1.4265 -0.1375  2.1056
 2264TIP3   OH228206   5.539   5.408  15.400 -0.5532  0.6491  0.0519
 2264TIP3    H128207   5.583   5.347  15.458 -0.7709  1.4409  1.0871
 2264TIP3    H228208   5.594   5.487  15.402  0.5208  0.0382 -2.4163
 2265TIP3   OH228209   0.973   5.907   5.713 -0.4523 -0.2053 -0.2456
 2265TIP3    H128210   0.958   6.001   5.724  2.1834  0.3897 -0.9551
 2265TIP3    H228211   0.986   5.896   5.619  2.2738 -0.6580  0.0954
 2266TIP3   OH228212   4.750   2.642  15.303 -0.3091  0.0075  0.2471
 2266TIP3    H128213   4.843   2.629  15.318 -0.0045  0.3163 -1.2224
 2266TIP3    H228214   4.729   2.585  15.230 -1.7546 -1.5765  1.8175
 2267TIP3   OH228215   1.605   4.175  11.433  0.0136 -0.5814 -0.1945
 2267TIP3    H128216   1.533   4.119  11.404 -0.3772 -0.1632 -0.0470
 2267TIP3    H228217   1.572   4.264  11.419  0.9367 -0.3825 -1.2240
 2268TIP3   OH228218   2.851   2.819   1.878 -0.0527  0.1639  0.8482
 2268TIP3    H128219   2.918   2.762   1.917  0.0675  0.0015  0.4014
 2268TIP3    H228220   2.819   2.770   1.802 -1.7370 -0.4293  1.8896
 2269TIP3   OH228221   1.341   1.486  13.637 -0.0387  0.3835  0.0749
 2269TIP3    H128222   1.420   1.530  13.667  1.0804 -0.6001 -1.2696
 2269TIP3    H228223   1.359   1.393  13.653 -1.1941  0.1929  0.3192
 2270TIP3   OH228224   1.645   1.329  13.413 -0.2120  0.4738  0.2530
 2270TIP3    H128225   1.697   1.400  13.376  0.4142  0.0914  0.3639
 2270TIP3    H228226   1.691   1.249  13.385  1.0397  0.1751  2.8245
 2271TIP3   OH228227   6.102   1.242  16.598 -0.1794  0.1338 -0.5071
 2271TIP3    H128228   6.174   1.197  16.553  1.2518  0.7328  1.0758
 2271TIP3    H228229   6.023   1.197  16.569  1.0419 -2.2731 -0.3122
 2272TIP3   OH228230   2.497   0.138   0.585 -0.0397  0.4117  0.2248
 2272TIP3    H128231   2.443   0.130   0.506 -0.3115 -0.1333  0.4608
 2272TIP3    H228232   2.578   0.092   0.564  0.2182  0.9618 -0.0180
 2273TIP3   OH228233   5.553   2.763   5.683  0.3118 -0.1789 -0.8208
 2273TIP3    H128234   5.612   2.705   5.635 -0.0516 -1.0559 -0.2444
 2273TIP3    H228235   5.566   2.739   5.775  0.7531  1.2323 -0.4838
 2274TIP3   OH228236   3.206   0.651  11.993  0.2059 -0.4522 -0.0799
 2274TIP3    H128237   3.237   0.735  12.028  0.7919 -0.8787  0.4522
 2274TIP3    H228238   3.130   0.630  12.047 -0.8804  0.4580 -1.2014
 2275TIP3   OH228239   3.412   0.021   5.209 -0.1808 -0.3513  0.0091
 2275TIP3    H128240   3.489   0.018   5.266  0.4230 -1.7876 -0.8345
 2275TIP3    H228241   3.448   0.035   5.121 -0.9164 -0.7233 -0.3564
 2276TIP3   OH228242   2.764   5.488  12.828 -0.7139  0.0648 -0.4200
 2276TIP3    H128243   2.815   5.461  12.905  0.4320  0.5179 -0.9968
 2276TIP3    H228244   2.829   5.524  12.768 -1.8364  1.5221 -0.8054
 2277TIP3   OH228245   5.094   4.452  15.257 -0.2805  0.3133  0.2057
 2277TIP3    H128246   5.077   4.367  15.219  0.1376  1.1933 -2.0790
 2277TIP3    H228247   5.039   4.513  15.208 -1.0876  1.3236  2.2256
 2278TIP3   OH228248   3.254   6.679   0.422  0.8541  0.3431 -0.3924
 2278TIP3    H128249   3.270   6.592   0.459 -2.2065  0.5896  1.9046
 2278TIP3    H228250   3.300   6.738   0.482 -0.5399  0.4925  0.5689
 2279TIP3   OH228251   0.569   0.434  14.870  0.2631 -0.9019  0.4666
 2279TIP3    H128252   0.516   0.497  14.919 -1.5967 -1.5139 -0.6499
 2279TIP3    H228253   0.529   0.349  14.891 -0.1655 -1.2382 -1.5532
 2280TIP3   OH228254   3.422   3.565   0.358  0.4174  0.3506  0.1563
 2280TIP3    H128255   3.397   3.493   0.417  2.4837 -2.7780 -2.4166
 2280TIP3    H228256   3.510   3.589   0.386  0.4286  0.5986 -0.0915
 2281TIP3   OH228257   0.961   3.709   4.425  0.6248 -0.5366  0.4084
 2281TIP3    H128258   1.023   3.713   4.352 -0.4745 -0.0898 -0.5374
 2281TIP3    H228259   0.877   3.689   4.383 -0.3995  1.6039  1.2964
 2282TIP3   OH228260   4.505   3.679  16.580  0.2364  0.0487 -0.1190
 2282TIP3    H128261   4.597   3.691  16.557  0.1428  0.0483 -0.4927
 2282TIP3    H228262   4.475   3.766  16.608 -0.0671  0.4164 -1.4929
 2283TIP3   OH228263   4.640   1.649   5.478  0.1389  0.0648  0.5363
 2283TIP3    H128264   4.550   1.663   5.451  0.0890 -0.1054  0.6097
 2283TIP3    H228265   4.635   1.578   5.543  0.4821 -1.0324 -0.5865
 2284TIP3   OH228266   0.065   1.291  13.028 -0.2503  0.5737 -0.6029
 2284TIP3    H128267   0.060   1.196  13.042 -1.1839  0.7382  0.2644
 2284TIP3    H228268   0.158   1.311  13.034 -0.2602  0.1234  2.1440
 2285TIP3   OH228269   0.978   6.068  15.448 -0.1348  0.2434 -0.4003
 2285TIP3    H128270   1.006   6.043  15.535 -1.6750  0.6024  0.2334
 2285TIP3    H228271   1.059   6.091  15.402  0.6839  0.1502  0.9559
 2286TIP3   OH228272   6.750   1.250  14.846 -0.4043  0.4610 -0.2809
 2286TIP3    H128273   6.697   1.176  14.815 -1.2497  1.0732 -0.3363
 2286TIP3    H228274   6.783   1.291  14.766  1.1341 -0.5890 -0.2240
 2287TIP3   OH228275   3.527   4.474  15.556 -0.5001  0.4063  0.1784
 2287TIP3    H128276   3.609   4.499  15.514 -1.6590  0.4260 -2.2839
 2287TIP3    H228277   3.507   4.388  15.518 -1.4124  0.2306  1.0379
 2288TIP3   OH228278   0.999   0.131  15.696 -0.3349 -0.5191  0.9017
 2288TIP3    H128279   0.932   0.117  15.630  1.6295  2.2752 -1.9534
 2288TIP3    H228280   0.976   0.213  15.738  0.2900 -0.5009  1.2274
 2289TIP3   OH228281   1.565   0.642   2.442 -0.1934 -0.3093 -0.1064
 2289TIP3    H128282   1.594   0.588   2.369  0.6542  0.5023 -0.3821
 2289TIP3    H228283   1.524   0.580   2.503  2.4254 -1.6212  0.4732
 2290TIP3   OH228284   0.803   5.735  10.504 -0.0114 -0.5931  0.1783
 2290TIP3    H128285   0.713   5.702  10.504 -0.4283  0.4984  0.2815
 2290TIP3    H228286   0.794   5.830  10.494  1.0416 -0.2235  2.1447
 2291TIP3   OH228287   5.337   6.041  14.558  0.0384  0.4443  0.4187
 2291TIP3    H128288   5.394   5.991  14.500  1.4775  3.1906 -0.7143
 2291TIP3    H228289   5.255   6.050  14.510  0.4434  0.8175 -0.2037
 2292TIP3   OH228290   4.422   2.389   0.063  0.6067 -0.7020 -0.0360
 2292TIP3    H128291   4.472   2.308   0.070  2.2113  0.2450  0.0821
 2292TIP3    H228292   4.487   2.458   0.077 -0.5627  0.6248 -0.8955
 2293TIP3   OH228293   3.775   3.729  15.482 -0.0447  0.3589  0.0684
 2293TIP3    H128294   3.797   3.808  15.530  1.2338  0.7282 -1.0549
 2293TIP3    H228295   3.850   3.671  15.494 -0.7664 -0.5286  0.4998
 2294TIP3   OH228296   5.064   6.094   0.839  0.0155 -0.4822  0.4656
 2294TIP3    H128297   5.142   6.141   0.809 -1.3538  0.8397 -1.1829
 2294TIP3    H228298   5.025   6.153   0.905  0.2973 -1.0719  1.1755
 2295TIP3   OH228299   0.598   2.649   1.829 -0.0218  0.2432  0.0005
 2295TIP3    H128300   0.688   2.664   1.857 -0.3786  0.5503  0.9975
 2295TIP3    H228301   0.560   2.737   1.821  0.3173  0.2488 -2.3782
 2296TIP3   OH228302   0.243   0.247  14.994 -0.2893  0.4008  0.3530
 2296TIP3    H128303   0.198   0.319  14.949  0.4474  0.2584 -0.6202
 2296TIP3    H228304   0.192   0.169  14.972 -1.0388  0.5879  1.3407
 2297TIP3   OH228305   2.439   0.119   5.173  0.5133  0.1085 -0.7564
 2297TIP3    H128306   2.406   0.110   5.084 -1.3235 -1.6802  0.0301
 2297TIP3    H228307   2.399   0.200   5.205 -1.5663 -0.9599 -0.5133
 2298TIP3   OH228308   0.214   6.076  10.661 -0.2370 -0.4312  0.1790
 2298TIP3    H128309   0.177   6.017  10.594 -0.7869 -0.1739  0.2465
 2298TIP3    H228310   0.173   6.161  10.642  0.4928 -0.0850  0.1280
 2299TIP3   OH228311   0.183   4.391   6.499 -0.4053 -0.2273  0.5212
 2299TIP3    H128312   0.127   4.314   6.488  0.4232 -0.9932  1.5083
 2299TIP3    H228313   0.128   4.454   6.546 -1.0097 -0.2929 -0.0853
 2300TIP3   OH228314   4.233   1.011   1.272  0.3826 -0.0045 -0.2533
 2300TIP3    H128315   4.144   1.028   1.241  0.8013  3.7889  0.1120
 2300TIP3    H228316   4.288   1.063   1.214  2.3132 -1.4320  0.2020
 2301TIP3   OH228317   1.488   2.293  14.735  0.3880  0.1389  0.7309
 2301TIP3    H128318   1.583   2.284  14.737  0.3588 -0.2323  0.4870
 2301TIP3    H228319   1.456   2.215  14.781  0.1428 -0.8571 -1.0420
 2302TIP3   OH228320   2.131   5.875  12.418  0.5489  0.1943  0.2641
 2302TIP3    H128321   2.195   5.943  12.397  0.9194 -0.0661  0.5362
 2302TIP3    H228322   2.165   5.835  12.499  0.9701 -1.0919 -0.5270
 2303TIP3   OH228323   5.348   3.210  13.341 -0.2325  0.2253  0.1353
 2303TIP3    H128324   5.383   3.129  13.305  0.5820 -0.0989  1.6174
 2303TIP3    H228325   5.266   3.186  13.383  0.2160  0.0726  0.9425
 2304TIP3   OH228326   0.490   5.394  12.695 -0.0317  0.3385  0.4444
 2304TIP3    H128327   0.538   5.321  12.733 -0.4568  0.1141  0.5617
 2304TIP3    H228328   0.527   5.405  12.608 -0.8065 -0.8459 -0.0658
 2305TIP3   OH228329   5.134   3.865  12.325  0.6217 -0.4242  0.7616
 2305TIP3    H128330   5.203   3.929  12.346  0.4208  0.9247 -2.1131
 2305TIP3    H228331   5.181   3.784  12.305  1.0966 -0.4533  1.9609
 2306TIP3   OH228332   4.690   3.221  16.784 -0.5463  0.3869 -0.3110
 2306TIP3    H128333   4.626   3.286  16.756  0.1811  0.4626 -1.8722
 2306TIP3    H228334   4.769   3.272  16.802 -0.5823  0.1621  0.5396
 2307TIP3   OH228335   2.600   0.196  14.957  0.1036  0.3562 -0.1240
 2307TIP3    H128336   2.653   0.262  14.913  1.1591 -1.6230 -2.0546
 2307TIP3    H228337   2.522   0.186  14.902  0.0252 -0.0836  0.0591
 2308TIP3   OH228338   3.856   0.951  15.611  0.1507  0.0653 -0.2730
 2308TIP3    H128339   3.763   0.956  15.589  0.6201  0.6496 -2.3052
 2308TIP3    H228340   3.885   0.868  15.574  0.4796 -0.0501  0.2313
 2309TIP3   OH228341   3.694   6.488  15.826  0.2164 -0.0235 -0.2820
 2309TIP3    H128342   3.669   6.429  15.755  0.4509  0.6543 -0.9487
 2309TIP3    H228343   3.664   6.574  15.797  0.5945  0.3154  0.3057
 2310TIP3   OH228344   6.675   1.493  15.031 -0.1972  0.1929  0.0105
 2310TIP3    H128345   6.739   1.510  15.100 -0.0928 -0.8818  0.1848
 2310TIP3    H228346   6.727   1.466  14.956 -0.4742 -1.7336  0.4691
 2311TIP3   OH228347   5.973   0.147  14.183 -0.1600  0.1677  0.1273
 2311TIP3    H128348   6.016   0.069  14.218 -0.0467 -0.6659 -1.7461
 2311TIP3    H228349   6.011   0.158  14.096 -1.0244  1.6410 -0.0986
 2312TIP3   OH228350   5.144   4.717   3.272 -0.0592  0.2471  0.3480
 2312TIP3    H128351   5.088   4.639   3.275 -1.4794  1.2178 -0.0656
 2312TIP3    H228352   5.137   4.748   3.181 -1.0004  1.8873  0.9486
 2313TIP3   OH228353   2.146   4.023   1.311 -0.0948  0.1589 -0.4672
 2313TIP3    H128354   2.144   3.938   1.269 -2.1561  0.2651 -0.7074
 2313TIP3    H228355   2.054   4.041   1.332  0.5128  1.5156  1.2133
 2314TIP3   OH228356   3.007   5.165   0.289  0.3328  0.3686  0.0007
 2314TIP3    H128357   3.047   5.133   0.370 -0.0795 -0.0065  0.0681
 2314TIP3    H228358   2.991   5.086   0.238 -1.0794  0.4027  0.3390
 2315TIP3   OH228359   0.819   5.607   2.189  0.1257  0.0924 -0.2759
 2315TIP3    H128360   0.726   5.598   2.210  0.0234  0.3582 -0.6153
 2315TIP3    H228361   0.860   5.628   2.273  0.1480 -1.8391  0.2494
 2316TIP3   OH228362   4.769   2.529   3.482  0.4139 -0.1702  0.0492
 2316TIP3    H128363   4.824   2.474   3.426  0.0170 -0.0647 -0.4535
 2316TIP3    H228364   4.680   2.496   3.469  0.2174  0.3518  0.0222
 2317TIP3   OH228365   1.714   1.510  16.585  0.2543 -0.2393  0.3254
 2317TIP3    H128366   1.723   1.600  16.618 -0.2231  0.4675 -1.3337
 2317TIP3    H228367   1.804   1.481  16.570  0.4051  0.0453  0.6601
 2318TIP3   OH228368   6.387   3.536  12.375 -0.4650  0.2552 -0.3840
 2318TIP3    H128369   6.294   3.514  12.381  0.1594 -2.7670  0.2176
 2318TIP3    H228370   6.418   3.488  12.298  0.3088  2.7057 -1.6983
 2319TIP3   OH228371   3.098   1.175  16.237 -0.5524  0.5386 -0.1542
 2319TIP3    H128372   3.116   1.111  16.168 -0.4546  1.3451 -0.8903
 2319TIP3    H228373   3.180   1.221  16.249 -0.3362 -0.1287  1.0913
 2320TIP3   OH228374   4.706   1.127  14.001  0.1013  0.2765 -0.1878
 2320TIP3    H128375   4.773   1.082  14.051  0.4914  0.4670 -0.5365
 2320TIP3    H228376   4.741   1.215  13.987 -0.4353  0.5336  0.0569
 2321TIP3   OH228377   5.772   3.302   5.864  0.7320  0.4353  0.4132
 2321TIP3    H128378   5.711   3.229   5.876  2.8908 -1.0861  3.3246
 2321TIP3    H228379   5.782   3.339   5.951  3.1236  1.2940 -0.1588
 2322TIP3   OH228380   0.583   5.581   5.224  0.1595 -0.3175  0.2247
 2322TIP3    H128381   0.530   5.501   5.216 -0.1252 -0.1194  0.1261
 2322TIP3    H228382   0.667   5.550   5.259  0.0020 -0.6417  0.3234
 2323TIP3   OH228383   3.087   1.731  12.096 -0.0752 -0.4380  0.6263
 2323TIP3    H128384   3.040   1.751  12.178 -2.2097 -1.7025 -0.2154
 2323TIP3    H228385   3.149   1.662  12.120  0.3235  0.1833  1.4424
 2324TIP3   OH228386   1.813   0.171   4.726 -0.6937 -0.2729 -0.1279
 2324TIP3    H128387   1.900   0.210   4.737 -1.0616  0.9703 -1.2685
 2324TIP3    H228388   1.827   0.077   4.737  0.9941 -0.1998 -1.2559
 2325TIP3   OH228389   1.957   4.486   3.638  0.0495  0.1053  0.0217
 2325TIP3    H128390   1.924   4.513   3.724 -0.2056  0.3469 -0.1486
 2325TIP3    H228391   2.014   4.558   3.611  0.4507 -0.1560  0.1655
 2326TIP3   OH228392   5.359   2.607   3.433 -0.0049 -0.0418 -0.3081
 2326TIP3    H128393   5.380   2.514   3.443 -1.6262 -0.2570  1.6537
 2326TIP3    H228394   5.305   2.612   3.355  0.7920 -0.6076 -0.9060
 2327TIP3   OH228395   4.419   5.516  10.437 -0.0481 -0.2345  0.1088
 2327TIP3    H128396   4.410   5.530  10.342  1.4984  0.0395 -0.0312
 2327TIP3    H228397   4.415   5.421  10.447  2.1543 -0.4543 -0.5726
 2328TIP3   OH228398   3.151   2.210   1.282  0.5667 -0.6300 -0.1540
 2328TIP3    H128399   3.179   2.278   1.222 -0.2916  1.7909  2.0044
 2328TIP3    H228400   3.185   2.237   1.368 -1.5601 -1.7357  1.1474
 2329TIP3   OH228401   3.718   3.282  12.214  0.0308 -0.1924  0.1562
 2329TIP3    H128402   3.736   3.286  12.308  0.3214 -2.1620  0.2287
 2329TIP3    H228403   3.805   3.279  12.173 -0.0802 -1.4459 -0.0210
 2330TIP3   OH228404   4.792   3.594   1.828 -0.1833  0.2876 -0.4373
 2330TIP3    H128405   4.861   3.661   1.837  0.6357 -0.5496 -0.3492
 2330TIP3    H228406   4.769   3.572   1.918  0.5067 -0.4970 -0.4377
 2331TIP3   OH228407   2.333   1.271   3.218 -0.2772  0.8506 -0.6143
 2331TIP3    H128408   2.373   1.353   3.248 -0.0588  0.6157 -0.2580
 2331TIP3    H228409   2.396   1.235   3.155 -0.2213  0.7923 -0.5246
 2332TIP3   OH228410   5.956   5.097  16.398  0.4124  0.5559  0.4058
 2332TIP3    H128411   6.024   5.131  16.340 -0.4853 -0.6281 -1.4641
 2332TIP3    H228412   5.986   5.009  16.422 -1.4430 -1.0464 -2.5099
 2333TIP3   OH228413   4.387   0.760   4.041 -0.2026  0.7135 -0.3214
 2333TIP3    H128414   4.423   0.785   3.956 -0.3164  1.0305 -0.2769
 2333TIP3    H228415   4.301   0.802   4.044 -0.3755  0.3618 -0.2227
 2334TIP3   OH228416   1.697   3.378   5.992  0.0489  0.0184 -0.1393
 2334TIP3    H128417   1.626   3.436   6.020  1.7209  2.0960  0.0244
 2334TIP3    H228418   1.666   3.340   5.909 -1.1946  0.9522 -0.1242
 2335TIP3   OH228419   0.826   4.396  16.569 -0.4917 -0.6597  0.3711
 2335TIP3    H128420   0.870   4.338  16.506 -0.0067 -0.4462  0.5134
 2335TIP3    H228421   0.891   4.411  16.638 -1.4019 -1.8640  1.5568
 2336TIP3   OH228422   4.354   3.598   4.967  0.0254 -0.4363 -0.1543
 2336TIP3    H128423   4.419   3.564   5.028 -0.2445  1.0046  0.9685
 2336TIP3    H228424   4.271   3.563   4.999  0.1179 -1.5683 -1.0832
 2337TIP3   OH228425   6.763   6.351   1.640 -0.7082  0.4009  0.1922
 2337TIP3    H128426   6.715   6.330   1.720  0.0638  1.5030  0.9714
 2337TIP3    H228427   6.702   6.330   1.569 -1.6994  0.1595  1.0905
 2338TIP3   OH228428   4.842   5.601  12.048  0.5026 -0.1710 -0.3389
 2338TIP3    H128429   4.779   5.530  12.065  1.6143 -0.8728  1.0303
 2338TIP3    H228430   4.883   5.578  11.965  0.0882 -0.5615 -0.4391
 2339TIP3   OH228431   2.678   6.303   5.459  0.3759  0.0602  0.1572
 2339TIP3    H128432   2.700   6.396   5.448  1.7300 -0.4436 -2.1850
 2339TIP3    H228433   2.638   6.279   5.375 -2.2067 -0.9470  1.5953
 2340TIP3   OH228434   1.464   4.503   6.037 -0.1845 -0.3758 -0.1524
 2340TIP3    H128435   1.553   4.538   6.030  0.5548 -2.4291 -2.7483
 2340TIP3    H228436   1.475   4.414   6.069 -1.6051  0.1496  1.9710
 2341TIP3   OH228437   3.897   5.178   5.560  0.1091  0.1079  0.1846
 2341TIP3    H128438   3.926   5.108   5.619  1.1211  1.3476  1.2308
 2341TIP3    H228439   3.891   5.256   5.617  0.7035  1.2481 -1.2506
 2342TIP3   OH228440   5.220   5.271  12.646  0.0891  0.3780  0.3564
 2342TIP3    H128441   5.182   5.263  12.559 -0.6484  0.5247  0.6591
 2342TIP3    H228442   5.179   5.202  12.697 -0.0699  0.7900  0.7945
 2343TIP3   OH228443   2.453   3.496   5.072 -0.3981 -0.0540  0.0909
 2343TIP3    H128444   2.396   3.420   5.082 -1.0323  0.3073 -0.6099
 2343TIP3    H228445   2.424   3.537   4.990 -0.4979  1.2809  0.7554
 2344TIP3   OH228446   4.003   6.628  12.340 -0.0676 -0.1583 -0.0870
 2344TIP3    H128447   4.088   6.641  12.297  0.0927 -0.4360  0.1424
 2344TIP3    H228448   3.983   6.714  12.378 -0.8573  0.4746 -1.8442
 2345TIP3   OH228449   2.816   5.952  15.944 -0.2857  0.0159 -0.1001
 2345TIP3    H128450   2.862   5.965  16.027  0.7483  0.5826 -0.7431
 2345TIP3    H228451   2.723   5.957  15.967 -0.0082  0.9396  0.9030
 2346TIP3   OH228452   1.551   2.247  16.424 -0.5876  0.1154 -0.1289
 2346TIP3    H128453   1.507   2.269  16.506  0.3605 -1.4038  0.8351
 2346TIP3    H228454   1.615   2.180  16.448 -0.8313 -0.9732 -2.2385
 2347TIP3   OH228455   1.375   5.187  11.668 -0.1355  0.0291  0.1938
 2347TIP3    H128456   1.398   5.110  11.616  5.0424  1.0735  0.4403
 2347TIP3    H228457   1.388   5.159  11.759  1.8847  1.0680  0.2827
 2348TIP3   OH228458   2.711   0.776  15.649 -0.7705 -0.5078 -0.3157
 2348TIP3    H128459   2.651   0.723  15.702 -0.7359 -0.2947 -0.0662
 2348TIP3    H228460   2.739   0.846  15.707 -2.7012  1.2291 -1.3558
 2349TIP3   OH228461   1.307   5.777   1.518 -0.5938  0.1133  0.1077
 2349TIP3    H128462   1.374   5.736   1.464 -2.6070  0.4920 -2.9430
 2349TIP3    H228463   1.326   5.747   1.607  1.3455 -2.8272 -1.1335
 2350TIP3   OH228464   4.031   0.035  16.051 -0.0589  0.2396  0.3255
 2350TIP3    H128465   4.086   0.097  16.100  0.5428 -1.1751  1.4826
 2350TIP3    H228466   3.942   0.064  16.068  0.2216  1.1959  0.2795
 2351TIP3   OH228467   2.503   6.151  15.452  0.3165 -0.0835 -0.7251
 2351TIP3    H128468   2.509   6.112  15.364 -0.6751 -1.7766 -0.0987
 2351TIP3    H228469   2.593   6.147  15.485  0.7189  0.6354 -1.6654
 2352TIP3   OH228470   4.062   3.794  13.003 -0.7687  0.0814  0.2721
 2352TIP3    H128471   3.968   3.812  13.009 -1.2588 -2.2809  0.6545
 2352TIP3    H228472   4.080   3.734  13.075  1.1224  0.7059  0.3692
 2353TIP3   OH228473   1.423   4.109   2.733 -0.6691  0.4123 -0.0850
 2353TIP3    H128474   1.439   4.141   2.822 -0.3544  2.2877 -0.7813
 2353TIP3    H228475   1.509   4.088   2.698 -0.8608 -1.1925  0.3206
 2354TIP3   OH228476   4.709   0.293  13.904  0.5895  0.4657  0.1121
 2354TIP3    H128477   4.726   0.223  13.841 -0.9509 -0.7923  1.0572
 2354TIP3    H228478   4.673   0.250  13.981 -2.0100  2.4032  0.1248
 2355TIP3   OH228479   5.222   4.687   3.567  0.2443 -0.0769  0.5159
 2355TIP3    H128480   5.225   4.603   3.521 -0.3158 -0.1150  0.5471
 2355TIP3    H228481   5.269   4.747   3.509  1.0162 -0.4938  0.6862
 2356TIP3   OH228482   3.735   5.997   3.328  0.0730  0.3447 -0.0940
 2356TIP3    H128483   3.828   6.016   3.317  0.0362 -0.1182 -1.4484
 2356TIP3    H228484   3.694   6.083   3.341  0.7671  0.4805  1.4383
 2357TIP3   OH228485   3.697   5.208  11.541 -0.3143 -0.5627 -0.0017
 2357TIP3    H128486   3.715   5.239  11.453  1.1362  1.0740  0.8062
 2357TIP3    H228487   3.637   5.272  11.578  1.5237  0.5732  1.1882
 2358TIP3   OH228488   4.214   2.199   5.445  0.3046 -0.1485  0.0742
 2358TIP3    H128489   4.122   2.176   5.437 -0.3801  2.3224  0.1035
 2358TIP3    H228490   4.215   2.281   5.494  2.3740  0.7694 -1.3072
 2359TIP3   OH228491   5.152   4.500  10.961  0.4528  0.2820 -0.1676
 2359TIP3    H128492   5.120   4.441  10.893  0.2123  1.9500 -1.5541
 2359TIP3    H228493   5.089   4.572  10.963  1.9532  1.6695 -0.2162
 2360TIP3   OH228494   0.557   5.280  15.279  0.2573  0.3057  0.1917
 2360TIP3    H128495   0.634   5.260  15.332 -0.6823 -0.5757  1.2862
 2360TIP3    H228496   0.554   5.210  15.214  0.5667  0.5378 -0.0762
 2361TIP3   OH228497   0.603   6.176   5.517 -0.2463  0.1727 -0.0958
 2361TIP3    H128498   0.629   6.084   5.518  3.0241  0.9541  1.3594
 2361TIP3    H228499   0.594   6.197   5.424 -1.7196 -1.7005 -0.4300
 2362TIP3   OH228500   4.858   4.446   2.330  0.8216 -0.0461 -0.3523
 2362TIP3    H128501   4.854   4.436   2.425  2.0559 -1.3674 -0.4009
 2362TIP3    H228502   4.874   4.358   2.297 -0.9778  0.1254 -1.9247
 2363TIP3   OH228503   1.139   1.163  15.348 -0.1558 -0.0859  0.2094
 2363TIP3    H128504   1.063   1.207  15.386  1.0206  1.3384  1.0194
 2363TIP3    H228505   1.213   1.218  15.372  0.9256 -0.3345 -2.2603
 2364TIP3   OH228506   3.361   2.697   3.983  0.5333  0.0819 -0.2114
 2364TIP3    H128507   3.325   2.693   3.895 -0.3045  1.0158  0.0788
 2364TIP3    H228508   3.412   2.778   3.985 -0.9807  1.0720  0.6922
 2365TIP3   OH228509   5.712   0.574   5.758  0.3669  0.2596 -0.3148
 2365TIP3    H128510   5.706   0.656   5.708 -0.6586  0.5927  0.3151
 2365TIP3    H228511   5.732   0.507   5.692 -3.8704  0.1701 -1.8037
 2366TIP3   OH228512   2.694   2.689  11.525 -0.3798 -0.0555  0.1888
 2366TIP3    H128513   2.697   2.594  11.515 -1.0997  0.0422 -1.3228
 2366TIP3    H228514   2.675   2.704  11.617 -0.6388 -1.3852  0.3655
 2367TIP3   OH228515   0.153   2.032   2.598  0.2343 -0.3997 -0.1548
 2367TIP3    H128516   0.086   1.994   2.542 -1.0904  0.1194  1.0094
 2367TIP3    H228517   0.111   2.041   2.683  1.8381 -0.1782  0.6593
 2368TIP3   OH228518   6.461   4.089  16.088 -0.2068  0.5151  0.5424
 2368TIP3    H128519   6.480   4.086  16.182  0.9339 -1.8484  0.3110
 2368TIP3    H228520   6.547   4.099  16.047 -0.6297  0.8284 -0.2782
 2369TIP3   OH228521   4.763   3.409  10.667 -0.6006 -0.0450  0.2932
 2369TIP3    H128522   4.731   3.430  10.754  2.1383 -1.0610  1.6755
 2369TIP3    H228523   4.810   3.487  10.638  1.1790 -0.7177  1.1820
 2370TIP3   OH228524   1.327   1.303  10.761  0.5101 -0.2310  0.6425
 2370TIP3    H128525   1.383   1.230  10.735  1.0930 -0.3591  2.1181
 2370TIP3    H228526   1.372   1.381  10.729  1.1978 -0.3791  1.2157
 2371TIP3   OH228527   1.015   5.648   2.409  0.2518 -0.3354  0.2407
 2371TIP3    H128528   1.022   5.685   2.498 -0.6075 -1.2380  0.7026
 2371TIP3    H228529   1.041   5.720   2.351 -0.0862  0.5647  1.1790
 2372TIP3   OH228530   0.162   2.265  15.711  0.9000 -0.0895 -0.0135
 2372TIP3    H128531   0.191   2.335  15.653 -2.5755 -0.0047 -1.9340
 2372TIP3    H228532   0.084   2.300  15.754 -0.8563 -2.5650 -0.8856
 2373TIP3   OH228533   0.128   6.175  16.126  0.0682 -0.4095 -0.1266
 2373TIP3    H128534   0.140   6.269  16.114  1.5131 -0.7264 -1.5946
 2373TIP3    H228535   0.043   6.156  16.087  0.3976  0.1015 -1.1226
 2374TIP3   OH228536   3.005   3.759  13.210 -0.1377  0.4343  0.1692
 2374TIP3    H128537   3.045   3.838  13.172  0.5311 -0.0021 -0.0498
 2374TIP3    H228538   2.931   3.740  13.152  1.0637 -0.4168 -1.1697
 2375TIP3   OH228539   4.846   6.364  14.014 -0.0126  0.3962 -0.5223
 2375TIP3    H128540   4.764   6.317  14.028 -0.7756  0.5419 -3.6722
 2375TIP3    H228541   4.820   6.455  14.004  0.6306  0.5553 -0.7912
 2376TIP3   OH228542   3.008   2.605   4.650 -0.3120 -0.4331  0.1864
 2376TIP3    H128543   2.990   2.669   4.582 -0.8866  0.6277  1.3026
 2376TIP3    H228544   2.995   2.520   4.607 -0.0411  0.1929 -1.1725
 2377TIP3   OH228545   3.649   2.881   4.660  0.1877  0.0363 -0.2515
 2377TIP3    H128546   3.721   2.882   4.597 -2.2902  0.2728 -3.2801
 2377TIP3    H228547   3.603   2.963   4.646 -1.8372 -0.9616  0.1521
 2378TIP3   OH228548   3.576   4.741  11.271  0.0463  0.7463 -0.2096
 2378TIP3    H128549   3.545   4.830  11.254  1.3013  1.6227  1.7146
 2378TIP3    H228550   3.575   4.733  11.366  1.9222 -0.5553 -0.2472
 2379TIP3   OH228551   0.643   1.678  16.186  0.2547  0.1495  0.4757
 2379TIP3    H128552   0.587   1.626  16.244  0.3205  0.3923  0.7634
 2379TIP3    H228553   0.713   1.710  16.243 -0.3942  1.4898  0.5822
 2380TIP3   OH228554   3.163   6.038  16.084  0.6233 -0.5669 -0.2733
 2380TIP3    H128555   3.161   6.063  15.992  1.5969 -0.3507 -0.2412
 2380TIP3    H228556   3.247   5.994  16.096 -0.3504 -2.4838  0.0453
 2381TIP3   OH228557   1.779   4.439   0.445 -0.5406 -0.2592 -0.2870
 2381TIP3    H128558   1.776   4.344   0.431  0.4260 -0.0407 -2.3855
 2381TIP3    H228559   1.725   4.454   0.522 -3.1283 -2.2161 -1.5702
 2382TIP3   OH228560   0.661   3.696   1.158  0.1834 -0.1768  0.2324
 2382TIP3    H128561   0.603   3.686   1.233  0.4236 -1.0129  0.3148
 2382TIP3    H228562   0.611   3.747   1.095 -1.4734 -2.5748 -0.5367
 2383TIP3   OH228563   3.364   5.345  12.837 -0.1664 -0.0903 -0.6373
 2383TIP3    H128564   3.288   5.400  12.821 -0.7643 -1.0393 -1.0877
 2383TIP3    H228565   3.340   5.292  12.914 -0.2804 -0.9414 -1.2467
 2384TIP3   OH228566   3.803   2.057  14.272  0.2632  0.2596  0.0359
 2384TIP3    H128567   3.800   2.141  14.318 -0.2503 -0.7798  2.0117
 2384TIP3    H228568   3.711   2.031  14.264  0.4690 -0.6830  0.5699
 2385TIP3   OH228569   3.315   4.711  13.341  0.0672 -0.7040 -0.0687
 2385TIP3    H128570   3.362   4.662  13.409  0.7682 -0.1764 -0.1642
 2385TIP3    H228571   3.257   4.647  13.302  1.7142 -1.7628 -0.9017
 2386TIP3   OH228572   0.575   2.820  11.660  0.4659  0.2801 -0.2501
 2386TIP3    H128573   0.649   2.781  11.706  0.4974  0.1761 -0.3867
 2386TIP3    H228574   0.559   2.760  11.586  0.4215  0.4489 -0.3774
 2387TIP3   OH228575   3.015   3.213   0.713  0.2676  0.3587 -0.5227
 2387TIP3    H128576   3.050   3.125   0.701 -0.0759  0.3974 -1.9815
 2387TIP3    H228577   2.922   3.199   0.732  0.1773  0.4089 -0.9238
 2388TIP3   OH228578   6.179   2.590   0.874  0.0848  0.2451 -0.2684
 2388TIP3    H128579   6.253   2.651   0.873  0.6416 -0.3763  0.9031
 2388TIP3    H228580   6.155   2.583   0.967  0.0968 -1.3709 -0.3554
 2389TIP3   OH228581   4.096   3.168  14.365 -0.4647 -0.1971 -0.1844
 2389TIP3    H128582   4.149   3.089  14.366  0.4456  0.4037 -0.5493
 2389TIP3    H228583   4.098   3.200  14.456  1.7159  1.0638 -0.6158
 2390TIP3   OH228584   2.760   5.355   3.397 -0.5848  0.0772 -0.1787
 2390TIP3    H128585   2.762   5.393   3.485 -0.3213 -2.2579  0.9058
 2390TIP3    H228586   2.846   5.375   3.361 -1.2117  2.3689 -0.5741
 2391TIP3   OH228587   6.358   4.697  11.248  0.5623  0.1553 -0.4771
 2391TIP3    H128588   6.297   4.739  11.309 -0.8122 -0.6852 -1.2280
 2391TIP3    H228589   6.392   4.769  11.195 -0.7709  0.5158 -0.8868
 2392TIP3   OH228590   4.786   4.677  12.721  0.0369  0.0732 -0.3210
 2392TIP3    H128591   4.877   4.688  12.693 -0.1709  0.7114 -0.7581
 2392TIP3    H228592   4.741   4.755  12.689 -1.4179 -1.7395 -3.2071
 2393TIP3   OH228593   0.003   1.502   5.326  1.0342 -0.6541 -0.1357
 2393TIP3    H128594   0.023   1.441   5.255  0.4542 -0.8239 -0.1573
 2393TIP3    H228595  -0.088   1.483   5.349  1.0862 -0.3102  0.3670
 2394TIP3   OH228596   2.963   3.625  16.953  0.7304  0.1402 -0.1366
 2394TIP3    H128597   2.919   3.661  16.876 -2.8626 -2.3154  0.4981
 2394TIP3    H228598   3.004   3.544  16.921 -1.3814 -1.2691  0.4948
 2395TIP3   OH228599   0.662   4.186   5.755 -0.5463 -0.3066  0.0493
 2395TIP3    H128600   0.597   4.207   5.688  0.7505 -1.9902 -1.8703
 2395TIP3    H228601   0.745   4.218   5.718 -0.0793  0.8065  1.9337
 2396TIP3   OH228602   6.668   0.169  14.454  0.4821  0.3055 -0.5017
 2396TIP3    H128603   6.672   0.264  14.444  0.3722  0.1811 -1.9735
 2396TIP3    H228604   6.648   0.156  14.546 -1.8198  1.8036 -0.6872
 2397TIP3   OH228605   5.739   2.873   6.001  0.0350  0.2240  0.5422
 2397TIP3    H128606   5.819   2.924   6.017  0.3871 -0.5178  1.2481
 2397TIP3    H228607   5.716   2.837   6.087  0.0825 -1.1978 -0.0099
 2398TIP3   OH228608   0.561   2.132  13.931  0.1419 -0.0966  0.3386
 2398TIP3    H128609   0.532   2.147  14.021 -1.1479 -2.4929  0.4065
 2398TIP3    H228610   0.495   2.174  13.877  0.4840  0.6418  0.4748
 2399TIP3   OH228611   5.548   4.226   2.641  0.5334  0.1530  0.3885
 2399TIP3    H128612   5.493   4.195   2.570  0.0112 -0.5163  1.0681
 2399TIP3    H228613   5.488   4.272   2.700  0.3410 -1.9111  1.9290
 2400TIP3   OH228614   0.808   4.429  15.894 -0.4972  0.1598  0.0949
 2400TIP3    H128615   0.902   4.413  15.885 -0.1368  0.3516  2.7785
 2400TIP3    H228616   0.790   4.499  15.832  0.3644 -2.1295 -2.9753
 2401TIP3   OH228617   4.661   4.812  13.262 -0.2348 -0.1258 -0.2900
 2401TIP3    H128618   4.624   4.788  13.177 -2.1316 -1.1310  0.7452
 2401TIP3    H228619   4.714   4.736  13.288  0.4433  0.2312 -0.6121
 2402TIP3   OH228620   0.542   0.261  11.032 -0.7465 -0.4704  0.1267
 2402TIP3    H128621   0.608   0.210  11.079 -0.5394  1.4607  2.0453
 2402TIP3    H228622   0.569   0.254  10.940  0.8273 -1.5652  0.6223
 2403TIP3   OH228623   2.389   4.559   3.534  0.4149 -0.2037  0.1189
 2403TIP3    H128624   2.364   4.472   3.501  0.7184 -0.6028  0.9167
 2403TIP3    H228625   2.339   4.620   3.480 -0.3532 -0.9036  0.0162
 2404TIP3   OH228626   6.007   1.762   0.852 -0.1522 -0.4447 -0.6691
 2404TIP3    H128627   5.933   1.708   0.880  1.1370 -2.4469 -0.9221
 2404TIP3    H228628   5.999   1.766   0.757 -0.1707 -0.2526 -0.6613
 2405TIP3   OH228629   0.594   1.791   0.106  0.0666  0.2342  0.0058
 2405TIP3    H128630   0.573   1.798   0.199  0.5299 -0.1052  0.1430
 2405TIP3    H228631   0.582   1.698   0.086 -0.2563  0.3487 -0.3302
 2406TIP3   OH228632   5.783   2.810   2.527  0.7638 -0.1815  0.2018
 2406TIP3    H128633   5.837   2.732   2.539  0.1580 -0.5951  0.2547
 2406TIP3    H228634   5.700   2.789   2.569 -0.1360 -0.2909 -1.5329
 2407TIP3   OH228635   5.517   5.058  14.030  0.2909 -0.0404 -0.9504
 2407TIP3    H128636   5.474   4.981  13.994 -1.3292  0.5002 -0.2891
 2407TIP3    H228637   5.506   5.049  14.125 -1.2601  1.6916 -0.9130
 2408TIP3   OH228638   4.033   4.496   1.565 -0.2904 -0.0587 -0.1355
 2408TIP3    H128639   4.095   4.485   1.493 -0.4492 -1.0676 -0.1231
 2408TIP3    H228640   4.066   4.572   1.613  0.6844 -0.3063 -0.3913
 2409TIP3   OH228641   3.627   1.357   0.665  0.0898  0.0625  0.1080
 2409TIP3    H128642   3.651   1.371   0.574 -0.2231 -0.6297 -0.0833
 2409TIP3    H228643   3.704   1.386   0.715  0.0849  0.8768 -0.3472
 2410TIP3   OH228644   1.528   3.937   4.593 -0.2664 -0.1517 -0.5902
 2410TIP3    H128645   1.619   3.939   4.566 -0.2399 -0.7322 -0.5498
 2410TIP3    H228646   1.524   3.996   4.669  0.3268 -1.0429  0.1506
 2411TIP3   OH228647   5.707   4.054  17.036  0.0223  0.0513 -0.3247
 2411TIP3    H128648   5.625   4.006  17.039  0.7737 -1.3064 -1.0068
 2411TIP3    H228649   5.767   3.999  16.986  1.4961  0.7902  0.5314
 2412TIP3   OH228650   4.541   0.060  10.734  0.5919 -0.4585 -0.0108
 2412TIP3    H128651   4.543  -0.029  10.699 -2.7403 -2.3559  3.7730
 2412TIP3    H228652   4.621   0.066  10.787 -0.2369 -2.3239  1.6277
 2413TIP3   OH228653   4.712   2.255   3.322  0.1913  0.0079 -0.2005
 2413TIP3    H128654   4.619   2.247   3.301 -0.0565 -0.0199  0.8668
 2413TIP3    H228655   4.739   2.336   3.279 -0.5760  0.5418  0.3017
 2414TIP3   OH228656   1.814   1.126  15.942  0.1846  0.4981  0.4041
 2414TIP3    H128657   1.792   1.062  16.011 -0.0025  1.3203  1.1242
 2414TIP3    H228658   1.788   1.210  15.979  1.6774  1.1542  0.0201
 2415TIP3   OH228659   4.420   2.761  13.480 -0.3304  0.7512 -0.0829
 2415TIP3    H128660   4.366   2.769  13.401 -0.7361  0.9318  0.2110
 2415TIP3    H228661   4.482   2.834  13.474  1.5366 -0.8425 -1.6658
 2416TIP3   OH228662   5.188   2.246  17.146  0.3147  0.3363 -0.0142
 2416TIP3    H128663   5.220   2.188  17.076 -0.1770  2.0208 -1.7361
 2416TIP3    H228664   5.233   2.329  17.131  0.0953  0.7809  1.6352
 2417TIP3   OH228665   2.572   0.047   5.415 -0.2271 -0.1112  0.1325
 2417TIP3    H128666   2.663   0.076   5.416 -0.0297 -0.7258  0.4185
 2417TIP3    H228667   2.532   0.098   5.345  0.6949 -0.9001 -1.0224
 2418TIP3   OH228668   5.222   0.672  10.988 -0.6430  0.0130  0.2546
 2418TIP3    H128669   5.280   0.652  10.914 -0.2754  0.6586  0.3604
 2418TIP3    H228670   5.268   0.741  11.037 -0.7948 -0.5318  1.1856
 2419TIP3   OH228671   4.919   0.483   2.577  0.1267  0.5824  0.6379
 2419TIP3    H128672   4.981   0.504   2.507 -0.6231  1.0609  0.1084
 2419TIP3    H228673   4.974   0.473   2.655  1.2187 -1.9342 -0.3531
 2420TIP3   OH228674   4.171   4.815   3.612 -0.3218 -0.4070 -0.3893
 2420TIP3    H128675   4.151   4.760   3.688  0.4280  2.4068  2.0206
 2420TIP3    H228676   4.087   4.851   3.585 -0.4371 -0.4189 -0.0482
 2421TIP3   OH228677   1.891   3.455   0.217 -0.5804 -0.5679  0.0600
 2421TIP3    H128678   1.894   3.384   0.153 -1.2238 -0.3705 -0.1963
 2421TIP3    H228679   1.802   3.488   0.212 -0.4410 -0.0992  0.5738
 2422TIP3   OH228680   5.809   3.891  16.466  0.4296 -0.5268  0.5467
 2422TIP3    H128681   5.828   3.800  16.441  1.2533 -0.1375 -0.3132
 2422TIP3    H228682   5.857   3.943  16.402 -1.2477  0.5399  0.1081
 2423TIP3   OH228683   6.552   0.737   4.755 -0.3120  0.0680 -0.4049
 2423TIP3    H128684   6.583   0.647   4.758  0.4949  0.3568  0.2178
 2423TIP3    H228685   6.499   0.748   4.834 -1.7729 -0.3173 -1.2867
 2424TIP3   OH228686   0.911   4.398  11.948 -0.1894  0.3018  0.6843
 2424TIP3    H128687   1.004   4.391  11.925 -0.5191 -0.7652 -0.4230
 2424TIP3    H228688   0.877   4.468  11.893 -0.3228 -0.2074  0.1132
 2425TIP3   OH228689   2.098   2.534  10.770  0.3508 -0.0866 -0.3452
 2425TIP3    H128690   2.010   2.569  10.759  0.6864  0.0281 -3.6847
 2425TIP3    H228691   2.150   2.608  10.802 -0.4260  0.2982  0.0397
 2426TIP3   OH228692   2.228   4.349  13.789  0.1202 -0.9743 -0.6543
 2426TIP3    H128693   2.185   4.264  13.803 -0.2279 -0.7069 -0.0688
 2426TIP3    H228694   2.322   4.329  13.793  0.0867 -1.5889 -2.0986
 2427TIP3   OH228695   2.705   3.096   3.840  0.4216  0.4785 -0.4114
 2427TIP3    H128696   2.722   3.005   3.816  1.2920  0.2624  0.9284
 2427TIP3    H228697   2.668   3.091   3.928  1.4486  1.4635  0.0995
 2428TIP3   OH228698   4.484   1.608   2.607 -0.0274 -0.3422 -0.3610
 2428TIP3    H128699   4.544   1.681   2.618 -0.7728  0.6128 -2.2191
 2428TIP3    H228700   4.535   1.531   2.630  2.5849  0.2097 -3.5968
 2429TIP3   OH228701   3.341   6.303  14.410  0.2710  0.0815  0.0683
 2429TIP3    H128702   3.435   6.321  14.415  0.9290 -2.1816 -2.1484
 2429TIP3    H228703   3.324   6.246  14.485  0.0466  2.3184  1.8580
 2430TIP3   OH228704   1.152   1.673   2.627  0.3030  0.3218  0.2041
 2430TIP3    H128705   1.090   1.733   2.587  0.3273 -0.0112 -0.3430
 2430TIP3    H228706   1.099   1.599   2.657  0.6187 -0.8499 -1.9444
 2431TIP3   OH228707   4.553   0.650   1.211 -0.2910 -0.0606  0.3277
 2431TIP3    H128708   4.647   0.659   1.196 -0.6625  2.6692 -0.9533
 2431TIP3    H228709   4.527   0.735   1.247 -2.1217 -1.1331  1.6756
 2432TIP3   OH228710   4.655   2.877  15.128 -0.1693 -0.1155  0.1057
 2432TIP3    H128711   4.667   2.816  15.201 -2.1013 -1.4218 -0.6150
 2432TIP3    H228712   4.663   2.964  15.169 -0.1556 -0.8176  1.6687
 2433TIP3   OH228713   2.934   3.984   0.762  0.2012 -0.0892 -0.3255
 2433TIP3    H128714   2.979   4.037   0.827  1.1560 -0.7372 -0.4314
 2433TIP3    H228715   2.991   3.908   0.750  0.3289  0.2754 -2.3233
 2434TIP3   OH228716   4.822   0.458  14.997 -0.0957 -0.2259 -0.3230
 2434TIP3    H128717   4.851   0.526  15.058 -1.2638 -0.9968  1.1594
 2434TIP3    H228718   4.899   0.440  14.943  1.0216  0.3838  1.0160
 2435TIP3   OH228719   3.192   1.020  16.649 -0.4378 -0.9113 -0.5125
 2435TIP3    H128720   3.177   1.020  16.743 -0.7733 -0.5337 -0.5645
 2435TIP3    H228721   3.231   0.934  16.630  2.9336  0.2308  0.4806
 2436TIP3   OH228722   1.972   3.620  14.563  0.5583 -0.1042 -0.0341
 2436TIP3    H128723   1.880   3.646  14.572  0.3633 -0.6669 -0.3442
 2436TIP3    H228724   2.009   3.684  14.503  0.1633 -0.3533 -0.5515
 2437TIP3   OH228725   2.872   4.415   3.146 -0.3443  0.5304  0.0216
 2437TIP3    H128726   2.944   4.417   3.208 -0.5136  1.1016  0.2062
 2437TIP3    H228727   2.814   4.486   3.174 -0.0759  1.2534 -1.1910
 2438TIP3   OH228728   1.214   1.622  13.203 -1.0334  0.0724 -0.6049
 2438TIP3    H128729   1.296   1.593  13.243 -1.6922 -2.3426 -0.8174
 2438TIP3    H228730   1.147   1.602  13.268 -1.6988 -0.4511 -1.4244
 2439TIP3   OH228731   0.592   4.101  13.537  0.0843 -0.1344 -0.4322
 2439TIP3    H128732   0.685   4.096  13.516  0.2447  0.4842  0.0867
 2439TIP3    H228733   0.588   4.082  13.631 -0.3932 -0.8649 -0.5909
 2440TIP3   OH228734   0.383   3.187  16.585  0.2580  0.0367 -0.0446
 2440TIP3    H128735   0.438   3.220  16.656 -0.6701  1.2550  0.1369
 2440TIP3    H228736   0.298   3.174  16.625  0.4369 -2.1541 -0.2438
 2441TIP3   OH228737   1.734   4.809  15.109 -0.4063 -0.5283  0.1724
 2441TIP3    H128738   1.698   4.783  15.194 -0.3795 -0.5759  0.1691
 2441TIP3    H228739   1.734   4.729  15.058 -2.3472 -0.1176 -0.5755
 2442TIP3   OH228740   2.393   0.512  15.205 -1.1768  0.0865 -0.2938
 2442TIP3    H128741   2.441   0.568  15.144  0.3128  0.3791  1.0649
 2442TIP3    H228742   2.426   0.424  15.187 -2.2126 -0.1312 -1.2266
 2443TIP3   OH228743   5.971   0.052   1.022  0.4238  0.2085 -0.2521
 2443TIP3    H128744   5.998   0.143   1.014  0.5481  0.0730 -1.8328
 2443TIP3    H228745   6.048   0.002   0.992  1.1601 -0.5505  2.6191
 2444TIP3   OH228746   3.831   6.526   1.755  0.0191 -0.4007 -0.3846
 2444TIP3    H128747   3.853   6.435   1.737 -0.3015 -0.2692 -1.5355
 2444TIP3    H228748   3.916   6.569   1.770  0.3046 -0.5910 -1.3620
 2445TIP3   OH228749   5.640   3.395   0.549 -0.3313 -0.6943 -0.3085
 2445TIP3    H128750   5.718   3.361   0.505 -0.6451 -0.1318 -1.3336
 2445TIP3    H228751   5.567   3.360   0.498 -0.8368 -2.4218  1.5010
 2446TIP3   OH228752   4.463   2.896  13.005  0.5614 -0.3102  0.2975
 2446TIP3    H128753   4.432   2.810  13.035  1.1483 -1.0780 -1.2397
 2446TIP3    H228754   4.416   2.911  12.923  1.2260  0.3816  0.0402
 2447TIP3   OH228755   1.816   2.099   0.119  0.7850 -0.6814  0.4064
 2447TIP3    H128756   1.778   2.103   0.031  1.5434 -1.4298  0.0245
 2447TIP3    H228757   1.798   2.184   0.157 -1.0424 -0.9237  0.1611
 2448TIP3   OH228758   5.684   6.343   3.416 -0.1885 -0.2002  0.0754
 2448TIP3    H128759   5.629   6.345   3.338 -0.0646  1.2185 -0.0132
 2448TIP3    H228760   5.622   6.349   3.489 -0.2170  1.0115 -0.0138
 2449TIP3   OH228761   2.553   1.941   0.134  0.3659 -0.3531 -0.0894
 2449TIP3    H128762   2.583   1.852   0.113 -1.4620 -1.3012  1.0508
 2449TIP3    H228763   2.584   1.994   0.062  0.9059 -2.0575 -1.1828
 2450TIP3   OH228764   6.572   1.787  11.721 -0.1342  0.2405  0.4231
 2450TIP3    H128765   6.622   1.737  11.786 -1.4826 -0.9526  0.5907
 2450TIP3    H228766   6.638   1.830  11.667  1.0331  0.2740  1.8209
 2451TIP3   OH228767   3.016   0.353  13.594  0.2491 -0.0303 -0.8708
 2451TIP3    H128768   3.039   0.405  13.671  1.1320 -0.3861 -0.8825
 2451TIP3    H228769   2.921   0.353  13.592  0.2277  0.3957 -0.0628
 2452TIP3   OH228770   6.747   5.463   6.688  0.5054 -0.5205 -0.0665
 2452TIP3    H128771   6.739   5.375   6.725 -0.3447  0.2447  1.7348
 2452TIP3    H228772   6.725   5.453   6.596 -1.0168 -1.9911  0.3945
 2453TIP3   OH228773   1.143   0.433   0.924  0.1405 -0.5933 -0.5249
 2453TIP3    H128774   1.073   0.383   0.966 -1.9116  1.1634 -1.6108
 2453TIP3    H228775   1.166   0.381   0.847 -1.3377 -0.3655 -1.1628
 2454TIP3   OH228776   5.793   6.431  11.076  0.2312  0.0480  0.0027
 2454TIP3    H128777   5.834   6.447  11.161  0.1921 -1.8860  0.4371
 2454TIP3    H228778   5.720   6.493  11.073  1.6632  1.8405  0.2667
 2455TIP3   OH228779   3.041   2.182   3.409 -0.1222 -0.2098 -0.3025
 2455TIP3    H128780   3.074   2.211   3.493 -0.3199 -0.8698  0.0120
 2455TIP3    H228781   3.051   2.257   3.351 -0.5377  0.4358  0.4568
 2456TIP3   OH228782   3.586   2.761  15.363  0.0236  0.1094 -0.4856
 2456TIP3    H128783   3.654   2.803  15.417  1.5493 -0.4997 -1.8493
 2456TIP3    H228784   3.634   2.699  15.308 -1.4189  0.8361 -2.6907
 2457TIP3   OH228785   5.948   5.637  11.989 -0.0152  0.4883 -0.1407
 2457TIP3    H128786   5.970   5.693  12.063 -1.8547  0.8802  0.1713
 2457TIP3    H228787   5.883   5.576  12.023 -0.2254  0.0924 -1.2018
 2458TIP3   OH228788   3.342   3.830   0.376  0.6149 -0.5452  0.4610
 2458TIP3    H128789   3.373   3.742   0.354 -1.6443 -1.0314 -1.2071
 2458TIP3    H228790   3.248   3.819   0.390  0.2009  1.6679 -0.2460
 2459TIP3   OH228791   2.964   4.681   2.048 -0.1402  0.1656 -0.3687
 2459TIP3    H128792   2.954   4.664   1.955  1.5341 -1.2976 -0.3223
 2459TIP3    H228793   3.023   4.613   2.079  0.0748  1.1751  1.5957
 2460TIP3   OH228794   5.583   6.472  12.112  0.2589 -0.1945 -0.1610
 2460TIP3    H128795   5.631   6.400  12.070  0.0511 -0.1165 -0.5353
 2460TIP3    H228796   5.631   6.487  12.194 -0.6926 -1.9032  0.7746
 2461TIP3   OH228797   3.645   6.610   1.516 -0.0743 -0.5885 -0.2132
 2461TIP3    H128798   3.732   6.598   1.477 -0.7375 -0.2334 -1.8485
 2461TIP3    H228799   3.607   6.684   1.469 -1.3837 -0.9124  0.2968
 2462TIP3   OH228800   5.556   1.626   2.450 -0.2236  0.3309 -0.2450
 2462TIP3    H128801   5.567   1.531   2.458  2.9923  0.7474  1.7219
 2462TIP3    H228802   5.586   1.646   2.362 -1.0116 -0.4385 -0.7101
 2463TIP3   OH228803   4.367   3.118  11.235  0.7191  0.3720  0.2457
 2463TIP3    H128804   4.371   3.062  11.313 -1.5351  0.3332  0.4079
 2463TIP3    H228805   4.342   3.058  11.165 -2.1723  1.0896  0.5010
 2464TIP3   OH228806   0.918   2.883  16.774 -0.6067 -0.4221  0.2083
 2464TIP3    H128807   0.980   2.812  16.793 -0.0184  0.0220 -0.0111
 2464TIP3    H228808   0.864   2.890  16.853  0.5585  0.1281  0.9826
 2465TIP3   OH228809   6.520   3.155  13.443  0.7202  0.1584  0.1729
 2465TIP3    H128810   6.480   3.115  13.365 -0.5125  0.4295  0.6370
 2465TIP3    H228811   6.612   3.130  13.439  0.3761 -1.0498 -0.5975
 2466TIP3   OH228812   3.948   0.173   3.530 -0.1405 -0.3166 -0.1350
 2466TIP3    H128813   3.976   0.156   3.440  1.5232  1.0119  0.0775
 2466TIP3    H228814   3.887   0.247   3.522  0.4325  0.1579 -0.1204
 2467TIP3   OH228815   3.543   3.682  15.695  0.1726  0.7222 -0.2863
 2467TIP3    H128816   3.520   3.607  15.640  0.1289  0.1831  0.4552
 2467TIP3    H228817   3.629   3.661  15.730 -0.3960  0.4050  0.9702
 2468TIP3   OH228818   0.804   5.193   5.455  0.3786 -0.1440  0.6234
 2468TIP3    H128819   0.895   5.221   5.445  1.0396 -1.7063  1.7488
 2468TIP3    H228820   0.798   5.114   5.401 -0.9743  1.1242 -1.1981
 2469TIP3   OH228821   2.509   5.531  14.437  0.9185  0.1669 -0.1181
 2469TIP3    H128822   2.600   5.500  14.440  1.0504  0.5845  2.0010
 2469TIP3    H228823   2.509   5.609  14.492 -0.6182  0.5162 -0.5688
 2470TIP3   OH228824   1.742   2.183  13.122 -0.6117 -0.2779 -0.3152
 2470TIP3    H128825   1.706   2.148  13.041 -1.6140  0.8784 -0.4097
 2470TIP3    H228826   1.683   2.256  13.145  0.2831  0.1169  0.8546
 2471TIP3   OH228827   6.212   3.037   0.830  0.4174  0.2323  0.2554
 2471TIP3    H128828   6.166   2.982   0.893  1.6996  0.6976  1.6614
 2471TIP3    H228829   6.143   3.083   0.783 -0.5867  0.2489  1.6712
 2472TIP3   OH228830   1.517   1.000   1.779  0.0855  0.0802  0.1959
 2472TIP3    H128831   1.426   1.021   1.756  0.2487  0.6665  0.0666
 2472TIP3    H228832   1.522   0.905   1.774 -0.5652  0.0315  0.3562
 2473TIP3   OH228833   1.276   2.844  11.269  0.2871 -0.5094  0.1743
 2473TIP3    H128834   1.226   2.860  11.189  0.9218  0.9475  0.0291
 2473TIP3    H228835   1.252   2.916  11.328  2.6768  0.7119 -0.1779
 2474TIP3   OH228836   2.551   0.466  12.065  0.4897 -0.2100  0.6152
 2474TIP3    H128837   2.626   0.413  12.091  2.8181  3.5319  2.3866
 2474TIP3    H228838   2.497   0.473  12.144  0.2715  0.1486  0.4400
 2475TIP3   OH228839   2.108   1.829  15.854 -0.1603  0.3478  0.5469
 2475TIP3    H128840   2.193   1.821  15.812 -0.9475 -0.6277 -0.9308
 2475TIP3    H228841   2.046   1.793  15.791 -1.5189 -0.2590  2.1427
 2476TIP3   OH228842   0.679   2.397  13.433  0.0687 -0.4000 -0.9084
 2476TIP3    H128843   0.674   2.313  13.388 -0.7185 -1.6848  1.3713
 2476TIP3    H228844   0.602   2.398  13.490  0.6761  1.3470 -0.0288
 2477TIP3   OH228845   6.075   6.073   2.984 -0.4747  0.7619 -0.2638
 2477TIP3    H128846   6.016   6.065   3.059  0.8945 -0.2120  0.7720
 2477TIP3    H228847   6.138   6.141   3.010  0.8074 -0.4968  0.1132
 2478TIP3   OH228848   6.700   2.455  16.826 -0.3747  0.0822 -0.4463
 2478TIP3    H128849   6.746   2.472  16.744  0.3946  1.2413  0.2095
 2478TIP3    H228850   6.691   2.541  16.867  1.2666 -0.7222  1.7461
 2479TIP3   OH228851   6.014   2.509  11.338  0.1068  0.3782  0.6353
 2479TIP3    H128852   5.983   2.578  11.280  0.0392 -1.0829 -1.1584
 2479TIP3    H228853   6.109   2.521  11.342  0.3482 -0.5566 -1.2993
 2480TIP3   OH228854   4.349   6.452  15.773  0.1582 -0.6617  0.2537
 2480TIP3    H128855   4.281   6.506  15.813  0.2353 -0.5275  0.2027
 2480TIP3    H228856   4.344   6.473  15.680  0.1912 -0.7392  0.2349
 2481TIP3   OH228857   1.991   2.193  13.287  0.7838 -0.1628  0.2148
 2481TIP3    H128858   2.070   2.208  13.236  0.4655  0.8660  0.0179
 2481TIP3    H228859   1.919   2.195  13.223  0.6496 -2.1584  0.2145
 2482TIP3   OH228860   6.208   0.215  10.932  0.4162  0.2580 -0.3099
 2482TIP3    H128861   6.286   0.179  10.889  0.4846 -1.8281  1.4039
 2482TIP3    H228862   6.244   0.272  11.001  0.3064  3.1278 -2.4285
 2483TIP3   OH228863   6.267   2.923  11.064  0.4531  0.3328 -0.1102
 2483TIP3    H128864   6.233   2.915  10.975 -0.9263  1.9342  0.2155
 2483TIP3    H228865   6.189   2.941  11.118  1.6209  3.1735  0.8335
 2484TIP3   OH228866   6.017   2.928  11.192  0.1205  0.0902  0.6018
 2484TIP3    H128867   5.925   2.904  11.182 -0.0808  0.5481  1.2583
 2484TIP3    H228868   6.020   2.978  11.274  1.2176 -1.2240  1.3970
 2485TIP3   OH228869   5.996   3.535  12.636  0.0541 -0.6179 -0.0307
 2485TIP3    H128870   5.910   3.508  12.669  0.3903 -1.1521  0.4115
 2485TIP3    H228871   5.991   3.630  12.632 -0.5455 -0.6433  0.0262
 2486TIP3   OH228872   0.887   4.682  13.135  0.6366  0.0091  0.6221
 2486TIP3    H128873   0.941   4.614  13.094 -0.7514 -1.8391  1.7026
 2486TIP3    H228874   0.797   4.655  13.116  0.0100  2.3493 -0.1001
 2487TIP3   OH228875   1.449   1.297   1.998  0.6061  0.2480  0.1293
 2487TIP3    H128876   1.356   1.277   1.987  0.8610  0.1890 -2.5929
 2487TIP3    H228877   1.483   1.226   2.051  0.0082 -2.5972 -2.9892
 2488TIP3   OH228878   3.487   1.172   4.994 -0.3618 -0.5431 -0.5188
 2488TIP3    H128879   3.517   1.229   4.923 -0.5542  0.8723  0.4704
 2488TIP3    H228880   3.556   1.106   5.003 -0.1395 -0.4867 -1.7256
 2489TIP3   OH228881   2.713   5.347   2.567 -0.8018  0.2238 -0.2694
 2489TIP3    H128882   2.671   5.373   2.485 -2.2518 -0.8551  0.1114
 2489TIP3    H228883   2.675   5.405   2.633 -2.0174 -1.0168  0.1407
 2490TIP3   OH228884   4.151   6.407   5.378 -0.3321  0.1254 -0.0460
 2490TIP3    H128885   4.114   6.479   5.429 -0.3592  0.6484 -0.7839
 2490TIP3    H228886   4.220   6.448   5.326  0.9960 -0.7463  0.9658
 2491TIP3   OH228887   4.690   4.340   3.013  0.3673  0.0595  0.2504
 2491TIP3    H128888   4.680   4.248   3.037 -1.6966  0.0083 -0.6115
 2491TIP3    H228889   4.647   4.388   3.084 -0.7444  0.2048 -0.5071
 2492TIP3   OH228890   2.021   1.000   6.475  0.0970 -0.4705 -0.2811
 2492TIP3    H128891   1.937   0.972   6.439  0.1179  1.0645 -1.6294
 2492TIP3    H228892   1.998   1.059   6.547  0.0642 -2.0300  1.0530
 2493TIP3   OH228893   4.548   4.571  11.567  0.0941 -0.7046 -0.3216
 2493TIP3    H128894   4.479   4.546  11.506  2.3881 -1.2623 -2.8837
 2493TIP3    H228895   4.558   4.665  11.555  0.5950 -0.8257 -0.9371
 2494TIP3   OH228896   3.524   5.437  11.615 -0.4069  0.5800  0.3815
 2494TIP3    H128897   3.448   5.473  11.662 -0.0177  0.7228  0.9100
 2494TIP3    H228898   3.501   5.446  11.522 -1.4074 -0.1881  0.5355
 2495TIP3   OH228899   6.702   4.965  11.334  0.7962  0.1041 -0.1368
 2495TIP3    H128900   6.707   4.904  11.260 -0.5490 -1.0516  0.6686
 2495TIP3    H228901   6.703   5.052  11.294 -0.9980 -0.5028 -1.6407
 2496TIP3   OH228902   6.605   5.106   2.675 -0.1405 -0.1769  0.2019
 2496TIP3    H128903   6.566   5.025   2.643 -0.3155 -0.3632  0.8713
 2496TIP3    H228904   6.571   5.116   2.764 -0.5023  0.8855 -0.0417
 2497TIP3   OH228905   3.253   6.781  15.755 -0.2513 -0.6221  0.1031
 2497TIP3    H128906   3.204   6.705  15.784 -2.2973  0.2413 -0.9045
 2497TIP3    H228907   3.270   6.765  15.662  1.0947 -0.7248  0.3411
 2498TIP3   OH228908   3.318   3.075  14.123 -0.4683  0.0689  0.1435
 2498TIP3    H128909   3.268   3.069  14.041 -1.1404  1.5075  0.4103
 2498TIP3    H228910   3.407   3.095  14.094 -0.2620 -1.3484 -0.2887
 2499TIP3   OH228911   4.583   1.187   6.161  0.5709  0.1026  0.0709
 2499TIP3    H128912   4.526   1.201   6.237 -1.2486  2.7982 -1.6278
 2499TIP3    H228913   4.667   1.224   6.187  1.3275 -2.7442  2.1398
 2500TIP3   OH228914   6.134   4.961   5.370  0.2416 -0.2090  0.4472
 2500TIP3    H128915   6.153   4.998   5.456  1.5012 -2.3462  1.1587
 2500TIP3    H228916   6.086   4.881   5.388  1.8448 -1.4895 -0.7092
 2501TIP3   OH228917   0.399   4.180  16.726  0.1660  0.4012  0.4632
 2501TIP3    H128918   0.489   4.187  16.694  0.1571  1.0515  0.5598
 2501TIP3    H228919   0.352   4.249  16.680 -0.4518 -0.3853 -0.1094
 2502TIP3   OH228920   0.876   5.180  13.016  0.1581  0.1304 -0.7917
 2502TIP3    H128921   0.808   5.116  13.035  0.7773 -0.1372  0.6890
 2502TIP3    H228922   0.839   5.236  12.948 -0.9727 -0.8755 -1.0282
 2503TIP3   OH228923   5.463   2.882  16.597 -0.9044  0.1487 -0.2633
 2503TIP3    H128924   5.404   2.821  16.641 -1.9147  0.8370 -0.6174
 2503TIP3    H228925   5.423   2.897  16.511 -0.7540  1.3745 -0.1434
 2504TIP3   OH228926   6.569   1.698   0.443 -0.7665  0.1703  0.1229
 2504TIP3    H128927   6.534   1.695   0.532 -0.2278  0.7982  0.3696
 2504TIP3    H228928   6.599   1.789   0.433 -2.3942  0.6013 -1.3116
 2505TIP3   OH228929   4.420   4.087  13.543 -0.4875 -0.2438 -0.2263
 2505TIP3    H128930   4.334   4.129  13.549 -0.4296  0.1250 -1.6166
 2505TIP3    H228931   4.403   4.004  13.499 -0.2493 -0.5894  0.3197
 2506TIP3   OH228932   1.366   6.053  14.480  0.0975  0.3849  0.3234
 2506TIP3    H128933   1.299   6.003  14.433  0.9911  0.6183 -1.2698
 2506TIP3    H228934   1.408   6.106  14.412 -0.1525  2.5833  1.7977
 2507TIP3   OH228935   4.032   5.828  14.769  0.6921  0.3622  0.2282
 2507TIP3    H128936   4.058   5.891  14.702 -0.4831 -1.1427 -1.7671
 2507TIP3    H228937   3.964   5.873  14.819  1.8132  1.6355  0.6333
 2508TIP3   OH228938   2.540   6.732  12.720 -0.3235 -0.0782 -0.6940
 2508TIP3    H128939   2.481   6.691  12.783  1.5868  0.5510  1.6556
 2508TIP3    H228940   2.540   6.672  12.645 -2.2070 -1.1876  0.1170
 2509TIP3   OH228941   3.704   0.941   4.708 -0.1796 -0.3756  0.0300
 2509TIP3    H128942   3.793   0.978   4.714  0.5064 -1.8777 -0.4201
 2509TIP3    H228943   3.676   0.931   4.799  0.1685 -0.0047  0.1800
 2510TIP3   OH228944   4.656   2.369  16.020  0.1148  0.2415 -0.4014
 2510TIP3    H128945   4.644   2.364  15.925  0.6493 -2.4894 -0.4063
 2510TIP3    H228946   4.750   2.370  16.033  0.0696 -0.5630  0.0937
 2511TIP3   OH228947   2.981   2.673   0.492  0.1376  0.1884  0.2395
 2511TIP3    H128948   2.911   2.734   0.467 -0.7539 -0.5372  0.8851
 2511TIP3    H228949   2.937   2.608   0.546  0.8474 -1.6613 -1.3282
 2512TIP3   OH228950   1.213   2.320   4.035 -0.2818  0.2691 -0.5911
 2512TIP3    H128951   1.140   2.347   4.091  0.1932  1.5352 -0.5325
 2512TIP3    H228952   1.291   2.345   4.086  0.1987 -0.9798 -0.6877
 2513TIP3   OH228953   4.404   3.292  13.910 -0.1077  0.6503  0.5876
 2513TIP3    H128954   4.342   3.353  13.950  0.0046  0.9419  0.3176
 2513TIP3    H228955   4.437   3.240  13.984  0.5579  1.5849  0.9723
 2514TIP3   OH228956   6.402   2.182   1.314 -0.2213  0.4508  0.0462
 2514TIP3    H128957   6.436   2.094   1.295  0.0475  0.3839  0.7958
 2514TIP3    H228958   6.385   2.181   1.408  0.8218  1.5437  0.2714
 2515TIP3   OH228959   4.258   2.780  15.337 -0.2879  0.2220 -0.7006
 2515TIP3    H128960   4.239   2.848  15.401 -0.5814  0.5507 -1.1299
 2515TIP3    H228961   4.229   2.817  15.253  0.6339  0.0383 -1.1108
 2516TIP3   OH228962   4.137   3.648  12.571 -0.4158  0.1021  0.4482
 2516TIP3    H128963   4.101   3.736  12.564  0.4502  0.3780 -0.7246
 2516TIP3    H228964   4.229   3.661  12.593 -0.3303 -0.5169  0.4825
 2517TIP3   OH228965   0.171   4.242  11.886  0.5985  0.1920  0.2751
 2517TIP3    H128966   0.248   4.298  11.891  2.0545 -1.6689  0.0097
 2517TIP3    H228967   0.164   4.219  11.794 -0.5000  0.6212  0.2427
 2518TIP3   OH228968   1.752   4.137  13.023  0.0394  1.4068 -0.3328
 2518TIP3    H128969   1.797   4.143  12.938 -0.9082  2.3198 -0.7863
 2518TIP3    H228970   1.704   4.054  13.018  2.3131 -0.0654  0.5183
 2519TIP3   OH228971   3.176   5.893   4.272  0.3528 -0.4342 -0.3053
 2519TIP3    H128972   3.084   5.870   4.261 -0.0421  0.5871  0.7239
 2519TIP3    H228973   3.223   5.812   4.254 -0.4698 -0.2628 -4.1711
 2520TIP3   OH228974   4.322   1.506  13.040  0.1490  0.1374  0.1804
 2520TIP3    H128975   4.387   1.575  13.030 -0.0273  0.2362 -0.3112
 2520TIP3    H228976   4.335   1.473  13.129  0.5409  0.4893  0.2549
 2521TIP3   OH228977   6.044   4.977  14.193  0.2482 -0.3206 -0.4946
 2521TIP3    H128978   6.081   4.954  14.108 -0.7429  0.2083 -1.0888
 2521TIP3    H228979   6.109   4.946  14.256  0.5076 -1.6911 -1.3898
 2522TIP3   OH228980   0.604   2.419  15.663  0.0952  0.2755  0.2720
 2522TIP3    H128981   0.570   2.490  15.608  0.8051  1.5398  1.4094
 2522TIP3    H228982   0.610   2.457  15.751  0.8740 -1.0782  0.8409
 2523TIP3   OH228983   5.602   2.376  12.645 -0.1556 -0.1011  0.3571
 2523TIP3    H128984   5.595   2.454  12.590 -2.2483  1.9068  3.1665
 2523TIP3    H228985   5.691   2.379  12.681  0.3877 -0.0824 -0.9288
 2524TIP3   OH228986   2.848   2.714   0.254  0.1871  0.4363 -0.6228
 2524TIP3    H128987   2.939   2.686   0.263  0.4159  0.5964 -2.0700
 2524TIP3    H228988   2.854   2.798   0.208 -0.6359  1.2681  0.7362
 2525TIP3   OH228989   4.085   3.680  12.233 -0.0022  0.4107  0.5080
 2525TIP3    H128990   4.106   3.623  12.307  0.2200  0.2856  0.3481
 2525TIP3    H228991   3.997   3.653  12.207 -0.0274  0.3624  0.6417
 2526TIP3   OH228992   0.159   0.502   3.059 -0.7621  0.6795 -0.4023
 2526TIP3    H128993   0.247   0.479   3.090 -1.2972  1.6451  2.0347
 2526TIP3    H228994   0.174   0.554   2.980  0.7936  0.0782 -0.5404
 2527TIP3   OH228995   5.204   0.431   4.485  0.2037 -0.1312 -0.1616
 2527TIP3    H128996   5.160   0.501   4.532 -0.8021  0.1169 -1.4078
 2527TIP3    H228997   5.270   0.475   4.432 -0.4075 -0.1040 -0.9213
 2528TIP3   OH228998   0.813   3.161  16.964 -0.4268  0.2001 -0.0724
 2528TIP3    H128999   0.806   3.194  17.054  0.4280  0.8972 -0.2502
 2528TIP3    H229000   0.782   3.233  16.909 -1.1303 -0.2941 -0.3370
 2529TIP3   OH229001   0.012   2.201  16.859 -0.3478 -0.1798  0.1215
 2529TIP3    H129002   0.028   2.187  16.765 -1.7067  0.8646 -0.2958
 2529TIP3    H229003  -0.025   2.289  16.864  0.6360  0.1708  1.7670
 2530TIP3   OH229004   3.153   2.342  10.645  0.8753 -0.1239  0.4153
 2530TIP3    H129005   3.106   2.276  10.697  0.2273  0.7731  1.0018
 2530TIP3    H229006   3.246   2.321  10.658  0.6792 -0.9460  0.5483
 2531TIP3   OH229007   2.684   2.374   1.754 -0.4816 -0.4824  0.2869
 2531TIP3    H129008   2.751   2.432   1.719  1.6408 -2.9508  0.0116
 2531TIP3    H229009   2.613   2.433   1.780  1.6239  2.2323  0.3216
 2532TIP3   OH229010   3.832   4.272  16.039  0.0923 -0.0756  0.1749
 2532TIP3    H129011   3.785   4.349  16.070  1.0401  1.9765 -2.9139
 2532TIP3    H229012   3.905   4.263  16.100  0.4496  2.0810  0.1688
 2533TIP3   OH229013   5.821   4.207   5.141 -0.4112  0.3246  0.1939
 2533TIP3    H129014   5.829   4.172   5.052  0.3015  0.0069  0.3731
 2533TIP3    H229015   5.785   4.134   5.192 -1.2074  0.6385  0.0877
 2534TIP3   OH229016   3.963   6.234  12.015 -0.5726 -0.9472 -0.0085
 2534TIP3    H129017   3.993   6.320  12.042  0.1206 -0.8563 -0.9976
 2534TIP3    H229018   4.013   6.215  11.935 -0.2596 -2.5145  0.5159
 2535TIP3   OH229019   0.814   3.119   6.199 -0.2276 -0.1186 -0.1791
 2535TIP3    H129020   0.867   3.110   6.120  1.0050 -1.3539  0.7345
 2535TIP3    H229021   0.780   3.031   6.215 -1.4963  0.3915 -0.0227
 2536TIP3   OH229022   3.410   2.814  10.995 -0.2800  0.1178 -0.0445
 2536TIP3    H129023   3.355   2.767  10.933  1.6738  0.1272 -1.9344
 2536TIP3    H229024   3.455   2.746  11.045  0.1772  0.0302 -0.5667
 2537TIP3   OH229025   0.642   4.745   6.271  0.0101 -0.0957  0.0109
 2537TIP3    H129026   0.661   4.657   6.303 -0.0706 -0.7225 -1.5517
 2537TIP3    H229027   0.571   4.731   6.207  1.9561  0.6422 -2.4617
 2538TIP3   OH229028   2.179   3.772  14.409 -0.3504 -0.2558 -0.5910
 2538TIP3    H129029   2.240   3.706  14.374  1.6369  2.2371 -2.1675
 2538TIP3    H229030   2.154   3.824  14.333  0.1530  2.3349  0.9159
 2539TIP3   OH229031   2.365   0.654  13.751  1.0064 -0.3681  0.2206
 2539TIP3    H129032   2.333   0.615  13.832 -1.6887  2.8325  0.9564
 2539TIP3    H229033   2.443   0.703  13.777  1.4282 -1.1108  0.3783
 2540TIP3   OH229034   4.745   5.254  12.827  0.6087 -0.3067 -0.0527
 2540TIP3    H129035   4.740   5.349  12.839  0.6341 -0.1338 -1.3170
 2540TIP3    H229036   4.708   5.239  12.740 -0.8485 -1.6242  0.7520
 2541TIP3   OH229037   3.079   3.358   2.424  0.4159 -0.3358  0.4973
 2541TIP3    H129038   3.096   3.312   2.507  2.5838  0.0148  0.2992
 2541TIP3    H229039   3.127   3.307   2.359  1.3753  1.1916 -0.0194
 2542TIP3   OH229040   6.110   6.449  13.072 -0.1161 -0.2038  0.0542
 2542TIP3    H129041   6.138   6.535  13.104 -1.4230  0.3208 -0.1439
 2542TIP3    H229042   6.151   6.441  12.986  0.0378  0.2156  0.0870
 2543TIP3   OH229043   1.740   0.366  15.945 -0.8215  0.1540  0.0992
 2543TIP3    H129044   1.808   0.431  15.927 -1.3143  0.5689 -0.2952
 2543TIP3    H229045   1.780   0.305  16.007  0.1717 -0.0414 -0.7141
 2544TIP3   OH229046   4.643   3.364   4.664  0.0856  0.1216 -0.2890
 2544TIP3    H129047   4.597   3.322   4.736 -0.0901  1.6691  0.5192
 2544TIP3    H229048   4.698   3.294   4.627  0.4948 -0.5937  1.5910
 2545TIP3   OH229049   4.028   3.868   2.115  0.1829 -0.5225  0.4627
 2545TIP3    H129050   4.062   3.816   2.042 -0.7150  0.2630 -0.5384
 2545TIP3    H229051   4.107   3.899   2.160  0.7569 -0.7479 -0.3544
 2546TIP3   OH229052   5.368   5.681  17.142  0.4422  0.2568  0.2770
 2546TIP3    H129053   5.331   5.602  17.102  0.1187 -0.1267  1.3184
 2546TIP3    H229054   5.418   5.722  17.071 -0.5200 -0.1504 -0.6602
 2547TIP3   OH229055   2.421   4.203   4.511 -0.2214 -0.2530  0.6449
 2547TIP3    H129056   2.486   4.254   4.462  0.8487 -0.4430  1.7847
 2547TIP3    H229057   2.464   4.185   4.595 -1.7493 -0.4342  1.4247
 2548TIP3   OH229058   2.557   4.047   1.450  0.4098  0.5067 -0.2711
 2548TIP3    H129059   2.529   4.030   1.360 -0.6102  1.1863 -0.1080
 2548TIP3    H229060   2.476   4.070   1.496  0.8087 -0.4669  0.9853
 2549TIP3   OH229061   5.020   4.230   0.553  0.0272 -0.5430  0.0354
 2549TIP3    H129062   4.981   4.160   0.607  4.3559 -2.2389  1.3877
 2549TIP3    H229063   5.041   4.299   0.615 -0.5740  0.2372 -0.6179
 2550TIP3   OH229064   5.221   4.322  12.212 -0.4542 -0.3966 -0.0670
 2550TIP3    H129065   5.231   4.377  12.290 -1.2858 -0.3516  0.0155
 2550TIP3    H229066   5.302   4.337  12.162  0.1794 -0.5769  0.8663
 2551TIP3   OH229067   2.457   1.092  12.745 -0.7815 -0.0262 -0.1231
 2551TIP3    H129068   2.530   1.147  12.771 -1.0150  0.2833 -0.1136
 2551TIP3    H229069   2.380   1.133  12.785 -0.7719 -1.2700  1.2454
 2552TIP3   OH229070   4.179   1.439   3.446  0.2859 -0.5340 -0.1434
 2552TIP3    H129071   4.210   1.515   3.398 -0.5995  0.2901  0.5678
 2552TIP3    H229072   4.244   1.371   3.428  0.6830  0.1583 -1.3866
 2553TIP3   OH229073   2.171   1.860  12.048 -0.1350 -0.6371  0.4046
 2553TIP3    H129074   2.225   1.904  12.114 -1.2614 -0.7563  1.4438
 2553TIP3    H229075   2.115   1.801  12.098 -0.6275 -1.1573 -0.7235
 2554TIP3   OH229076   4.894   1.129  11.957  0.1701  0.3621 -0.1810
 2554TIP3    H129077   4.912   1.206  12.011  0.3337  1.3548 -1.5821
 2554TIP3    H229078   4.858   1.165  11.876  2.4157 -0.8301 -1.8120
 2555TIP3   OH229079   5.015   1.885  12.760 -0.4615  0.5657  0.2795
 2555TIP3    H129080   4.945   1.950  12.763  0.3997  1.5332 -0.0859
 2555TIP3    H229081   5.014   1.846  12.848 -2.1111 -0.1838 -0.0237
 2556TIP3   OH229082   5.020   4.195  11.310  0.2993 -0.1803  0.0343
 2556TIP3    H129083   5.104   4.168  11.348  0.2668 -0.1893  0.0998
 2556TIP3    H229084   4.957   4.133  11.347  0.0808  0.5151  0.8693
 2557TIP3   OH229085   2.875   0.623  10.885  0.0868 -0.2843 -0.1871
 2557TIP3    H129086   2.942   0.687  10.908 -0.0632 -1.0575  2.7645
 2557TIP3    H229087   2.831   0.662  10.809  2.1768  1.4442 -0.6198
 2558TIP3   OH229088   3.113   4.022   4.429  0.2163 -0.3683  0.1683
 2558TIP3    H129089   3.048   3.961   4.465  0.9209  0.3371  2.8664
 2558TIP3    H229090   3.062   4.085   4.379 -1.0206 -0.6487  1.0351
 2559TIP3   OH229091   6.039   2.852   5.738 -0.7549  0.3307 -0.4384
 2559TIP3    H129092   5.954   2.864   5.697 -1.3071 -0.7586  0.3390
 2559TIP3    H229093   6.082   2.783   5.687 -0.5944  0.4414 -0.4547
 2560TIP3   OH229094   0.480   0.859   1.136  0.2454 -0.5566 -0.5914
 2560TIP3    H129095   0.555   0.895   1.183 -0.0079 -1.1585  0.2837
 2560TIP3    H229096   0.462   0.775   1.178 -2.1365  0.4183  0.5311
 2561TIP3   OH229097   3.792   6.457  13.245 -0.5375 -0.6641 -0.4970
 2561TIP3    H129098   3.859   6.469  13.178 -1.8391 -0.8656 -1.9095
 2561TIP3    H229099   3.797   6.364  13.267 -0.9684 -0.9023 -1.3313
 2562TIP3   OH229100   5.061   4.220  15.948  0.3017  0.4037 -0.3855
 2562TIP3    H129101   5.041   4.230  16.041  1.2182  0.2510 -0.1576
 2562TIP3    H229102   5.157   4.218  15.945  0.2865  0.9582 -1.3922
 2563TIP3   OH229103   4.049   0.656  14.442  0.4417  0.2156  0.0740
 2563TIP3    H129104   4.144   0.653  14.443  0.4522  0.4941 -0.0641
 2563TIP3    H229105   4.028   0.740  14.401  0.1416 -1.1141 -2.7116
 2564TIP3   OH229106   6.559   4.706  11.648 -0.3212  0.2467  0.5615
 2564TIP3    H129107   6.590   4.619  11.669 -1.2752 -0.5951 -1.2441
 2564TIP3    H229108   6.540   4.703  11.554 -2.2114  1.7965  0.8094
 2565TIP3   OH229109   0.421   2.967  16.916 -0.4209  0.2743 -0.9360
 2565TIP3    H129110   0.371   3.045  16.937  0.7558  1.1102 -1.1677
 2565TIP3    H229111   0.355   2.898  16.907 -1.5038  1.2982 -1.0515
 2566TIP3   OH229112   5.376   1.359  13.839  0.3050  0.5574 -0.0940
 2566TIP3    H129113   5.337   1.431  13.889  0.1802  1.8168 -1.8749
 2566TIP3    H229114   5.348   1.376  13.748  0.2143 -1.8042 -0.5632
 2567TIP3   OH229115   0.377   4.230  14.489 -0.9053  0.0085 -0.0434
 2567TIP3    H129116   0.416   4.273  14.565  0.7397 -1.4306 -0.0089
 2567TIP3    H229117   0.335   4.151  14.525 -4.6285  1.8068  0.0226
 2568TIP3   OH229118   4.877   1.587   3.930 -0.6511  0.2966 -0.0635
 2568TIP3    H129119   4.788   1.557   3.948 -1.4592  2.5783  0.0477
 2568TIP3    H229120   4.900   1.642   4.005  2.1721 -2.6767  1.5197
 2569TIP3   OH229121   3.505   5.240  16.984 -0.0259 -0.1752 -0.1315
 2569TIP3    H129122   3.528   5.221  17.075 -0.9679  2.3966  0.7406
 2569TIP3    H229123   3.511   5.156  16.939 -2.7270 -2.2692  3.0081
 2570TIP3   OH229124   4.567   1.288   1.557 -0.2516 -0.5170  0.1246
 2570TIP3    H129125   4.585   1.288   1.651 -0.3238  0.9614  0.1699
 2570TIP3    H229126   4.476   1.261   1.549  0.1639 -2.0693  0.3521
 2571TIP3   OH229127   0.320   6.377  16.606  0.6451  0.8341  0.1754
 2571TIP3    H129128   0.311   6.413  16.518 -0.3893 -2.1013 -1.0061
 2571TIP3    H229129   0.400   6.324  16.602 -0.2703 -0.5984  0.5131
 2572TIP3   OH229130   5.249   0.703   0.589 -0.0706 -0.1518 -0.1028
 2572TIP3    H129131   5.245   0.657   0.673  0.4714 -1.8428 -0.9553
 2572TIP3    H229132   5.290   0.787   0.610 -1.3996  0.1546  1.5725
 2573TIP3   OH229133   6.507   3.426  13.457 -0.3089 -0.6041  0.3983
 2573TIP3    H129134   6.557   3.444  13.377  0.3158 -0.9689  0.6982
 2573TIP3    H229135   6.519   3.332  13.471 -0.1733 -0.4868  1.0858
 2574TIP3   OH229136   4.839   5.555  11.738 -0.1845 -0.3443 -0.2407
 2574TIP3    H129137   4.903   5.563  11.668  0.2843 -0.6151  0.1504
 2574TIP3    H229138   4.814   5.462  11.737 -0.3168 -0.3099 -0.1732
 2575TIP3   OH229139   0.817   6.440  14.127 -0.3048  0.1971 -0.1824
 2575TIP3    H129140   0.886   6.444  14.193 -0.2942  1.0328 -0.2356
 2575TIP3    H229141   0.858   6.469  14.046 -0.0796 -1.6950 -0.7950
 2576TIP3   OH229142   0.608   0.755   4.577 -0.0620  0.4818  0.0244
 2576TIP3    H129143   0.687   0.712   4.545 -0.1765  1.0750 -1.1016
 2576TIP3    H229144   0.616   0.845   4.548 -2.2448  0.0439 -2.2840
 2577TIP3   OH229145   3.837   4.150  15.791  0.4177 -0.1960 -0.1608
 2577TIP3    H129146   3.768   4.094  15.827  0.0408  1.3232  1.6680
 2577TIP3    H229147   3.864   4.205  15.865  2.0256  0.8031 -1.4094
 2578TIP3   OH229148   0.568   4.970  15.736  0.1545 -0.3627  0.4586
 2578TIP3    H129149   0.603   4.989  15.648  1.8839 -2.3210  0.6543
 2578TIP3    H229150   0.562   5.056  15.778  0.0347  0.5384 -1.3059
 2579TIP3   OH229151   3.585   2.903   5.255 -0.6363 -0.4319  0.2871
 2579TIP3    H129152   3.672   2.870   5.280 -0.7129  0.1171  1.3172
 2579TIP3    H229153   3.536   2.824   5.231  0.0500 -0.7781 -0.0104
 2580TIP3   OH229154   2.465   5.134  11.719 -0.5352  0.5532 -0.2677
 2580TIP3    H129155   2.422   5.052  11.696  1.2047 -0.1388 -1.1714
 2580TIP3    H229156   2.515   5.114  11.798  1.2220  0.2319 -1.4095
 2581TIP3   OH229157   5.540   6.108  10.619  0.0715 -0.0431  0.3841
 2581TIP3    H129158   5.447   6.087  10.604  0.1377  0.3918 -0.7709
 2581TIP3    H229159   5.539   6.187  10.672 -0.2351  0.1788  0.0566
 2582TIP3   OH229160   0.775   1.456  15.720  0.1054  0.3303 -0.2537
 2582TIP3    H129161   0.691   1.412  15.700  0.2798 -0.7070  1.1648
 2582TIP3    H229162   0.789   1.440  15.813  0.6581  2.6733  0.1305
 2583TIP3   OH229163   4.297   4.834   4.991 -0.2369  0.1825  0.1213
 2583TIP3    H129164   4.285   4.897   5.062 -0.6384 -0.1676  0.3690
 2583TIP3    H229165   4.391   4.815   4.991  0.1546  1.8567 -0.8967
 2584TIP3   OH229166   0.969   5.293   0.732 -0.1405 -0.2194  0.0487
 2584TIP3    H129167   0.943   5.385   0.727  0.4912 -0.0435 -0.0382
 2584TIP3    H229168   0.891   5.249   0.766  0.1348  0.6193  1.8894
 2585TIP3   OH229169   2.809   1.521   5.773  0.1887 -0.2192 -0.0592
 2585TIP3    H129170   2.821   1.427   5.761 -0.8297 -0.1421 -2.2365
 2585TIP3    H229171   2.882   1.561   5.725  0.4671  0.1217  0.6322
 2586TIP3   OH229172   0.916   1.529  13.130 -0.7568  0.1184  0.3757
 2586TIP3    H129173   0.863   1.450  13.133  0.4300 -0.7106  0.1580
 2586TIP3    H229174   0.881   1.579  13.057 -0.8008 -0.7425 -0.2028
 2587TIP3   OH229175   6.579   3.971  11.286  0.8003  0.5005  0.0247
 2587TIP3    H129176   6.646   3.959  11.354  0.7081  1.1202  0.2258
 2587TIP3    H229177   6.502   4.002  11.334  0.8055  1.1627 -0.3956
 2588TIP3   OH229178   1.631   5.062   4.572  0.0388 -0.1118  0.3315
 2588TIP3    H129179   1.670   5.145   4.602  1.6595 -0.8091  0.2485
 2588TIP3    H229180   1.642   5.003   4.646  0.0376 -0.6159 -0.0720
 2589TIP3   OH229181   4.123   2.814  13.603  0.6019 -0.3283 -0.1769
 2589TIP3    H129182   4.064   2.769  13.542 -0.3343  0.0778  0.4132
 2589TIP3    H229183   4.123   2.905  13.574  0.9160 -0.3193 -0.1524
 2590TIP3   OH229184   0.867   5.150   2.133  0.0769  0.1998 -0.2469
 2590TIP3    H129185   0.815   5.088   2.185  0.7878  0.6285  1.0152
 2590TIP3    H229186   0.848   5.235   2.172 -1.2719  0.9154 -2.2699
 2591TIP3   OH229187   5.934   4.864   2.024 -0.6523 -0.1646 -0.2830
 2591TIP3    H129188   5.852   4.863   2.075 -0.4638  0.2594  0.0341
 2591TIP3    H229189   6.003   4.863   2.090 -0.3951  1.4043 -0.4723
 2592TIP3   OH229190   6.779   4.531   6.610  0.6836 -0.1574  0.3477
 2592TIP3    H129191   6.806   4.611   6.656  1.2905 -1.1303  1.7331
 2592TIP3    H229192   6.684   4.540   6.602  0.7366  0.6861  0.5321
 2593TIP3   OH229193   6.750   2.559   5.027 -0.2291  0.1758 -0.7333
 2593TIP3    H129194   6.746   2.466   5.008  0.8070  0.0461 -0.3944
 2593TIP3    H229195   6.761   2.601   4.941 -2.6208  0.1694 -1.1042
 2594TIP3   OH229196   5.050   4.159  14.073  0.5935 -0.5228  0.2943
 2594TIP3    H129197   5.017   4.222  14.008  0.0538 -1.8473 -0.7746
 2594TIP3    H229198   5.130   4.124  14.033  1.9602  0.7894  1.7224
 2595TIP3   OH229199   1.269   1.572   3.939  0.2622  0.6431  0.0667
 2595TIP3    H129200   1.235   1.652   3.979  3.4837  1.9787  0.4904
 2595TIP3    H229201   1.337   1.603   3.878  1.1242 -1.7366 -0.2820
 2596TIP3   OH229202   2.263   2.772  14.909 -0.1005  0.0839  0.0039
 2596TIP3    H129203   2.220   2.812  14.833 -0.2267  0.7253  0.4118
 2596TIP3    H229204   2.202   2.785  14.981  0.7105  0.8770  0.5586
 2597TIP3   OH229205   2.752   1.214   2.638  0.4434  0.4394 -0.0536
 2597TIP3    H129206   2.847   1.231   2.633  0.5665  0.0896  0.8635
 2597TIP3    H229207   2.737   1.145   2.573  0.7882  0.6193 -0.3293
 2598TIP3   OH229208   2.254   5.740  11.734  1.1423  0.0730  0.3205
 2598TIP3    H129209   2.176   5.687  11.755 -1.0643  3.2588  0.9523
 2598TIP3    H229210   2.318   5.677  11.701 -0.8093 -3.1015  2.0606
 2599TIP3   OH229211   0.763   3.321  16.147  0.2407  0.7977 -0.2454
 2599TIP3    H129212   0.671   3.319  16.118  0.1472 -0.1702  0.0800
 2599TIP3    H229213   0.771   3.246  16.206  1.2560  0.8471 -0.3036
 2600TIP3   OH229214   3.246   1.641   1.684  0.3223 -0.1826  0.2633
 2600TIP3    H129215   3.184   1.675   1.748 -0.4858  1.4303 -1.3091
 2600TIP3    H229216   3.206   1.561   1.651 -0.6357  0.4800 -0.2326
 2601TIP3   OH229217   2.753   4.507  16.931 -0.4779 -0.0089 -0.2478
 2601TIP3    H129218   2.822   4.545  16.986  0.2229 -0.2901 -0.9046
 2601TIP3    H229219   2.685   4.480  16.992  0.4083 -0.5753  0.5125
 2602TIP3   OH229220   3.332   2.880  15.287  0.0314 -0.2151  0.1084
 2602TIP3    H129221   3.292   2.839  15.211  1.2361  1.4396 -1.4794
 2602TIP3    H229222   3.415   2.833  15.299 -0.0868 -0.3730  0.3271
 2603TIP3   OH229223   0.717   6.505   1.335 -0.1887 -0.5914  0.1801
 2603TIP3    H129224   0.748   6.419   1.363 -0.2474 -0.5670  0.3154
 2603TIP3    H229225   0.673   6.541   1.411  2.5220  0.8645  1.2158
 2604TIP3   OH229226   4.327   1.207   5.982  0.4827  0.1195  0.6952
 2604TIP3    H129227   4.276   1.249   5.913  0.0331 -1.2455  0.1529
 2604TIP3    H229228   4.375   1.278   6.023  0.0899  1.0870 -0.4537
 2605TIP3   OH229229   3.298   1.403  16.060  0.4338  0.0641  0.1762
 2605TIP3    H129230   3.326   1.316  16.091 -1.1496 -0.4756  0.2065
 2605TIP3    H229231   3.329   1.464  16.127 -1.0934 -0.8501  1.8230
 2606TIP3   OH229232   4.960   2.913  16.660 -0.1865  0.1728  0.2263
 2606TIP3    H129233   4.988   2.955  16.579  0.6678 -1.2025 -0.2238
 2606TIP3    H229234   4.892   2.851  16.632  0.0174 -0.2112  0.5693
 2607TIP3   OH229235   0.394   0.014  11.216  0.2004 -0.2742 -0.1564
 2607TIP3    H129236   0.488   0.030  11.218 -0.1424  2.0395  0.1023
 2607TIP3    H229237   0.375  -0.030  11.299  0.7856  1.0725  0.7132
 2608TIP3   OH229238   6.265   0.149  12.922 -0.2214 -0.1739 -0.1029
 2608TIP3    H129239   6.326   0.179  12.989 -1.7332 -1.6628  2.1012
 2608TIP3    H229240   6.217   0.228  12.896  1.5023  0.7144 -0.6885
 2609TIP3   OH229241   2.284   2.787   6.436  0.2175 -0.0979 -0.1412
 2609TIP3    H129242   2.379   2.790   6.436  0.2133  0.3155 -0.9607
 2609TIP3    H229243   2.263   2.694   6.427  0.5437 -0.1557 -0.3232
 2610TIP3   OH229244   4.275   3.213   1.117  0.3807  0.2650  0.2774
 2610TIP3    H129245   4.272   3.282   1.051 -3.3859  0.5005  0.4978
 2610TIP3    H229246   4.327   3.143   1.077  0.2881  1.3805 -1.8894
 2611TIP3   OH229247   5.685   0.169   1.715  0.1031  0.0409  0.1611
 2611TIP3    H129248   5.714   0.239   1.657 -0.3971  0.1830  0.0787
 2611TIP3    H229249   5.673   0.211   1.800 -0.5056  0.1330  0.0383
 2612TIP3   OH229250   4.527   6.250  15.376  0.2951 -0.3753 -0.1541
 2612TIP3    H129251   4.469   6.297  15.316  2.5178  2.4694 -0.2881
 2612TIP3    H229252   4.523   6.159  15.347 -2.9780 -0.0808 -0.9828
 2613TIP3   OH229253   3.361   6.114  12.494  0.1480  0.2637 -0.6458
 2613TIP3    H129254   3.277   6.145  12.529  0.0767  0.7447 -1.2205
 2613TIP3    H229255   3.342   6.089  12.404  0.9103  1.8141 -1.2805
 2614TIP3   OH229256   0.838   6.631   6.191  0.6451  0.5144 -0.1152
 2614TIP3    H129257   0.921   6.616   6.237  0.6165  0.7956  0.0294
 2614TIP3    H229258   0.816   6.546   6.154  0.4233  0.1478  0.8127
 2615TIP3   OH229259   2.542   4.665  12.588  0.1214  0.4986 -0.2111
 2615TIP3    H129260   2.447   4.663  12.597 -0.0132  0.0219 -1.5768
 2615TIP3    H229261   2.567   4.752  12.619 -0.5703  0.0723  1.6609
 2616TIP3   OH229262   6.169   4.627   1.764 -0.2644 -0.6122 -0.1987
 2616TIP3    H129263   6.263   4.634   1.778 -0.1840  0.9799 -1.2811
 2616TIP3    H229264   6.161   4.590   1.676 -0.6586 -0.7276 -0.1149
 2617TIP3   OH229265   2.111   3.686  15.616 -0.0621  0.4892 -0.0981
 2617TIP3    H129266   2.050   3.664  15.687 -0.8913 -0.4380 -1.0597
 2617TIP3    H229267   2.079   3.770  15.582 -1.5248 -0.5147 -1.3136
 2618TIP3   OH229268   6.189   6.724  13.925  0.0874  0.0838  0.2815
 2618TIP3    H129269   6.188   6.817  13.948  1.3374  0.0361  0.6128
 2618TIP3    H229270   6.138   6.681  13.994  1.3424  0.2889  1.3776
 2619TIP3   OH229271   1.658   3.915   5.221 -1.1383 -0.1071  0.0562
 2619TIP3    H129272   1.562   3.908   5.221 -1.2260  0.9252  0.6143
 2619TIP3    H229273   1.684   3.886   5.308 -0.9873  0.1070  0.0829
 2620TIP3   OH229274   4.632   3.194   2.478 -0.4588 -0.8161 -0.3060
 2620TIP3    H129275   4.590   3.215   2.561  0.0485 -3.6287  0.7860
 2620TIP3    H229276   4.571   3.135   2.434  0.8248 -2.3381 -0.1650
 2621TIP3   OH229277   1.426   6.199  12.782  0.2481  0.2057  0.5226
 2621TIP3    H129278   1.340   6.227  12.749  0.3049  1.7090  1.5857
 2621TIP3    H229279   1.456   6.272  12.836  2.5894  0.0620 -0.4855
 2622TIP3   OH229280   5.342   4.668  13.284 -0.0268 -0.2780 -0.4598
 2622TIP3    H129281   5.315   4.698  13.197  1.6384  1.7356 -0.3714
 2622TIP3    H229282   5.437   4.665  13.280  0.0853 -0.2063  1.2698
 2623TIP3   OH229283   2.479   6.107  10.773  0.0704  0.1488 -0.2972
 2623TIP3    H129284   2.493   6.013  10.764 -0.9495  0.0197 -0.7123
 2623TIP3    H229285   2.566   6.146  10.762  0.3747 -0.6927 -0.9809
 2624TIP3   OH229286   0.835   2.344   5.695 -0.0122 -0.0187 -0.4482
 2624TIP3    H129287   0.782   2.316   5.769 -0.2438  0.4399 -0.4395
 2624TIP3    H229288   0.775   2.391   5.638  0.5266  1.1615 -0.0784
 2625TIP3   OH229289   1.087   5.216  14.678 -0.3629  0.2313  0.5107
 2625TIP3    H129290   1.154   5.238  14.612  0.3884 -1.4128  0.6905
 2625TIP3    H229291   1.132   5.225  14.762 -1.2551  2.0882  0.8388
 2626TIP3   OH229292   6.617   0.151  12.869  0.2786 -0.1685  0.6148
 2626TIP3    H129293   6.531   0.130  12.906  0.1719 -0.8922 -0.0205
 2626TIP3    H229294   6.669   0.072  12.885  1.4074  0.9196  2.6404
 2627TIP3   OH229295   2.413   6.633   5.412  0.3989 -0.6907  0.4010
 2627TIP3    H129296   2.369   6.612   5.330  2.0988 -0.6190 -0.5683
 2627TIP3    H229297   2.462   6.712   5.394 -1.6092  1.1695  2.4300
 2628TIP3   OH229298   6.179   2.086   3.697 -0.3669 -0.1389  0.3065
 2628TIP3    H129299   6.130   2.149   3.750 -1.1861 -0.6274  0.1624
 2628TIP3    H229300   6.144   2.097   3.609  0.4319  0.1223  0.0122
 2629TIP3   OH229301   2.799   5.305   6.221 -0.4242 -0.1941 -0.4619
 2629TIP3    H129302   2.738   5.277   6.153 -1.3894  1.5318 -0.3738
 2629TIP3    H229303   2.759   5.277   6.303 -0.9267  0.5904 -0.4287
 2630TIP3   OH229304   2.728   6.330   1.739  0.1909  0.2524  0.0173
 2630TIP3    H129305   2.701   6.241   1.761 -1.8133  1.0761  1.2155
 2630TIP3    H229306   2.822   6.332   1.758 -0.2841 -0.8095  3.0663
 2631TIP3   OH229307   3.448   4.815  14.593  0.0686 -0.0962  0.0415
 2631TIP3    H129308   3.396   4.881  14.639  0.1927  2.0961 -2.6758
 2631TIP3    H229309   3.537   4.828  14.624 -0.0221  0.5585  0.0398
 2632TIP3   OH229310   5.831   1.932  11.684 -0.1123 -0.5831  0.4903
 2632TIP3    H129311   5.739   1.907  11.677 -0.2594  0.2068 -0.8836
 2632TIP3    H229312   5.879   1.858  11.647 -0.3086 -0.3563 -0.2317
 2633TIP3   OH229313   1.240   4.001   1.464  0.2827 -0.2978  0.8238
 2633TIP3    H129314   1.147   4.017   1.473  0.1522 -0.9980  0.7899
 2633TIP3    H229315   1.279   4.032   1.546  0.4726  2.9919 -0.3567
 2634TIP3   OH229316   6.170   3.440  15.639 -0.5197  0.2892  0.4358
 2634TIP3    H129317   6.194   3.520  15.687 -1.0426  1.0630 -0.5431
 2634TIP3    H229318   6.230   3.373  15.672  0.8210  1.3996  0.3250
 2635TIP3   OH229319   5.232   2.505  16.427  0.1981  0.0469 -0.1043
 2635TIP3    H129320   5.290   2.531  16.356 -0.2124  2.7754  0.4317
 2635TIP3    H229321   5.150   2.551  16.408 -0.3443 -0.2353  1.4226
 2636TIP3   OH229322   5.837   4.811  15.307 -0.5795 -0.0189  0.0395
 2636TIP3    H129323   5.833   4.822  15.212 -0.2633 -1.7424 -0.2098
 2636TIP3    H229324   5.746   4.819  15.336 -0.6498  0.7380 -0.3693
 2637TIP3   OH229325   1.314   1.046  17.023 -0.3630  0.4151 -0.2848
 2637TIP3    H129326   1.339   1.139  17.020  0.0197  0.3845  1.1461
 2637TIP3    H229327   1.380   1.002  16.970 -0.2213  0.8924 -0.5164
 2638TIP3   OH229328   6.023   4.256   1.477 -0.3444 -0.6001 -0.0911
 2638TIP3    H129329   5.984   4.179   1.520 -1.5652 -0.0989 -0.2539
 2638TIP3    H229330   6.018   4.235   1.384 -2.6696  0.4993 -0.2983
 2639TIP3   OH229331   5.758   5.595  13.919  0.2845 -0.3341  0.0929
 2639TIP3    H129332   5.819   5.667  13.936  1.5098 -1.2348 -0.3011
 2639TIP3    H229333   5.808   5.533  13.865 -0.9544 -1.1625 -0.1641
 2640TIP3   OH229334   6.297   3.959   1.872  0.1954 -0.1920 -0.1795
 2640TIP3    H129335   6.291   3.973   1.966 -1.9777 -0.4197 -0.2357
 2640TIP3    H229336   6.380   4.001   1.847  0.0967  1.2015  1.5969
 2641TIP3   OH229337   5.102   1.818   0.750 -0.1475  0.0328 -0.0470
 2641TIP3    H129338   5.159   1.825   0.827  0.7300  0.7807 -0.7384
 2641TIP3    H229339   5.100   1.724   0.730 -0.4004 -0.1697  0.8826
 2642TIP3   OH229340   5.136   2.451   3.501 -0.6353  0.3028  0.2018
 2642TIP3    H129341   5.132   2.546   3.513 -2.0496  0.6443 -2.1843
 2642TIP3    H229342   5.212   2.437   3.446 -1.0260  0.1908 -0.3173
 2643TIP3   OH229343   6.182   2.947   3.579 -0.2868 -0.5917  0.1375
 2643TIP3    H129344   6.236   2.994   3.642  1.6921 -0.8635 -1.2735
 2643TIP3    H229345   6.172   3.008   3.506 -1.1849 -0.8687  0.0198
 2644TIP3   OH229346   3.141   1.120  13.722 -0.5748 -0.6130  0.3977
 2644TIP3    H129347   3.048   1.105  13.740 -0.5473  0.4932  1.6298
 2644TIP3    H229348   3.180   1.131  13.809  1.1090 -3.0494  0.0538
 2645TIP3   OH229349   0.279   4.942  16.809  0.3912 -0.5414  0.5405
 2645TIP3    H129350   0.283   4.848  16.793  0.9066 -0.3038 -0.9168
 2645TIP3    H229351   0.189   4.966  16.789  0.1236 -0.8090  1.4292
 2646TIP3   OH229352   6.272   0.953   6.496  0.3200 -0.3067  0.8577
 2646TIP3    H129353   6.276   1.027   6.556  0.6980  0.3049  0.0976
 2646TIP3    H229354   6.356   0.908   6.507  0.6189  0.1267  0.3992
 2647TIP3   OH229355   6.722   5.473  11.206 -0.3764 -0.5486  0.0475
 2647TIP3    H129356   6.695   5.499  11.118  2.4940 -0.8117 -1.0044
 2647TIP3    H229357   6.775   5.547  11.237 -0.9683 -0.6629  1.4078
 2648TIP3   OH229358   2.378   5.024  11.137 -0.4912 -0.1144 -0.0915
 2648TIP3    H129359   2.424   5.078  11.202  0.3325 -0.0028 -0.7482
 2648TIP3    H229360   2.447   4.991  11.080 -1.0878 -1.1137 -0.2649
 2649TIP3   OH229361   0.536   0.005  13.738  0.3061 -0.6708  0.0213
 2649TIP3    H129362   0.612  -0.037  13.780  0.6136  0.6325  0.8273
 2649TIP3    H229363   0.568   0.033  13.653  0.7276 -0.2080  0.3234
 2650TIP3   OH229364   6.042   1.483   3.117 -0.2872 -0.1356 -0.1477
 2650TIP3    H129365   6.116   1.464   3.175  0.2393  0.8218 -0.4788
 2650TIP3    H229366   5.977   1.524   3.173 -0.2782 -0.3154 -0.0035
 2651TIP3   OH229367   4.030   1.126  14.861 -0.0865 -0.1393  0.8106
 2651TIP3    H129368   4.038   1.206  14.810  0.5465  0.1085  1.2810
 2651TIP3    H229369   3.936   1.111  14.868 -0.1903 -0.2725 -0.5575
 2652TIP3   OH229370   5.652   0.573  12.853 -0.8977 -0.2119  1.0313
 2652TIP3    H129371   5.673   0.666  12.840 -1.3961 -0.2281  0.1196
 2652TIP3    H229372   5.734   0.528  12.832  0.3800  0.1696  4.4965
 2653TIP3   OH229373   5.568   3.229   4.650  0.3262 -0.0405  0.0108
 2653TIP3    H129374   5.608   3.202   4.568 -0.1558 -0.4253 -0.1044
 2653TIP3    H229375   5.475   3.243   4.628  0.1907 -0.1662  0.4881
 2654TIP3   OH229376   2.856   2.932   3.112 -0.1953  0.9852 -0.6173
 2654TIP3    H129377   2.818   2.947   3.199  2.0600  3.2240  0.0937
 2654TIP3    H229378   2.782   2.901   3.059 -1.6300 -0.5123  2.0488
 2655TIP3   OH229379   5.880   5.599  14.782  0.0372 -0.2107 -0.0476
 2655TIP3    H129380   5.952   5.663  14.788 -0.4881  0.2773  1.6763
 2655TIP3    H229381   5.904   5.531  14.845 -0.0120 -1.1097 -0.9846
 2656TIP3   OH229382   6.072   0.310   3.538 -0.4836 -0.2556 -0.1731
 2656TIP3    H129383   6.100   0.239   3.596  0.2297  1.4082  1.6406
 2656TIP3    H229384   5.978   0.317   3.553 -0.2704  0.3157  1.0311
 2657TIP3   OH229385   0.303   3.482  12.904  0.4166 -0.5916 -0.0162
 2657TIP3    H129386   0.255   3.519  12.978  0.3449  0.6766 -0.6821
 2657TIP3    H229387   0.349   3.556  12.866 -1.1313 -0.8054 -2.4841
 2658TIP3   OH229388   3.228   0.137   4.070 -0.2756 -0.1325  0.0596
 2658TIP3    H129389   3.248   0.170   4.157 -0.2682 -1.7083  0.6832
 2658TIP3    H229390   3.303   0.163   4.016  0.1290  0.0903  0.7182
 2659TIP3   OH229391   5.537   3.668  15.851 -0.0157 -0.1675 -0.4989
 2659TIP3    H129392   5.521   3.703  15.764 -1.2847  0.8413  0.1065
 2659TIP3    H229393   5.614   3.715  15.882 -0.4603  0.5691 -0.5015
 2660TIP3   OH229394   5.649   4.804  15.578  0.3602 -0.1984  0.2009
 2660TIP3    H129395   5.661   4.717  15.617  0.3597 -0.4512 -0.3483
 2660TIP3    H229396   5.565   4.798  15.533  0.3637  0.0852  0.1599
 2661TIP3   OH229397   3.070   4.732  13.565  0.8017  0.3937  0.0121
 2661TIP3    H129398   3.149   4.688  13.534  0.9052  1.1971 -0.9219
 2661TIP3    H229399   3.000   4.670  13.546  1.0544  0.2352 -0.4409
 2662TIP3   OH229400   6.335   2.262  13.782  0.1565 -0.4793 -0.6050
 2662TIP3    H129401   6.393   2.319  13.732  0.0282 -1.3316 -1.7750
 2662TIP3    H229402   6.393   2.214  13.841  0.1783  1.3808  0.9903
 2663TIP3   OH229403   3.355   0.480  12.990  0.1879  0.4213  0.3680
 2663TIP3    H129404   3.424   0.475  13.056  2.5914 -0.2702 -2.0471
 2663TIP3    H229405   3.316   0.392  12.989  1.0396  0.0396 -0.0106
 2664TIP3   OH229406   5.276   4.573   5.482  0.2536 -0.3314 -0.4909
 2664TIP3    H129407   5.210   4.634   5.517  0.5872 -0.1404 -0.1905
 2664TIP3    H229408   5.287   4.508   5.550  0.9536  0.0789 -0.2018
 2665TIP3   OH229409   3.416   6.030  12.215  0.5968  0.0471  0.4086
 2665TIP3    H129410   3.387   5.939  12.217  2.0620 -0.4366  2.5356
 2665TIP3    H229411   3.456   6.040  12.128  0.1258 -1.2262  0.0201
 2666TIP3   OH229412   5.499   1.763   0.701  0.4502 -0.9491 -0.3003
 2666TIP3    H129413   5.492   1.701   0.628  0.5060  0.4552 -1.5583
 2666TIP3    H229414   5.520   1.846   0.659  1.0509 -0.2078  1.3958
 2667TIP3   OH229415   4.662   3.090   6.234 -0.4106 -0.0734 -0.7935
 2667TIP3    H129416   4.631   3.175   6.265 -0.7694  0.3227 -2.1562
 2667TIP3    H229417   4.756   3.100   6.222 -0.0011 -0.6841  1.4988
 2668TIP3   OH229418   0.432   4.757  14.600  0.0083  0.2297 -0.1988
 2668TIP3    H129419   0.372   4.822  14.636  1.3142  3.1488 -2.8078
 2668TIP3    H229420   0.407   4.750  14.508  3.1279  1.1093 -1.2442
 2669TIP3   OH229421   4.300   4.290   0.446  0.7060  0.1120 -0.0781
 2669TIP3    H129422   4.319   4.208   0.401  0.8970  0.3317 -0.4028
 2669TIP3    H229423   4.240   4.336   0.386 -1.7668 -1.0116  1.3637
 2670TIP3   OH229424   0.300   2.705   6.175 -0.2697  0.7025 -0.1751
 2670TIP3    H129425   0.255   2.685   6.256 -0.2684  2.6797  0.3656
 2670TIP3    H229426   0.236   2.752   6.122 -0.2677 -0.5308 -1.3537
 2671TIP3   OH229427   3.390   2.743   5.150  0.4044 -0.6286  0.2926
 2671TIP3    H129428   3.296   2.757   5.142  0.2075 -1.9638  0.0358
 2671TIP3    H229429   3.403   2.653   5.122  1.7070 -0.6057  0.7602
 2672TIP3   OH229430   3.692   1.406   6.490 -1.0036 -0.1842 -0.1855
 2672TIP3    H129431   3.730   1.429   6.575 -1.0511  0.3550 -0.3091
 2672TIP3    H229432   3.630   1.476   6.471 -1.6124 -0.7460 -0.2722
 2673TIP3   OH229433   4.460   4.938  11.382 -0.5173 -0.9007 -0.0043
 2673TIP3    H129434   4.494   4.963  11.469 -0.4381  0.0442 -0.2924
 2673TIP3    H229435   4.532   4.892  11.340 -0.1658 -0.3699  0.0131
 2674TIP3   OH229436   4.066   0.350   4.008 -0.7864 -0.0943 -0.6283
 2674TIP3    H129437   4.037   0.326   4.096 -1.2773  2.2527 -0.0886
 2674TIP3    H229438   4.070   0.445   4.009 -0.6336 -0.0095 -3.1197
 2675TIP3   OH229439   3.149   0.337  15.138 -0.1320 -0.4695  0.2998
 2675TIP3    H129440   3.093   0.280  15.086  0.4207  0.3422 -1.2380
 2675TIP3    H229441   3.093   0.364  15.212 -1.3446 -0.7080 -0.4962
 2676TIP3   OH229442   5.994   0.360   4.399  0.6010  0.4288 -0.0640
 2676TIP3    H129443   6.059   0.336   4.465 -0.7309 -0.6011  0.9053
 2676TIP3    H229444   6.044   0.368   4.318  1.9300 -0.3534  0.6540
 2677TIP3   OH229445   1.357   3.598   1.293  0.4179  0.0592  0.0530
 2677TIP3    H129446   1.380   3.625   1.382  0.2653 -0.9845  0.4217
 2677TIP3    H229447   1.288   3.659   1.266  0.9672  0.8363  0.3681
 2678TIP3   OH229448   4.971   0.315   0.620  0.0758 -0.2561 -0.4657
 2678TIP3    H129449   4.955   0.290   0.711  0.0518 -0.6181 -0.5688
 2678TIP3    H229450   4.913   0.259   0.569  0.0441 -0.0114 -0.7010
 2679TIP3   OH229451   3.966   6.676   2.916  0.0599  1.1036 -0.0026
 2679TIP3    H129452   3.985   6.620   2.991 -0.1595  2.0783  0.7990
 2679TIP3    H229453   4.041   6.664   2.857  0.1586  0.2183  0.2964
 2680TIP3   OH229454   5.935   4.066   3.362 -1.1370  0.1221 -0.2939
 2680TIP3    H129455   5.964   4.138   3.419  1.0303 -0.5860 -0.3960
 2680TIP3    H229456   5.898   4.109   3.285 -5.5216  1.1500  2.0604
 2681TIP3   OH229457   5.236   0.511   3.750 -0.0558  0.1829 -0.0454
 2681TIP3    H129458   5.190   0.485   3.670 -0.5353  0.2440  0.2060
 2681TIP3    H229459   5.248   0.430   3.798  1.5454 -0.0880 -0.8329
 2682TIP3   OH229460   1.042   5.782   2.940 -0.0301  0.9261  0.2358
 2682TIP3    H129461   1.039   5.846   3.011  1.6375  1.0176  0.2586
 2682TIP3    H229462   1.083   5.828   2.867  3.5498 -0.6632  0.9943
 2683TIP3   OH229463   6.199   1.744  16.646 -0.0895 -0.3359  0.5648
 2683TIP3    H129464   6.250   1.712  16.571 -1.5576 -1.7450  0.0950
 2683TIP3    H229465   6.221   1.836  16.652  1.5134 -0.6118 -0.4123
 2684TIP3   OH229466   0.421   0.679  10.735 -0.2777  0.1045 -0.1126
 2684TIP3    H129467   0.469   0.693  10.816 -0.2947  1.4816 -0.3080
 2684TIP3    H229468   0.436   0.759  10.684 -0.5658 -0.5766 -1.3127
 2685TIP3   OH229469   4.521   3.286  15.057 -0.2592  0.2982  0.4181
 2685TIP3    H129470   4.476   3.203  15.071  1.1682 -0.6528 -0.3853
 2685TIP3    H229471   4.488   3.318  14.973  1.2291 -0.9221 -0.6957
 2686TIP3   OH229472   0.856   5.065   2.805 -0.0014  0.1497 -0.5812
 2686TIP3    H129473   0.874   4.971   2.797  1.5269  0.5178 -1.7882
 2686TIP3    H229474   0.879   5.086   2.895 -0.4578 -0.6324 -0.2633
 2687TIP3   OH229475   1.371   0.743   2.122  0.1046 -0.6549 -0.0829
 2687TIP3    H129476   1.398   0.661   2.079  0.1515 -0.4116 -0.5222
 2687TIP3    H229477   1.275   0.738   2.124  0.0465 -0.1620 -1.2336
 2688TIP3   OH229478   4.698   1.933  16.330 -0.2536 -0.0853  0.1759
 2688TIP3    H129479   4.786   1.904  16.307 -0.8551 -1.3377 -0.6729
 2688TIP3    H229480   4.686   2.014  16.282 -0.0863 -0.6905 -0.9165
 2689TIP3   OH229481   1.137   6.010  12.476  0.3711  0.8329  0.2087
 2689TIP3    H129482   1.211   5.965  12.517 -0.0038  1.7236  1.9755
 2689TIP3    H229483   1.059   5.966  12.512  0.0368  1.3363  0.1165
 2690TIP3   OH229484   3.202   0.315   5.803 -0.1758 -0.0913 -0.2083
 2690TIP3    H129485   3.297   0.303   5.797  0.1972  2.7626 -1.2232
 2690TIP3    H229486   3.191   0.384   5.868 -1.6628 -0.8820  0.4362
 2691TIP3   OH229487   0.074   5.665   6.192 -0.5792 -0.0088 -0.1655
 2691TIP3    H129488   0.078   5.596   6.259  0.2802 -0.7404 -0.9510
 2691TIP3    H229489   0.136   5.731   6.223 -1.4170  0.4521  0.5984
 2692TIP3   OH229490   5.580   2.824   3.767 -0.3174 -0.6289  0.3677
 2692TIP3    H129491   5.560   2.916   3.748 -1.9867 -0.9399  0.4726
 2692TIP3    H229492   5.603   2.823   3.860  0.7895 -0.1777  0.1192
 2693TIP3   OH229493   5.400   6.020  14.824 -0.2969 -0.1155 -0.4367
 2693TIP3    H129494   5.483   6.059  14.795 -0.8664  0.8243 -0.8645
 2693TIP3    H229495   5.359   5.988  14.744 -0.4217 -0.4431 -0.2455
 2694TIP3   OH229496   3.514   0.184  12.599  0.3060 -0.2563 -0.0868
 2694TIP3    H129497   3.486   0.213  12.512  1.4570  1.4792  0.0770
 2694TIP3    H229498   3.600   0.144  12.585  0.8456  0.7242  0.3280
 2695TIP3   OH229499   1.840   1.992   4.380 -0.7235  0.0387 -0.6401
 2695TIP3    H129500   1.926   2.029   4.401 -0.6141 -0.5540  0.0074
 2695TIP3    H229501   1.832   2.001   4.285  1.2856 -2.4161 -1.1519
 2696TIP3   OH229502   3.433   2.349  14.633 -0.6022 -0.4053  0.6307
 2696TIP3    H129503   3.382   2.383  14.707  1.7126 -0.6336  2.4449
 2696TIP3    H229504   3.515   2.398  14.635 -0.2919 -0.7192 -1.5797
 2697TIP3   OH229505   0.147   5.613   4.737 -0.0889 -0.2437  0.7271
 2697TIP3    H129506   0.159   5.702   4.705  3.1003 -1.1932 -1.0902
 2697TIP3    H229507   0.078   5.577   4.682  0.9438  0.1217 -0.8711
 2698TIP3   OH229508   1.309   2.475   2.136  0.3591  0.4238  0.8754
 2698TIP3    H129509   1.275   2.428   2.212 -1.3475  1.9449  1.1252
 2698TIP3    H229510   1.333   2.561   2.170  0.7153  0.7230 -0.0889
 2699TIP3   OH229511   0.202   3.642  11.027 -0.0282  0.4603  0.2465
 2699TIP3    H129512   0.133   3.703  11.001 -0.2651 -0.0578 -0.3727
 2699TIP3    H229513   0.271   3.654  10.962 -1.4674 -2.3171 -2.0295
 2700TIP3   OH229514   2.798   0.033   2.354  0.2284 -0.0059 -0.0601
 2700TIP3    H129515   2.790  -0.011   2.438 -1.3700 -0.9547 -0.6571
 2700TIP3    H229516   2.769  -0.031   2.290 -0.8453  1.4321 -1.0966
 2701TIP3   OH229517   5.947   1.682  11.559  0.2562  0.3276 -0.4156
 2701TIP3    H129518   5.856   1.683  11.529 -0.3398  2.2597  1.1781
 2701TIP3    H229519   5.961   1.593  11.591 -1.4389  0.2724  0.2595
 2702TIP3   OH229520   2.029   5.260   0.512 -1.0326  0.0064  0.0438
 2702TIP3    H129521   2.048   5.318   0.586 -0.4553  1.5329 -1.2439
 2702TIP3    H229522   2.099   5.195   0.513 -0.1362  0.9447 -0.0522
 2703TIP3   OH229523   1.479   6.065   1.161  0.8369 -0.0661  0.3315
 2703TIP3    H129524   1.504   6.156   1.147  1.1041 -0.3263 -1.0069
 2703TIP3    H229525   1.561   6.021   1.184  0.5135  0.2287  2.2066
 2704TIP3   OH229526   1.127   1.637   4.230  0.1398  0.7860 -1.0564
 2704TIP3    H129527   1.178   1.567   4.190  2.3102  1.4177  0.4487
 2704TIP3    H229528   1.161   1.717   4.189 -0.6809  1.1376 -1.0671
 2705TIP3   OH229529   0.368   2.861   4.452  0.2854  0.1710  0.5987
 2705TIP3    H129530   0.458   2.881   4.476  0.4577  1.4638 -0.9629
 2705TIP3    H229531   0.326   2.946   4.443 -0.6949 -0.3636 -0.1205
 2706TIP3   OH229532   6.143   3.302   4.327 -0.1738 -0.6046  0.3521
 2706TIP3    H129533   6.139   3.397   4.343  1.0433 -0.5424  0.3766
 2706TIP3    H229534   6.096   3.289   4.245  0.8624  0.2328 -0.4069
 2707TIP3   OH229535   6.111   1.525   5.254 -0.1381  0.0360 -0.3233
 2707TIP3    H129536   6.108   1.482   5.339  0.8605  0.5239 -0.0279
 2707TIP3    H229537   6.026   1.505   5.214 -0.4213 -0.6159  0.5726
 2708TIP3   OH229538   4.061   2.549   5.462  0.7337  0.3682 -0.9824
 2708TIP3    H129539   4.040   2.503   5.381 -0.2323 -0.6541 -0.1736
 2708TIP3    H229540   4.156   2.562   5.457  0.6335  0.7332 -2.4708
 2709TIP3   OH229541   1.313   3.215   1.274 -0.1199 -0.5605 -0.1779
 2709TIP3    H129542   1.222   3.241   1.288  0.2877  1.4945 -0.9747
 2709TIP3    H229543   1.356   3.232   1.358  0.1058  1.3952 -0.6369
 2710TIP3   OH229544   3.284   0.105  16.015  0.1474 -0.3767 -0.6131
 2710TIP3    H129545   3.281   0.012  16.037 -0.7991 -0.2657 -0.1845
 2710TIP3    H229546   3.281   0.108  15.920 -0.0614 -0.7793 -0.6197
 2711TIP3   OH229547   5.965   0.028  14.761 -0.7845  0.1188 -0.2270
 2711TIP3    H129548   6.028  -0.029  14.718 -0.9779 -0.7467  0.6137
 2711TIP3    H229549   5.880  -0.001  14.727 -0.7508  1.7183 -1.8713
 2712TIP3   OH229550   2.972   2.982  10.874  0.2120 -0.3100  0.0219
 2712TIP3    H129551   2.995   2.902  10.921  1.6543 -0.5238 -0.9672
 2712TIP3    H229552   2.891   2.961  10.828 -0.4838 -0.5342  1.3204
 2713TIP3   OH229553   2.072   2.418   1.639 -0.6262 -0.0170 -0.2222
 2713TIP3    H129554   2.124   2.338   1.635 -0.4518 -0.0513  1.5757
 2713TIP3    H229555   2.029   2.424   1.554  0.1672 -1.4627 -0.7542
 2714TIP3   OH229556   3.303   0.094   5.489 -0.0667 -0.0536 -0.6502
 2714TIP3    H129557   3.380   0.071   5.541 -1.2834 -0.9338  0.8669
 2714TIP3    H229558   3.250   0.014   5.488 -1.2860  0.7294 -1.0547
 2715TIP3   OH229559   6.454   3.714  15.045 -0.1804  0.1396  0.4689
 2715TIP3    H129560   6.493   3.638  15.087  3.1459  2.5169  2.1364
 2715TIP3    H229561   6.510   3.731  14.969 -0.9740  0.8694  0.0254
 2716TIP3   OH229562   1.285   4.258  17.116 -0.2069 -0.4845  0.1906
 2716TIP3    H129563   1.273   4.240  17.210  1.5060  0.1018  0.5639
 2716TIP3    H229564   1.289   4.172  17.076  0.7638 -0.8056  0.9260
 2717TIP3   OH229565   5.948   6.303   1.303 -0.1205 -0.5077 -0.0724
 2717TIP3    H129566   6.012   6.334   1.368 -0.4314 -2.2653  1.1501
 2717TIP3    H229567   5.886   6.250   1.354 -1.3619 -0.5676 -1.5619
 2718TIP3   OH229568   4.152   0.970  15.545 -0.0661 -0.0963 -0.2773
 2718TIP3    H129569   4.179   0.998  15.633  0.6897 -1.6888  0.0236
 2718TIP3    H229570   4.056   0.968  15.550 -0.0403 -0.0229  0.4569
 2719TIP3   OH229571   5.855   6.408   4.463  0.2492 -0.0297  1.0054
 2719TIP3    H129572   5.814   6.449   4.386 -0.3661  2.2204  2.4373
 2719TIP3    H229573   5.882   6.322   4.432 -0.9003  0.3920 -1.4463
 2720TIP3   OH229574   4.828   1.147  12.636  0.4410 -0.3910  0.0004
 2720TIP3    H129575   4.763   1.146  12.706 -0.6290  0.4914 -0.9374
 2720TIP3    H229576   4.798   1.078  12.576 -0.2971  0.7548 -0.9857
 2721TIP3   OH229577   6.035   6.175  16.303 -0.4733  0.5710  0.3661
 2721TIP3    H129578   6.110   6.118  16.289 -1.3005 -0.4613 -0.0211
 2721TIP3    H229579   6.061   6.259  16.266  0.1732 -0.0276 -0.5792
 2722TIP3   OH229580   6.059   0.125  11.288  0.3532  0.5949 -0.7083
 2722TIP3    H129581   6.133   0.180  11.262  0.8708  0.6672  0.8296
 2722TIP3    H229582   6.078   0.040  11.250  2.9420 -0.3227  2.2054
 2723TIP3   OH229583   5.920   4.166  14.965  0.0432  0.2132  0.2284
 2723TIP3    H129584   5.925   4.176  15.060 -0.1327 -2.5114  0.6082
 2723TIP3    H229585   5.995   4.110  14.943 -0.0922  0.5611 -1.2143
 2724TIP3   OH229586   4.477   5.159   3.563  0.1277 -0.4380 -0.4423
 2724TIP3    H129587   4.405   5.160   3.625 -0.2446 -0.5534 -0.8659
 2724TIP3    H229588   4.461   5.234   3.506  0.5663 -0.2243 -0.2858
 2725TIP3   OH229589   4.205   6.656   4.490 -0.1933 -0.2122  0.3478
 2725TIP3    H129590   4.191   6.590   4.558  1.2770 -0.7018  0.2169
 2725TIP3    H229591   4.158   6.622   4.414 -1.1772 -0.0582  0.8737
 2726TIP3   OH229592   4.987   1.696   5.594  0.3661  0.1634  0.0490
 2726TIP3    H129593   4.902   1.719   5.634 -0.2572 -0.6531 -0.7668
 2726TIP3    H229594   5.052   1.731   5.655 -0.5528  0.9826  0.5972
 2727TIP3   OH229595   0.432   4.166   0.331 -0.2229 -0.1921  0.3483
 2727TIP3    H129596   0.436   4.257   0.361 -0.2929 -0.1073  0.1019
 2727TIP3    H229597   0.379   4.122   0.397  0.2649 -0.1732  0.7553
 2728TIP3   OH229598   3.870   3.054   1.457 -0.1792  0.1129  0.0805
 2728TIP3    H129599   3.792   3.024   1.505 -0.2227  0.9938  0.5801
 2728TIP3    H229600   3.943   3.015   1.504 -0.0882  2.3975  2.0829
 2729TIP3   OH229601   5.900   6.703  16.431 -0.3868 -0.0083 -1.3473
 2729TIP3    H129602   5.955   6.766  16.385  0.1862 -0.1183 -0.8323
 2729TIP3    H229603   5.939   6.618  16.412  1.1401  0.0753  0.9459
 2730TIP3   OH229604   5.662   3.903  12.927  0.1999  0.0874  0.1595
 2730TIP3    H129605   5.757   3.911  12.936  0.2672 -2.3566  2.9163
 2730TIP3    H229606   5.630   3.993  12.935  2.2408  0.9889 -1.0577
 2731TIP3   OH229607   5.604   2.371  15.247  0.0089  0.6727  1.0887
 2731TIP3    H129608   5.548   2.297  15.224  1.8332  0.1665 -2.4784
 2731TIP3    H229609   5.672   2.333  15.303 -0.2643  0.1025  1.0454
 2732TIP3   OH229610   3.661   2.500   1.072  0.1825  0.5470  0.1855
 2732TIP3    H129611   3.697   2.419   1.034  1.7899  0.3475  1.9767
 2732TIP3    H229612   3.696   2.570   1.016 -0.2326  0.0810 -0.6666
 2733TIP3   OH229613   2.109   4.338  16.776 -0.2300  0.4969 -0.7318
 2733TIP3    H129614   2.060   4.299  16.849 -0.4498  0.5091 -0.8738
 2733TIP3    H229615   2.160   4.266  16.741  0.7590  0.7368  0.1566
 2734TIP3   OH229616   0.224   6.391   4.273  0.0033  0.3761  0.0744
 2734TIP3    H129617   0.157   6.382   4.205  0.6579  1.2948 -0.7136
 2734TIP3    H229618   0.283   6.317   4.259 -2.0010 -1.8104  2.2012
 2735TIP3   OH229619   3.343   2.251   3.075  0.3036 -1.0834  0.2566
 2735TIP3    H129620   3.387   2.189   3.016 -1.3192 -0.4895 -1.7061
 2735TIP3    H229621   3.255   2.260   3.039  0.3610  2.1333  0.5979
 2736TIP3   OH229622   1.300   4.969   4.767 -0.1622  0.6584  0.4166
 2736TIP3    H129623   1.299   5.021   4.687  1.2841 -1.6820 -1.2553
 2736TIP3    H229624   1.382   4.994   4.811  0.4663 -0.0410 -0.3194
 2737TIP3   OH229625   1.487   0.963  13.981  0.5717  0.9326  0.1947
 2737TIP3    H129626   1.406   1.013  13.972  0.0470  0.4817  2.0072
 2737TIP3    H229627   1.460   0.872  13.980  0.9570  0.7886  1.4442
 2738TIP3   OH229628   4.530   2.996   4.347 -0.5740 -0.4698  0.0193
 2738TIP3    H129629   4.513   2.901   4.342 -1.6942 -0.2970  0.2502
 2738TIP3    H229630   4.462   3.035   4.292 -0.9759  0.2819  1.0207
 2739TIP3   OH229631   6.712   4.675  12.376 -0.3351  0.0480 -0.5995
 2739TIP3    H129632   6.787   4.620  12.400 -0.7654 -0.1882  0.2461
 2739TIP3    H229633   6.638   4.636  12.422 -1.1940 -0.3532 -2.2434
 2740TIP3   OH229634   1.839   2.252   1.712 -0.3397 -0.1824  0.3710
 2740TIP3    H129635   1.925   2.288   1.694 -0.2644 -0.2251  0.6450
 2740TIP3    H229636   1.802   2.233   1.626  0.3617 -1.2074  0.2761
 2741TIP3   OH229637   0.594   4.812  13.253 -0.2364  0.7910  0.2192
 2741TIP3    H129638   0.631   4.752  13.318 -0.7824 -1.0414 -1.1008
 2741TIP3    H229639   0.657   4.885  13.250  1.9327 -0.9876 -0.0740
 2742TIP3   OH229640   2.280   2.534   1.791 -0.2475 -0.1670  0.2663
 2742TIP3    H129641   2.315   2.446   1.776 -0.6212 -0.3526  0.4977
 2742TIP3    H229642   2.201   2.538   1.737 -0.9972 -0.4561  1.3225
 2743TIP3   OH229643   6.257   3.945   6.370 -0.0378 -0.1306  0.6221
 2743TIP3    H129644   6.187   4.001   6.406 -1.2649 -1.4660  0.3860
 2743TIP3    H229645   6.328   3.953   6.434 -0.9410  0.1362  1.6300
 2744TIP3   OH229646   3.706   1.632   5.608 -0.2258  0.3428  0.1174
 2744TIP3    H129647   3.614   1.649   5.587 -0.1250  0.3513 -0.3247
 2744TIP3    H229648   3.711   1.639   5.703 -0.8668 -0.5404  0.2207
 2745TIP3   OH229649   2.697   1.731  16.470  0.1872  0.1085  0.1523
 2745TIP3    H129650   2.710   1.793  16.398 -1.5362 -1.0830 -1.2777
 2745TIP3    H229651   2.768   1.667  16.459 -0.1380 -0.1412 -0.6192
 2746TIP3   OH229652   1.236   0.537  15.416 -0.0628  0.1853 -0.6299
 2746TIP3    H129653   1.170   0.526  15.347 -0.4334 -0.2515 -0.2096
 2746TIP3    H229654   1.295   0.463  15.404 -0.9186 -0.6842  0.3878
 2747TIP3   OH229655   4.173   0.145   0.171 -0.5331 -0.1518  0.0412
 2747TIP3    H129656   4.143   0.236   0.160  0.8215  0.2510 -0.5387
 2747TIP3    H229657   4.138   0.099   0.095  1.1834  0.5753 -1.2594
 2748TIP3   OH229658   2.378   5.931  14.974 -0.2908 -0.0153 -0.0402
 2748TIP3    H129659   2.288   5.922  14.944 -1.1468  1.2929  1.9219
 2748TIP3    H229660   2.407   5.841  14.990 -0.8896 -0.5048 -1.5843
 2749TIP3   OH229661   3.344   5.010  14.766 -0.0886 -0.1735 -0.3525
 2749TIP3    H129662   3.386   4.971  14.842 -0.5747  0.4052  0.2227
 2749TIP3    H229663   3.329   5.102  14.791 -1.8587 -0.4011 -0.4451
 2750TIP3   OH229664   3.141   6.525   4.314 -0.1625 -0.0083 -0.3204
 2750TIP3    H129665   3.155   6.560   4.226 -0.9297 -0.2262 -0.5401
 2750TIP3    H229666   3.065   6.573   4.347 -0.2251 -0.3228  0.0009
 2751TIP3   OH229667   0.439   0.079   5.319  0.4006  0.2489  0.3606
 2751TIP3    H129668   0.493   0.065   5.397  1.1366  0.8651 -0.0293
 2751TIP3    H229669   0.490   0.042   5.247 -0.0276  0.1795  0.0868
 2752TIP3   OH229670   4.289   0.523   3.713  0.3590  0.0449 -0.2828
 2752TIP3    H129671   4.258   0.572   3.789 -0.9845  0.6099 -1.1643
 2752TIP3    H229672   4.385   0.527   3.720  0.4001 -2.4517  2.9686
 2753TIP3   OH229673   6.153   5.641  13.091 -0.2005 -0.0882  0.4625
 2753TIP3    H129674   6.237   5.608  13.057 -0.8429 -2.5710  1.0908
 2753TIP3    H229675   6.157   5.624  13.185 -1.6562 -0.9231  0.4053
 2754TIP3   OH229676   3.237   5.760   2.112  0.1334 -0.2246  0.5368
 2754TIP3    H129677   3.313   5.809   2.145  0.6166 -2.4710  3.1477
 2754TIP3    H229678   3.274   5.694   2.054 -0.0243 -0.2652  0.4832
 2755TIP3   OH229679   3.063   3.156   5.966  0.4067  0.1248  0.2092
 2755TIP3    H129680   2.974   3.188   5.976  0.4476  0.6805 -1.0994
 2755TIP3    H229681   3.091   3.135   6.056 -1.6083 -1.6794  0.4851
 2756TIP3   OH229682   5.809   3.674  12.461 -0.0485 -0.1486  0.8163
 2756TIP3    H129683   5.733   3.632  12.502 -0.5062 -0.1287  0.0099
 2756TIP3    H229684   5.827   3.620  12.384 -2.6168  2.7294 -2.1133
 2757TIP3   OH229685   5.234   2.844  13.213  0.0816 -0.1565  0.0119
 2757TIP3    H129686   5.205   2.800  13.133 -1.1319  0.5301  0.0567
 2757TIP3    H229687   5.295   2.911  13.183  0.4084 -0.5626 -0.2388
 2758TIP3   OH229688   3.276   2.854  13.005 -0.2595  0.0691 -0.0458
 2758TIP3    H129689   3.318   2.844  13.091  0.3725  0.6076 -0.2810
 2758TIP3    H229690   3.182   2.851  13.024 -0.1292 -0.9329  0.5221
 2759TIP3   OH229691   1.506   1.624  16.436 -0.3155  0.4458  0.5337
 2759TIP3    H129692   1.544   1.603  16.351  0.1254 -0.2074  0.8845
 2759TIP3    H229693   1.564   1.582  16.500 -1.2857 -0.0793  1.1010
 2760TIP3   OH229694   4.079   6.239  15.833  0.1071 -0.4239 -0.2255
 2760TIP3    H129695   4.140   6.310  15.816  0.8850 -0.9807  0.1423
 2760TIP3    H229696   4.088   6.222  15.927 -0.4139 -0.6901 -0.2224
 2761TIP3   OH229697   0.565   1.934  14.404 -0.2679  0.3162 -0.5668
 2761TIP3    H129698   0.515   1.960  14.481  0.3882 -0.9302  0.3248
 2761TIP3    H229699   0.656   1.932  14.434  0.1891  1.2844 -1.8064
 2762TIP3   OH229700   1.287   5.563  11.277  0.9031  0.3417  0.2434
 2762TIP3    H129701   1.369   5.611  11.283  0.1787  1.6480 -0.1113
 2762TIP3    H229702   1.313   5.475  11.247  2.1746  0.6893  0.2918
 2763TIP3   OH229703   3.943   5.307   3.902  0.2341 -0.6675 -0.5396
 2763TIP3    H129704   3.860   5.290   3.948 -0.7940  1.3416 -1.5433
 2763TIP3    H229705   3.938   5.252   3.824 -0.1218 -0.6170 -0.5549
 2764TIP3   OH229706   3.862   1.987  13.043  0.6212 -0.0142 -0.1611
 2764TIP3    H129707   3.913   1.919  13.000 -0.8867 -2.2408  1.3300
 2764TIP3    H229708   3.927   2.039  13.090  1.7253 -1.5778  0.1357
 2765TIP3   OH229709   0.742   2.090   3.728 -0.0671 -0.2884 -0.1082
 2765TIP3    H129710   0.688   2.013   3.715  0.1346 -0.3342 -0.7054
 2765TIP3    H229711   0.688   2.163   3.698 -0.0162 -0.2713 -0.1593
 2766TIP3   OH229712   3.821   2.157  15.346 -0.1187 -0.2040  0.3947
 2766TIP3    H129713   3.783   2.129  15.263 -0.0531  0.9836 -0.0573
 2766TIP3    H229714   3.814   2.080  15.403  1.0264 -1.4759 -1.0895
 2767TIP3   OH229715   5.854   2.431  10.974 -0.2093  0.2077 -0.0059
 2767TIP3    H129716   5.873   2.340  10.996  0.0182 -0.1409 -1.5354
 2767TIP3    H229717   5.767   2.447  11.011  1.1244  0.4936  3.3054
 2768TIP3   OH229718   4.655   3.046  11.252  0.5647 -0.2177 -0.1863
 2768TIP3    H129719   4.578   3.041  11.309  0.8399  0.8021  0.2990
 2768TIP3    H229720   4.716   2.983  11.289  0.3857 -0.2235  0.1058
 2769TIP3   OH229721   5.229   3.607   2.575  0.5834 -0.1002 -0.1141
 2769TIP3    H129722   5.202   3.666   2.645  2.7014 -0.8288  1.4188
 2769TIP3    H229723   5.220   3.519   2.613  3.1122 -0.4495 -0.1824
 2770TIP3   OH229724   4.465   0.053   5.023  0.0476 -0.1214 -0.1690
 2770TIP3    H129725   4.439   0.095   4.941 -0.4774  1.0957  0.5877
 2770TIP3    H229726   4.483   0.126   5.082  0.0874 -0.9760  0.9034
 2771TIP3   OH229727   1.460   3.485  12.640  0.2666  0.3923  0.1068
 2771TIP3    H129728   1.544   3.507  12.601  0.5395 -1.2229 -0.2610
 2771TIP3    H229729   1.477   3.408  12.694 -0.9894 -0.0319 -0.0653
 2772TIP3   OH229730   6.577   3.170  12.195  0.2938  1.0520 -0.0987
 2772TIP3    H129731   6.603   3.139  12.281  0.4535 -0.0909 -0.5329
 2772TIP3    H229732   6.659   3.177  12.146  0.1065  0.6380 -0.4796
 2773TIP3   OH229733   5.615   5.364  13.472  0.0467 -0.5066  0.4513
 2773TIP3    H129734   5.566   5.430  13.521 -1.7816 -1.2973 -0.2115
 2773TIP3    H229735   5.644   5.410  13.393 -2.5417 -0.7764 -0.7643
 2774TIP3   OH229736   3.736   4.705   5.936  0.3737 -0.1724  0.1208
 2774TIP3    H129737   3.655   4.661   5.958  0.7599 -0.8122  0.2938
 2774TIP3    H229738   3.720   4.797   5.955 -0.4062 -0.2501 -0.1400
 2775TIP3   OH229739   4.066   1.512   0.977 -0.5212 -0.2608  0.1151
 2775TIP3    H129740   4.116   1.586   1.011 -1.7092  0.2528  0.7812
 2775TIP3    H229741   4.089   1.438   1.034 -0.2719 -0.1161  0.2029
 2776TIP3   OH229742   1.752   2.959  13.805 -0.1664 -0.1035  0.1823
 2776TIP3    H129743   1.729   2.951  13.898  1.1547 -0.6628  0.4817
 2776TIP3    H229744   1.678   2.920  13.759 -0.5173 -0.4630  1.0305
 2777TIP3   OH229745   2.760   3.835  15.121 -0.1683  0.3249  0.0004
 2777TIP3    H129746   2.772   3.889  15.042  0.6876  0.8094  0.4415
 2777TIP3    H229747   2.732   3.750  15.088  0.6952  0.3612 -0.8786
 2778TIP3   OH229748   6.269   4.248  15.631  0.0067 -0.5870  0.0127
 2778TIP3    H129749   6.230   4.161  15.624  1.1546 -1.1093 -0.0287
 2778TIP3    H229750   6.265   4.284  15.543  0.5329 -1.0497 -0.2064
 2779TIP3   OH229751   4.714   1.492   1.431  0.4653 -0.0278 -0.3887
 2779TIP3    H129752   4.644   1.511   1.368 -0.2092 -1.1812 -0.0148
 2779TIP3    H229753   4.683   1.416   1.479  0.7933  1.0537  1.6275
 2780TIP3   OH229754   1.396   5.323  15.875 -0.1621 -0.1592 -0.3538
 2780TIP3    H129755   1.386   5.415  15.850  0.7840 -0.1499 -0.7377
 2780TIP3    H229756   1.341   5.313  15.952  1.0594  1.1856  0.7441
 2781TIP3   OH229757   0.149   1.179  16.127 -0.1781  0.0537 -0.1944
 2781TIP3    H129758   0.235   1.199  16.164  0.6057  1.5741 -2.6121
 2781TIP3    H229759   0.087   1.222  16.186  0.8007  0.1251  0.8116
 2782TIP3   OH229760   0.278   2.547   4.978 -0.3801 -0.5175 -0.5775
 2782TIP3    H129761   0.278   2.628   4.928  0.9675 -0.5397 -0.6507
 2782TIP3    H229762   0.218   2.563   5.051 -1.1941  0.0408 -1.3558
 2783TIP3   OH229763   3.275   1.317  14.983  0.2109  0.1144 -0.6991
 2783TIP3    H129764   3.311   1.324  15.071 -0.0731  1.8002 -0.6738
 2783TIP3    H229765   3.337   1.363  14.927 -0.3535  0.3655 -1.1366
 2784TIP3   OH229766   4.563   5.208  12.273  0.7683 -0.2527  0.1865
 2784TIP3    H129767   4.616   5.130  12.290  0.1794 -0.5469  0.6822
 2784TIP3    H229768   4.541   5.241  12.360  2.1040  1.2300  0.0226
 2785TIP3   OH229769   1.353   0.468  13.208  0.2871 -1.0983 -0.1008
 2785TIP3    H129770   1.278   0.448  13.264  0.9381 -1.3247  0.7206
 2785TIP3    H229771   1.388   0.383  13.182  0.9482 -1.0200  0.4860
 2786TIP3   OH229772   5.882   3.677   4.146 -0.6905 -0.7691 -0.1741
 2786TIP3    H129773   5.791   3.684   4.117 -1.1780 -2.2792  0.8295
 2786TIP3    H229774   5.879   3.699   4.239  0.4552  1.7731 -0.6730
 2787TIP3   OH229775   1.849   2.833  11.348  0.6178  0.0950  0.8564
 2787TIP3    H129776   1.862   2.811  11.440  1.2089 -0.1519  0.7193
 2787TIP3    H229777   1.758   2.809  11.330  1.1006 -1.9150  0.8181
 2788TIP3   OH229778   2.087   5.447   6.080 -0.3780  0.2340 -0.5337
 2788TIP3    H129779   2.147   5.376   6.056  0.1562 -0.0296  1.4225
 2788TIP3    H229780   2.107   5.465   6.172 -4.0611 -0.6664  0.6132
 2789TIP3   OH229781   6.155   0.597  12.562  0.2897  0.1432 -0.0496
 2789TIP3    H129782   6.087   0.562  12.505 -0.5159 -0.5892  1.2887
 2789TIP3    H229783   6.150   0.692  12.550 -1.9960  0.2302  1.0636
 2790TIP3   OH229784   0.335   3.620  12.159 -0.4970  0.8699  0.2098
 2790TIP3    H129785   0.329   3.571  12.076 -0.2461 -0.9470  1.2055
 2790TIP3    H229786   0.252   3.601  12.203  0.3477 -0.2199  1.4049
 2791TIP3   OH229787   4.669   3.896   1.372  0.6666  0.3746 -0.2504
 2791TIP3    H129788   4.682   3.804   1.397 -1.9833  0.2249  0.9594
 2791TIP3    H229789   4.644   3.891   1.280  0.2759 -0.1700 -0.1253
 2792TIP3   OH229790   6.199   1.644   4.244  0.7819  0.1106 -0.0125
 2792TIP3    H129791   6.163   1.718   4.195  0.3194 -0.0262  0.1166
 2792TIP3    H229792   6.122   1.593   4.270  1.1114 -0.5984 -0.3915
 2793TIP3   OH229793   2.706   6.312  12.427  0.4942 -0.2049 -0.1435
 2793TIP3    H129794   2.625   6.294  12.380  1.2723 -0.5969 -1.4049
 2793TIP3    H229795   2.774   6.268  12.375  1.8816  2.4140 -0.7570
 2794TIP3   OH229796   3.604   1.418   3.300 -0.6939 -0.2030 -0.2207
 2794TIP3    H129797   3.541   1.479   3.340  0.3567  0.5927  0.2545
 2794TIP3    H229798   3.688   1.461   3.309 -0.0351 -1.3666 -0.6345
 2795TIP3   OH229799   5.890   0.224  12.969  0.2834 -0.5547  0.4345
 2795TIP3    H129800   5.858   0.218  13.059  2.7901 -1.8759  1.3189
 2795TIP3    H229801   5.947   0.301  12.969 -0.0449 -0.3014 -0.1682
 2796TIP3   OH229802   4.584   2.440   3.139 -0.3644  0.0367 -0.5272
 2796TIP3    H129803   4.588   2.398   3.054 -0.2446  0.2229 -0.6150
 2796TIP3    H229804   4.491   2.462   3.151 -0.8801 -2.5019  0.6324
 2797TIP3   OH229805   0.480   0.707   0.507 -0.5612 -0.3147  0.0964
 2797TIP3    H129806   0.494   0.711   0.413 -4.0937 -0.1666 -0.5918
 2797TIP3    H229807   0.526   0.783   0.543  0.8791 -0.4119 -1.4555
 2798TIP3   OH229808   3.779   1.582   1.484  0.2341 -0.4041  0.2243
 2798TIP3    H129809   3.716   1.533   1.431  0.7403 -1.8325  0.9041
 2798TIP3    H229810   3.725   1.642   1.536 -0.5217 -1.1711  0.3427
 2799TIP3   OH229811   5.105   3.919   0.544 -0.7612  1.0484 -0.4103
 2799TIP3    H129812   5.026   3.869   0.567  0.2185 -1.6869 -2.4006
 2799TIP3    H229813   5.173   3.885   0.602 -0.3835  1.0853 -0.8263
 2800TIP3   OH229814   1.688   2.925   6.442 -0.1091 -0.0629  0.0426
 2800TIP3    H129815   1.679   2.891   6.531  0.6156  1.2900  0.6613
 2800TIP3    H229816   1.763   2.879   6.406 -0.5391 -0.7762  0.0413
 2801TIP3   OH229817   3.021   6.156   5.306  0.2285 -0.4598  1.0316
 2801TIP3    H129818   2.934   6.188   5.329  0.8068 -0.3134  3.1528
 2801TIP3    H229819   3.048   6.212   5.232 -0.7951  0.6052  1.4405
 2802TIP3   OH229820   3.361   0.911  13.962  0.1175 -0.2852  0.0619
 2802TIP3    H129821   3.418   0.912  14.040  1.7467 -0.2356 -1.0743
 2802TIP3    H229822   3.347   1.003  13.942  1.8915 -0.2281 -1.1724
 2803TIP3   OH229823   2.223   0.676   1.176  0.0800 -0.4202 -0.1764
 2803TIP3    H129824   2.175   0.594   1.164 -0.6485  0.1906 -1.7476
 2803TIP3    H229825   2.156   0.744   1.173  0.9388  0.4191 -1.8722
 2804TIP3   OH229826   2.863   4.385   0.514  0.1829 -0.2568  0.0044
 2804TIP3    H129827   2.940   4.372   0.569 -0.1429  0.5376  0.6718
 2804TIP3    H229828   2.870   4.317   0.447 -0.5366 -2.7535  2.2606
 2805TIP3   OH229829   2.008   2.866   1.987 -0.1370 -0.4260 -0.1356
 2805TIP3    H129830   2.000   2.783   1.940  0.3106 -0.6501  0.1711
 2805TIP3    H229831   1.924   2.877   2.030 -0.1798 -0.7536 -0.1280
 2806TIP3   OH229832   3.508   6.438  11.548 -0.0138  0.4714 -0.5064
 2806TIP3    H129833   3.597   6.408  11.527 -0.2913 -1.4370  0.8265
 2806TIP3    H229834   3.481   6.488  11.471  1.8835  0.3589 -1.3022
 2807TIP3   OH229835   0.964   6.657   2.611 -0.2223 -0.1908  0.1748
 2807TIP3    H129836   0.886   6.605   2.633 -0.0156 -0.6246 -0.1055
 2807TIP3    H229837   0.952   6.739   2.659 -1.6846  0.4386 -1.1568
 2808TIP3   OH229838   2.864   0.015  16.090  0.5067  0.2074 -0.0692
 2808TIP3    H129839   2.933  -0.021  16.034  0.6412  0.8195 -0.3020
 2808TIP3    H229840   2.787  -0.038  16.070  1.1873 -1.3274  1.1015
 2809TIP3   OH229841   6.706   2.349   0.394 -0.1629 -0.1832 -0.1401
 2809TIP3    H129842   6.755   2.286   0.447  0.4785  0.5761  0.1848
 2809TIP3    H229843   6.737   2.335   0.305 -1.3496 -1.5649 -0.3693
 2810TIP3   OH229844   3.647   4.351  12.352 -0.2503  0.2677  0.0677
 2810TIP3    H129845   3.743   4.354  12.353 -0.1071 -1.0127 -2.3356
 2810TIP3    H229846   3.624   4.287  12.419  0.9078 -2.7772 -2.2292
 2811TIP3   OH229847   0.128   2.409   2.781 -0.5137  0.4241  0.2226
 2811TIP3    H129848   0.091   2.336   2.732  0.1330  1.5382 -2.0242
 2811TIP3    H229849   0.059   2.434   2.843 -1.3031 -1.1143 -0.0084
 2812TIP3   OH229850   3.153   2.752  15.079  0.0713 -0.0933 -0.1038
 2812TIP3    H129851   3.183   2.786  14.994  1.2435  0.7096  0.5962
 2812TIP3    H229852   3.062   2.779  15.085  0.5332  1.6062 -0.2616
 2813TIP3   OH229853   3.457   0.174  14.975 -0.3813 -0.4306  0.2824
 2813TIP3    H129854   3.468   0.110  15.046  0.4405 -0.6185 -0.0034
 2813TIP3    H229855   3.532   0.158  14.917 -1.7495 -1.1814 -1.3396
 2814TIP3   OH229856   0.948   4.813  14.626 -0.5641 -0.2090  0.1985
 2814TIP3    H129857   0.857   4.786  14.638 -0.8008 -0.1085 -1.1922
 2814TIP3    H229858   0.995   4.732  14.606 -0.4412 -0.1907  0.4114
 2815TIP3   OH229859   1.416   6.294  12.074  0.3430  0.1460  0.3479
 2815TIP3    H129860   1.423   6.311  11.981 -0.0991  2.5834  0.6926
 2815TIP3    H229861   1.504   6.267  12.100  0.4003 -0.8416 -0.7806
 2816TIP3   OH229862   3.384   6.306  12.197 -0.7653 -0.4055  0.3363
 2816TIP3    H129863   3.296   6.340  12.215 -1.5459 -0.3253 -2.9289
 2816TIP3    H229864   3.372   6.211  12.192 -0.6610 -0.3941 -0.1095
 2817TIP3   OH229865   1.264   0.571   3.082 -0.0469  0.8263 -0.6906
 2817TIP3    H129866   1.297   0.483   3.098 -0.8406  0.4077 -1.2545
 2817TIP3    H229867   1.325   0.608   3.018  0.0440  0.5245 -0.7821
 2818TIP3   OH229868   2.536   6.464  15.922 -0.0931  0.2869 -0.3287
 2818TIP3    H129869   2.441   6.470  15.926 -0.0382  0.9314  0.2429
 2818TIP3    H229870   2.554   6.373  15.902 -0.8395  0.2261 -0.7301
 2819TIP3   OH229871   6.420   2.749   3.650  0.5928  0.4163 -0.7597
 2819TIP3    H129872   6.352   2.815   3.634 -1.9463 -2.0560 -0.9059
 2819TIP3    H229873   6.479   2.790   3.714 -0.9901  2.6862 -0.6376
 2820TIP3   OH229874   5.367   4.330   2.804  0.2154 -0.0954 -0.3356
 2820TIP3    H129875   5.311   4.306   2.877  0.9018 -0.1164  0.1967
 2820TIP3    H229876   5.330   4.411   2.769 -0.2589 -0.2227 -0.1264
 2821TIP3   OH229877   5.029   2.608   1.639  0.2571 -0.1333 -0.1748
 2821TIP3    H129878   4.991   2.544   1.699 -1.3439  1.0580  0.1413
 2821TIP3    H229879   5.041   2.687   1.693 -1.4639  1.0556 -1.4320
 2822TIP3   OH229880   5.131   0.693   4.552 -0.1708  0.0882 -0.1772
 2822TIP3    H129881   5.122   0.730   4.464 -1.1993 -0.1993 -0.2069
 2822TIP3    H229882   5.071   0.745   4.606  1.5288  1.2423  0.6970
 2823TIP3   OH229883   0.943   4.848  15.523  0.2016  0.5267 -0.9817
 2823TIP3    H129884   0.961   4.810  15.437  0.8827  0.3750 -0.7803
 2823TIP3    H229885   1.030   4.867  15.559 -0.0025 -0.7173  0.2647
 2824TIP3   OH229886   3.513   2.634   6.530 -0.4662  0.6570 -0.9908
 2824TIP3    H129887   3.508   2.719   6.574  1.5173  0.6673 -0.7002
 2824TIP3    H229888   3.605   2.624   6.507 -0.7068 -1.2884 -1.3006
 2825TIP3   OH229889   2.177   2.922  15.687 -0.2850 -0.0392  0.3316
 2825TIP3    H129890   2.180   3.009  15.647  1.8349  0.2117  0.9108
 2825TIP3    H229891   2.090   2.916  15.725 -0.4772  1.8482  0.2796
 2826TIP3   OH229892   5.771   4.940  14.192 -0.1682 -0.0646 -0.0579
 2826TIP3    H129893   5.728   4.877  14.134  0.2954 -1.3820  0.9884
 2826TIP3    H229894   5.865   4.927  14.177 -0.0031 -1.0397  1.5659
 2827TIP3   OH229895   1.088   1.257  13.689 -0.2682 -0.0446 -0.3349
 2827TIP3    H129896   1.073   1.320  13.759 -0.8862 -1.1052  0.5134
 2827TIP3    H229897   1.001   1.231  13.661 -0.0155 -0.6986 -0.5264
 2828TIP3   OH229898   3.375   1.794  14.188  0.2187  0.3333  0.0200
 2828TIP3    H129899   3.286   1.766  14.165  0.7444 -1.5546  0.1328
 2828TIP3    H229900   3.367   1.889  14.201 -1.8616  0.1619  0.4153
 2829TIP3   OH229901   1.044   2.782   4.922 -0.0366 -0.4518  0.3322
 2829TIP3    H129902   0.961   2.830   4.928  0.9958  1.6950 -1.1542
 2829TIP3    H229903   1.019   2.695   4.890 -1.7738 -0.1488  0.7410
 2830TIP3   OH229904   0.232   5.969  11.682  0.4202 -0.7977  0.2088
 2830TIP3    H129905   0.272   6.021  11.612 -1.8703 -0.5859 -1.0232
 2830TIP3    H229906   0.203   6.034  11.747 -2.6522 -0.3426 -1.4387
 2831TIP3   OH229907   2.798   3.177   6.042  0.3910 -0.0064  0.6635
 2831TIP3    H129908   2.720   3.217   6.004  0.8096  0.2282  0.0338
 2831TIP3    H229909   2.791   3.195   6.136 -1.8717 -2.6548  1.1199
 2832TIP3   OH229910   3.322   0.922  14.401  0.2510  0.1737 -0.1448
 2832TIP3    H129911   3.395   0.919  14.339  0.4990  0.8706  0.1077
 2832TIP3    H229912   3.248   0.954  14.350  0.6826  1.6539  0.1205
 2833TIP3   OH229913   0.292   4.586   6.738  0.2376 -0.5780 -0.2896
 2833TIP3    H129914   0.337   4.669   6.726  0.3460 -0.4534  0.8940
 2833TIP3    H229915   0.201   4.610   6.753  0.0490 -0.7501 -1.0846
 2834TIP3   OH229916   1.340   5.498   3.356  0.3264 -0.2544 -0.1092
 2834TIP3    H129917   1.254   5.509   3.317  0.1229  0.7763  0.5974
 2834TIP3    H229918   1.369   5.587   3.376  0.7532 -0.6949  1.3598
 2835TIP3   OH229919   1.879   6.177  11.290  0.4206  0.0247  0.6556
 2835TIP3    H129920   1.886   6.115  11.363  0.2788  0.0621  0.7015
 2835TIP3    H229921   1.792   6.217  11.301 -0.5088 -1.4939 -0.7387
 2836TIP3   OH229922   5.350   0.356   6.339  0.0178 -1.3394  0.6768
 2836TIP3    H129923   5.367   0.391   6.426 -0.4846  1.3764 -0.2114
 2836TIP3    H229924   5.262   0.386   6.317  1.5284  1.6804 -2.2354
 2837TIP3   OH229925   3.920   5.962  14.292 -0.2370  0.3811 -0.0882
 2837TIP3    H129926   3.908   5.938  14.200  2.2548 -3.0704  0.2768
 2837TIP3    H229927   3.975   6.041  14.289 -0.4709  0.5168 -1.5586
 2838TIP3   OH229928   5.904   4.657  13.248  0.5844 -0.0330  0.1059
 2838TIP3    H129929   5.960   4.694  13.180  1.2038  0.3525  0.8050
 2838TIP3    H229930   5.930   4.565  13.253  2.1540  0.4249  1.3438
 2839TIP3   OH229931   2.817   2.956   1.327  0.4898 -0.4496  0.0073
 2839TIP3    H129932   2.886   2.895   1.301  1.9597  0.5768  1.3544
 2839TIP3    H229933   2.848   3.041   1.298 -0.2604  0.0174  0.5500
 2840TIP3   OH229934   5.768   4.616   0.241 -0.8195 -0.3351 -0.5802
 2840TIP3    H129935   5.677   4.645   0.251 -1.1741 -1.4374 -0.4391
 2840TIP3    H229936   5.821   4.691   0.268 -1.6998 -0.4389  1.7250
 2841TIP3   OH229937   6.139   5.893  12.995 -0.4839  0.0040 -0.2262
 2841TIP3    H129938   6.142   5.810  13.042  0.3250 -0.2780 -0.7482
 2841TIP3    H229939   6.231   5.920  12.988 -0.6590  0.4644 -0.8835
 2842TIP3   OH229940   2.239   1.273  13.678  0.2399  0.4526  0.6499
 2842TIP3    H129941   2.190   1.260  13.759  0.2973 -1.5329  0.4085
 2842TIP3    H229942   2.182   1.330  13.625 -1.2480 -0.7267  0.8964
 2843TIP3   OH229943   2.285   6.739  15.734  0.1005  0.4638  0.1016
 2843TIP3    H129944   2.195   6.707  15.731  0.0175  0.7310 -0.3564
 2843TIP3    H229945   2.338   6.665  15.705 -0.0072  0.4332 -0.0193
 2844TIP3   OH229946   3.877   5.156  15.841 -0.4880  0.0660 -0.0186
 2844TIP3    H129947   3.802   5.168  15.899 -0.7673 -2.1604  0.1584
 2844TIP3    H229948   3.942   5.218  15.873 -1.1559 -0.0891  1.7757
 2845TIP3   OH229949   5.611   1.625  12.459 -0.4720 -0.4388 -0.1863
 2845TIP3    H129950   5.517   1.632  12.445 -0.4040  1.5832 -0.0378
 2845TIP3    H229951   5.621   1.564  12.532 -1.8480  0.8892  1.1920
 2846TIP3   OH229952   3.397   5.491  15.901 -0.1789 -0.7419  0.0659
 2846TIP3    H129953   3.337   5.474  15.973 -0.6666  0.3589 -0.0477
 2846TIP3    H229954   3.456   5.416  15.899  0.3556 -0.4161  2.1119
 2847TIP3   OH229955   3.608   4.039  15.894  0.0173  0.0437 -0.3467
 2847TIP3    H129956   3.577   3.967  15.949 -3.2186 -0.5158 -2.6122
 2847TIP3    H229957   3.547   4.111  15.911  2.0389  1.6725  0.4398
 2848TIP3   OH229958   1.222   5.279   4.782  0.2189 -0.3046  0.7009
 2848TIP3    H129959   1.257   5.357   4.738  1.8687 -1.7663 -0.6913
 2848TIP3    H229960   1.219   5.212   4.715  0.5780 -1.9747  2.2778
 2849TIP3   OH229961   0.626   1.064   0.911 -0.1665 -0.1202  0.6585
 2849TIP3    H129962   0.622   1.033   1.002  0.0033 -0.0442  0.6934
 2849TIP3    H229963   0.644   0.985   0.860  2.0556  0.1479  0.9266
 2850TIP3   OH229964   2.469   5.358  14.674  0.0302 -0.3424  0.3795
 2850TIP3    H129965   2.528   5.283  14.667  0.8768  0.3600 -0.2113
 2850TIP3    H229966   2.484   5.407  14.593 -1.2338 -0.0479  0.3071
 2851TIP3   OH229967   2.451   6.587  15.570 -0.2186  0.3027  0.6606
 2851TIP3    H129968   2.546   6.590  15.576  0.0183  0.3162 -2.1394
 2851TIP3    H229969   2.429   6.494  15.583  0.0573  0.4050  2.0472
 2852TIP3   OH229970   1.346   3.468  16.156 -0.3197 -0.1282 -0.6382
 2852TIP3    H129971   1.322   3.376  16.163 -0.7461  0.1224  3.1693
 2852TIP3    H229972   1.263   3.515  16.154 -0.1320  0.2618  0.3006
 2853TIP3   OH229973   3.376   5.273   3.836 -0.0815 -0.7182  0.0455
 2853TIP3    H129974   3.313   5.200   3.840  0.3592 -1.1171 -0.2333
 2853TIP3    H229975   3.448   5.240   3.782  0.3794 -0.2676  0.3806
 2854TIP3   OH229976   2.499   1.857   2.624  0.1122 -0.1048 -0.1000
 2854TIP3    H129977   2.572   1.800   2.601  0.2414 -0.4051  0.9977
 2854TIP3    H229978   2.477   1.833   2.714 -0.3049  1.0767  0.1308
 2855TIP3   OH229979   4.715   3.646   1.532 -0.2182 -0.1535 -0.0667
 2855TIP3    H129980   4.810   3.655   1.525 -0.1220 -0.8664  0.2543
 2855TIP3    H229981   4.697   3.659   1.625 -0.2711 -1.3540  0.1115
 2856TIP3   OH229982   5.395   0.476   2.856 -0.0640  0.8332  0.6252
 2856TIP3    H129983   5.431   0.522   2.780 -0.2877  0.0737  0.0482
 2856TIP3    H229984   5.469   0.425   2.890 -0.2836  0.1878  0.1477
 2857TIP3   OH229985   4.525   2.617  14.246 -0.1066 -0.0080 -0.1514
 2857TIP3    H129986   4.591   2.553  14.274 -0.0223  0.2607  0.2721
 2857TIP3    H229987   4.572   2.700  14.244 -0.1674  0.0196 -0.8854
 2858TIP3   OH229988   0.282   4.091   1.643  0.6407 -0.0061 -0.1927
 2858TIP3    H129989   0.224   4.014   1.644 -0.7954  0.9970  2.0447
 2858TIP3    H229990   0.347   4.073   1.710  1.9318 -0.3360 -1.4698
 2859TIP3   OH229991   2.935   3.646   3.493 -0.1923 -0.5925  0.3887
 2859TIP3    H129992   2.859   3.592   3.513 -1.4725  0.9803 -0.0422
 2859TIP3    H229993   2.904   3.736   3.504  1.0300  0.1467 -1.7272
 2860TIP3   OH229994   5.739   2.818   5.244 -0.0974 -0.0608 -0.0179
 2860TIP3    H129995   5.812   2.774   5.288 -0.2557  0.2681  0.5866
 2860TIP3    H229996   5.726   2.768   5.163  0.0755 -0.7919  0.4003
 2861TIP3   OH229997   3.649   4.134   0.840 -0.0786 -0.0176 -0.0963
 2861TIP3    H129998   3.655   4.097   0.928  0.7442  1.0842  0.3277
 2861TIP3    H229999   3.654   4.058   0.782  4.4256 -0.5574  0.6240
 2862TIP3   OH230000   5.542   5.250  11.086  0.5473 -0.7004 -0.6003
 2862TIP3    H130001   5.616   5.253  11.147 -0.6332  0.1325  0.8511
 2862TIP3    H230002   5.580   5.220  11.003  2.6077  0.2576 -0.0503
 2863TIP3   OH230003   4.488   5.752  12.636  0.1083  0.2065  0.3660
 2863TIP3    H130004   4.469   5.845  12.628 -0.7053 -0.0789 -1.6827
 2863TIP3    H230005   4.422   5.719  12.696 -0.7660  0.6617 -0.3160
 2864TIP3   OH230006   6.147   3.126   0.220 -0.2796 -0.2263 -0.4742
 2864TIP3    H130007   6.073   3.076   0.255  1.3979 -1.5995  1.3696
 2864TIP3    H230008   6.202   3.142   0.296  2.3103 -1.0301 -2.0575
 2865TIP3   OH230009   1.816   0.325   5.774 -0.2639  0.3425  0.2371
 2865TIP3    H130010   1.752   0.266   5.814 -1.1997  0.0992 -1.5585
 2865TIP3    H230011   1.804   0.314   5.680  0.9881  1.8579 -0.1386
 2866TIP3   OH230012   2.367   4.905  12.385 -0.0549 -0.3179  0.0582
 2866TIP3    H130013   2.324   4.990  12.380  0.7037  0.0097 -1.5759
 2866TIP3    H230014   2.460   4.924  12.374  0.1151 -1.3514 -0.4881
 2867TIP3   OH230015   4.434   1.755   3.133 -0.4759  0.0267 -0.3979
 2867TIP3    H130016   4.487   1.711   3.067 -0.6328  0.5334 -0.8628
 2867TIP3    H230017   4.492   1.823   3.169 -0.6448  0.2606 -0.5638
 2868TIP3   OH230018   4.572   1.727  13.674 -0.7659 -0.1466 -0.1058
 2868TIP3    H130019   4.481   1.752  13.691 -0.5436  0.5102  0.1459
 2868TIP3    H230020   4.565   1.641  13.632 -1.3463 -1.6814  2.8771
 2869TIP3   OH230021   2.852   5.407  11.911  0.3822 -0.2468 -0.1355
 2869TIP3    H130022   2.842   5.421  12.005 -1.1528  1.3971 -0.4764
 2869TIP3    H230023   2.943   5.429  11.892  1.3113 -2.5778  1.2204
 2870TIP3   OH230024   6.572   5.673   0.844  0.1161 -0.6331 -0.2024
 2870TIP3    H130025   6.631   5.719   0.785  1.0312 -0.7237  0.6122
 2870TIP3    H230026   6.519   5.618   0.787 -1.2067  1.5861 -1.2509
 2871TIP3   OH230027   3.871   4.725  11.030 -0.4112 -0.3950 -0.3841
 2871TIP3    H130028   3.891   4.807  11.076  1.0694 -0.1102 -1.4797
 2871TIP3    H230029   3.950   4.673  11.039 -0.4732 -0.7395 -1.7368
 2872TIP3   OH230030   4.800   3.280   1.558 -0.2590  0.1844  0.5660
 2872TIP3    H130031   4.714   3.312   1.584 -0.5090 -1.9705  2.7112
 2872TIP3    H230032   4.788   3.186   1.545  2.1368 -0.5592  2.9570
 2873TIP3   OH230033   5.366   4.285  16.721  0.0531  0.0174 -0.0828
 2873TIP3    H130034   5.399   4.213  16.774 -0.6529  1.0816  1.8873
 2873TIP3    H230035   5.271   4.282  16.732 -0.0388  0.8274 -0.5524
 2874TIP3   OH230036   6.338   0.952   0.834  0.8196  0.3215  0.2581
 2874TIP3    H130037   6.276   0.886   0.804  0.0964  1.4316 -0.7832
 2874TIP3    H230038   6.418   0.936   0.783  2.1275 -2.2281  2.8343
 2875TIP3   OH230039   1.360   3.080   6.211 -0.9092  0.6365  0.1333
 2875TIP3    H130040   1.344   3.046   6.123 -1.9322  0.0149  0.5398
 2875TIP3    H230041   1.284   3.134   6.231 -1.2990 -0.2317  1.1033
 2876TIP3   OH230042   1.775   4.518  15.060 -0.2592 -0.5395  0.0436
 2876TIP3    H130043   1.827   4.563  15.126  0.9486 -1.3459 -0.3261
 2876TIP3    H230044   1.743   4.439  15.104  0.9971 -1.3580 -0.4489
 2877TIP3   OH230045   5.321   4.658   0.888 -0.3954  0.4985 -0.4755
 2877TIP3    H130046   5.354   4.611   0.812 -0.3735 -1.0342  0.4300
 2877TIP3    H230047   5.269   4.730   0.852 -0.1169  0.0108 -1.9143
 2878TIP3   OH230048   3.047   3.727  10.734  0.0744  0.4988  0.5031
 2878TIP3    H130049   2.992   3.802  10.709 -2.5640 -1.3645  0.3458
 2878TIP3    H230050   3.136   3.755  10.713 -0.8050  3.5298  0.3582
 2879TIP3   OH230051   3.650   5.003  13.415  0.0768  0.2255 -0.0695
 2879TIP3    H130052   3.611   5.084  13.383  1.6316  0.7063 -0.8228
 2879TIP3    H230053   3.625   5.000  13.508 -2.3342  0.1121 -0.6521
 2880TIP3   OH230054   5.735   2.360   1.568  0.6088  0.1693  0.3270
 2880TIP3    H130055   5.751   2.369   1.662 -0.5560 -0.2741  0.5891
 2880TIP3    H230056   5.695   2.443   1.543 -1.0392 -0.4716  0.6917
 2881TIP3   OH230057   6.656   5.884  14.584 -0.1295  0.4534 -0.6464
 2881TIP3    H130058   6.643   5.970  14.624 -2.2041  0.4533 -1.2173
 2881TIP3    H230059   6.622   5.893  14.495 -2.8524 -1.5829  0.0468
 2882TIP3   OH230060   3.512   3.764   2.312 -0.3753  0.0355 -0.2729
 2882TIP3    H130061   3.504   3.798   2.401 -0.2376 -0.3092 -0.1282
 2882TIP3    H230062   3.435   3.799   2.267 -1.0957 -0.7611  0.3020
 2883TIP3   OH230063   1.626   3.133   2.706  0.1652 -0.0744  0.5860
 2883TIP3    H130064   1.681   3.161   2.780  0.1529  3.0537 -0.4540
 2883TIP3    H230065   1.541   3.114   2.745  0.3895  0.7279  1.4918
 2884TIP3   OH230066   6.311   4.309   1.240  0.0837  0.0919 -0.9739
 2884TIP3    H130067   6.261   4.382   1.203  0.1983  0.9229  0.4480
 2884TIP3    H230068   6.271   4.231   1.201 -0.6477  0.8638 -1.8108
 2885TIP3   OH230069   1.793   4.616   2.391  0.1321 -0.6320 -0.1159
 2885TIP3    H130070   1.728   4.577   2.333 -1.4988 -1.9132  2.3706
 2885TIP3    H230071   1.849   4.543   2.418  0.6003 -0.1511  0.2304
 2886TIP3   OH230072   3.412   1.620  11.849 -0.3782 -0.5772  0.6983
 2886TIP3    H130073   3.332   1.569  11.842  0.5012 -2.0222  0.8704
 2886TIP3    H230074   3.481   1.561  11.821  0.4012  1.4464 -2.0677
 2887TIP3   OH230075   2.466   6.656   3.545 -0.2620  0.3094 -0.0662
 2887TIP3    H130076   2.547   6.610   3.527  0.2492  1.5932 -1.2496
 2887TIP3    H230077   2.482   6.746   3.515 -1.0020  1.4704  2.6388
 2888TIP3   OH230078   4.427   3.461  10.931  0.2152  0.0181  0.9164
 2888TIP3    H130079   4.365   3.530  10.908 -1.8575 -2.3457 -1.1710
 2888TIP3    H230080   4.386   3.416  11.005  0.8638  0.1492  1.3635
 2889TIP3   OH230081   5.484   2.634   6.078  0.0302 -0.0715  0.1869
 2889TIP3    H130082   5.536   2.669   6.150 -1.0241  0.3684  0.7490
 2889TIP3    H230083   5.509   2.541   6.074  1.4682  0.3081 -0.1130
 2890TIP3   OH230084   4.870   6.188   4.260  0.0889 -0.0511  0.1857
 2890TIP3    H130085   4.963   6.192   4.238  0.3640 -0.8867  1.1086
 2890TIP3    H230086   4.837   6.276   4.243  0.9119  0.1077 -0.7009
 2891TIP3   OH230087   2.314   0.448  12.666  0.1466  0.3111 -0.6712
 2891TIP3    H130088   2.247   0.429  12.732  1.4808 -0.7375  0.4494
 2891TIP3    H230089   2.282   0.406  12.586 -1.3689  1.3665 -0.6565
 2892TIP3   OH230090   1.513   2.571   1.167 -0.5756 -0.0044  0.0340
 2892TIP3    H130091   1.597   2.584   1.212 -1.1909 -1.6928  1.8025
 2892TIP3    H230092   1.451   2.626   1.214 -0.6879  0.4383 -0.6117
 2893TIP3   OH230093   6.519   6.718  13.710 -0.1106  0.6580  0.3505
 2893TIP3    H130094   6.484   6.782  13.772  0.6529  1.8198 -0.3797
 2893TIP3    H230095   6.526   6.637  13.761 -0.5380  1.3021  1.4698
 2894TIP3   OH230096   5.897   4.232  13.600 -0.3449 -0.0878 -0.0533
 2894TIP3    H130097   5.947   4.252  13.521  0.2920 -0.4696  0.2441
 2894TIP3    H230098   5.817   4.189  13.567 -0.0810 -0.2558 -0.4855
 2895TIP3   OH230099   2.378   5.130  12.672 -0.0031  0.0130 -0.2544
 2895TIP3    H130100   2.364   5.123  12.766 -0.1676  1.2213 -0.1817
 2895TIP3    H230101   2.300   5.090  12.633 -1.0355  1.5964  0.1345
 2896TIP3   OH230102   0.702   3.161  10.949 -0.4620  0.0025 -0.3062
 2896TIP3    H130103   0.722   3.236  10.893  1.8464 -0.3513 -0.0646
 2896TIP3    H230104   0.709   3.085  10.890 -0.1936 -0.1956 -0.0261
 2897TIP3   OH230105   3.163   3.867   3.643 -0.6183 -0.0014 -0.4854
 2897TIP3    H130106   3.199   3.900   3.725 -0.2140 -2.2422  0.3000
 2897TIP3    H230107   3.240   3.850   3.589 -0.9139  2.4255 -1.8045
 2898TIP3   OH230108   2.446   6.373  15.260  0.0595 -0.4253 -0.5428
 2898TIP3    H130109   2.366   6.331  15.227 -1.0679  0.1634  1.2827
 2898TIP3    H230110   2.458   6.334  15.347  1.4105 -0.0304 -0.5399
 2899TIP3   OH230111   0.407   1.026   4.224  0.3282  0.4992  0.6335
 2899TIP3    H130112   0.434   0.976   4.147 -0.7051 -0.9374  1.1670
 2899TIP3    H230113   0.481   1.084   4.242  0.6250  0.8278 -1.3753
 2900TIP3   OH230114   5.283   5.128  11.434  0.0668  0.4141  0.3714
 2900TIP3    H130115   5.246   5.185  11.367  0.4962 -0.9370 -1.0706
 2900TIP3    H230116   5.376   5.152  11.439 -0.3100  1.7268  1.8103
 2901TIP3   OH230117   5.296   1.514  11.654  0.1321  0.4484  0.2882
 2901TIP3    H130118   5.219   1.488  11.704  2.1001 -0.0275  3.3064
 2901TIP3    H230119   5.303   1.608  11.666 -0.9638  0.8183 -1.6022
 2902TIP3   OH230120   5.402   6.304  13.881  0.3441 -0.2390 -0.6478
 2902TIP3    H130121   5.431   6.392  13.858 -1.5530  0.6019  0.0147
 2902TIP3    H230122   5.310   6.314  13.903 -0.0173 -2.4796 -0.9562
 2903TIP3   OH230123   1.917   0.619  13.520 -0.2024 -0.1451 -0.3471
 2903TIP3    H130124   1.946   0.687  13.580  0.0591 -0.9755  0.4891
 2903TIP3    H230125   1.934   0.537  13.566 -0.5481 -0.7815 -1.3144
 2904TIP3   OH230126   1.894   1.734  12.160 -0.8354 -0.0102 -0.1503
 2904TIP3    H130127   1.898   1.658  12.101 -1.3884  0.7912 -1.2610
 2904TIP3    H230128   1.816   1.718  12.214 -1.0770 -0.1270 -0.5291
 2905TIP3   OH230129   0.419   6.745   4.418 -0.6313  0.0367 -0.0193
 2905TIP3    H130130   0.382   6.669   4.464  0.5796  1.2445  3.2342
 2905TIP3    H230131   0.361   6.817   4.439  0.2732  0.7539  0.0799
 2906TIP3   OH230132   5.847   6.616   5.044 -0.6233 -0.1850 -0.9620
 2906TIP3    H130133   5.760   6.647   5.018 -0.9163  0.1264  0.3216
 2906TIP3    H230134   5.873   6.557   4.973 -2.4723 -1.3345 -0.7697
 2907TIP3   OH230135   5.354   0.929   0.691  0.3740 -0.5484 -0.0555
 2907TIP3    H130136   5.312   0.959   0.771 -0.2526 -0.3397 -0.4574
 2907TIP3    H230137   5.448   0.933   0.711  0.2600  0.3414  0.3758
 2908TIP3   OH230138   6.427   4.303  10.892  0.2405  0.0697 -0.1883
 2908TIP3    H130139   6.485   4.247  10.840  0.4527 -0.4320  0.5829
 2908TIP3    H230140   6.486   4.369  10.929  1.0224 -2.2811  3.2638
 2909TIP3   OH230141   3.070   0.095  11.456  0.2345 -0.5106 -0.3640
 2909TIP3    H130142   3.148   0.117  11.507  0.9405 -1.7492 -0.8496
 2909TIP3    H230143   3.091   0.121  11.367 -0.4687  0.4243 -0.2683
 2910TIP3   OH230144   4.338   1.138  12.308 -0.8431 -0.0567  0.1181
 2910TIP3    H130145   4.305   1.223  12.337 -2.6155 -0.5768 -0.2680
 2910TIP3    H230146   4.388   1.158  12.228 -1.9178  0.5629 -0.4253
 2911TIP3   OH230147   5.064   0.914  12.615 -0.0118 -0.2926 -0.4484
 2911TIP3    H130148   5.084   0.864  12.536 -2.8821 -1.8669 -0.3034
 2911TIP3    H230149   5.052   1.004  12.584  0.0195 -0.6744 -1.6153
 2912TIP3   OH230150   1.797   0.822   2.688 -0.3342  0.2074 -0.3568
 2912TIP3    H130151   1.798   0.728   2.707 -3.1623  0.0694 -0.4686
 2912TIP3    H230152   1.711   0.838   2.649 -0.5576  3.1079  1.0354
 2913TIP3   OH230153   2.112   6.024  15.935 -0.9723  0.0634  0.0065
 2913TIP3    H130154   2.073   5.957  15.879 -2.5519  0.7910  0.1828
 2913TIP3    H230155   2.043   6.047  15.997  0.1926  0.4711  1.2121
 2914TIP3   OH230156   1.529   6.478   3.443  0.0186  0.7166 -0.0042
 2914TIP3    H130157   1.470   6.457   3.370 -0.1268  1.0578  0.0155
 2914TIP3    H230158   1.536   6.395   3.492 -1.6324  1.0282  0.8439
 2915TIP3   OH230159   3.571   1.335   1.763 -0.3237  0.0245  0.5715
 2915TIP3    H130160   3.577   1.242   1.741  2.1759  0.4696 -1.0682
 2915TIP3    H230161   3.579   1.337   1.858 -0.7390 -1.4545  0.6661
 2916TIP3   OH230162   4.943   3.935   1.395  0.2376  0.5557 -0.1546
 2916TIP3    H130163   4.988   4.017   1.376 -1.9768  1.6617 -0.9179
 2916TIP3    H230164   4.850   3.956   1.390 -0.4095 -1.8130  0.5089
 2917TIP3   OH230165   0.520   2.208   5.597  0.0916 -0.9587 -0.5352
 2917TIP3    H130166   0.550   2.279   5.541 -0.5796  0.4144  0.7938
 2917TIP3    H230167   0.453   2.247   5.652  0.2376 -2.4336  0.7500
 2918TIP3   OH230168   2.495   0.998  12.340 -0.3848  0.1117 -0.5964
 2918TIP3    H130169   2.550   1.005  12.262  0.2195 -1.0579 -0.2972
 2918TIP3    H230170   2.435   0.926  12.321 -1.4597  1.0225 -0.6989
 2919TIP3   OH230171   4.181   2.793  11.568 -0.2539  0.2342  0.1762
 2919TIP3    H130172   4.134   2.710  11.583  0.5285 -0.1519  0.5430
 2919TIP3    H230173   4.165   2.813  11.476  0.7481 -1.1001 -0.3122
 2920TIP3   OH230174   1.719   5.347   5.572  0.2018  0.0160  0.2246
 2920TIP3    H130175   1.702   5.424   5.518 -1.9765  0.3983  1.3415
 2920TIP3    H230176   1.688   5.274   5.520  0.2800  0.1126  0.0383
 2921TIP3   OH230177   6.171   1.041   5.842  0.0950  0.2626  0.4495
 2921TIP3    H130178   6.098   1.019   5.900 -0.1436 -0.5562 -0.1356
 2921TIP3    H230179   6.197   1.129   5.869  1.0183 -0.6645  2.8580
 2922TIP3   OH230180   6.687   6.733   2.880  1.3869 -0.0422  0.2068
 2922TIP3    H130181   6.675   6.723   2.786  0.2681  0.0465  0.3219
 2922TIP3    H230182   6.638   6.812   2.902  1.6121 -0.0798  0.8675
 2923TIP3   OH230183   4.975   6.221  15.202 -0.9049 -0.1746 -0.1090
 2923TIP3    H130184   4.993   6.209  15.108 -2.0263  1.3272 -0.5625
 2923TIP3    H230185   5.022   6.300  15.226 -1.9738  0.3992  0.1587
 2924TIP3   OH230186   0.743   6.410  16.688 -0.0864 -0.2441 -0.0813
 2924TIP3    H130187   0.677   6.398  16.756 -0.3529 -0.5453 -0.3887
 2924TIP3    H230188   0.826   6.396  16.733 -0.2182  0.2949  0.3452
 2925TIP3   OH230189   5.041   0.192   2.751 -0.3939 -0.3334 -0.0119
 2925TIP3    H130190   4.976   0.205   2.821 -1.1405  0.0244 -0.7526
 2925TIP3    H230191   5.009   0.116   2.702 -1.9393  1.5406 -2.1537
 2926TIP3   OH230192   0.972   1.733  11.588 -0.1415 -0.2056  0.2734
 2926TIP3    H130193   1.036   1.795  11.553  1.5586  0.3075  3.8596
 2926TIP3    H230194   0.887   1.774  11.572  0.8527  2.4368  1.2653
 2927TIP3   OH230195   6.177   1.902   3.007 -0.4060  0.6187 -0.1318
 2927TIP3    H130196   6.214   1.990   3.002 -0.5141  0.6249 -1.2482
 2927TIP3    H230197   6.248   1.849   3.044 -0.0709  1.0404 -0.1562
 2928TIP3   OH230198   3.079   1.123   0.621 -0.1488  0.2886 -0.0184
 2928TIP3    H130199   3.161   1.171   0.633  0.2078 -0.5169  0.9255
 2928TIP3    H230200   3.071   1.112   0.526  0.3619  1.1749 -0.1714
 2929TIP3   OH230201   6.780   3.069  11.939 -0.3793 -0.1079 -0.2007
 2929TIP3    H130202   6.716   3.132  11.905 -1.7902 -0.7696  1.0753
 2929TIP3    H230203   6.739   2.984  11.927 -1.1165 -0.3828  3.1981
 2930TIP3   OH230204   2.066   1.121  12.518 -0.0756 -0.5106 -0.2256
 2930TIP3    H130205   2.069   1.051  12.583  0.5788 -1.3079 -1.0838
 2930TIP3    H230206   2.141   1.177  12.540 -0.2719 -0.3755  0.1196
 2931TIP3   OH230207   4.201   1.448  14.098  0.3038  0.2523 -0.1705
 2931TIP3    H130208   4.174   1.429  14.009  1.7160 -2.7039 -0.0990
 2931TIP3    H230209   4.138   1.402  14.154  2.0054 -1.9255  0.1203
 2932TIP3   OH230210   2.130   0.001   2.613  0.3629 -0.1894  0.1303
 2932TIP3    H130211   2.207   0.051   2.639 -0.0392  0.2058  0.5998
 2932TIP3    H230212   2.093   0.049   2.539  1.2235 -1.0371 -0.8878
 2933TIP3   OH230213   5.549   4.612   1.084  0.1729  0.0606 -0.2525
 2933TIP3    H130214   5.516   4.545   1.143 -0.4894 -0.0928 -0.7750
 2933TIP3    H230215   5.482   4.618   1.015  1.3267 -0.3730 -1.4425
 2934TIP3   OH230216   3.836   1.511  11.821  0.4151 -0.1527  0.2017
 2934TIP3    H130217   3.775   1.583  11.836 -1.6080 -1.7136  0.0164
 2934TIP3    H230218   3.788   1.451  11.763  1.9570 -1.6987  0.4358
 2935TIP3   OH230219   6.038   2.364   4.927 -0.0925 -0.0116 -0.3225
 2935TIP3    H130220   6.069   2.283   4.886  1.7756 -0.7133  2.1846
 2935TIP3    H230221   6.105   2.429   4.906 -0.4546  0.3035 -0.5131
 2936TIP3   OH230222   6.153   4.400  14.090  0.5276  0.0388 -0.4244
 2936TIP3    H130223   6.207   4.462  14.041  1.3512  0.8051  1.3584
 2936TIP3    H230224   6.074   4.450  14.112  1.1097  0.4576  0.8481
 2937TIP3   OH230225   2.724   2.077   4.541  0.2247 -0.3114 -0.2132
 2937TIP3    H130226   2.807   2.125   4.541 -0.8988  1.8005  1.2290
 2937TIP3    H230227   2.746   1.990   4.575  2.3944 -1.1401 -3.2836
 2938TIP3   OH230228   0.600   5.617  12.191  0.0447 -0.1036  0.1018
 2938TIP3    H130229   0.563   5.602  12.278 -0.2208  2.6243  0.5462
 2938TIP3    H230230   0.524   5.629  12.134  0.2281  0.0073 -0.1210
 2939TIP3   OH230231   2.008   0.336   3.546 -0.1649  0.2184  0.3140
 2939TIP3    H130232   2.086   0.280   3.542 -0.6320 -0.4944  0.8540
 2939TIP3    H230233   2.028   0.399   3.616  1.2866  2.2299 -1.7624
 2940TIP3   OH230234   1.968   5.056   5.465  0.1287  0.4043 -0.2953
 2940TIP3    H130235   2.062   5.045   5.477  0.2821  1.1776 -0.7523
 2940TIP3    H230236   1.941   4.979   5.415  0.7717  0.9034 -1.4310
 2941TIP3   OH230237   4.060   0.830   0.982 -0.5642 -0.1456  0.3734
 2941TIP3    H130238   4.030   0.915   1.012 -0.0813 -0.6546  2.4474
 2941TIP3    H230239   4.148   0.821   1.019 -0.5912 -1.5251  0.1775
 2942TIP3   OH230240   2.100   2.417  15.538 -0.8221  0.4374  0.2406
 2942TIP3    H130241   2.025   2.419  15.478 -0.4037  3.2585 -0.3108
 2942TIP3    H230242   2.160   2.354  15.498 -1.6205  0.3987 -0.9598
 2943TIP3   OH230243   0.722   4.986   2.282  0.2180  0.1498 -0.0577
 2943TIP3    H130244   0.675   4.903   2.278 -0.2207  0.3686  0.4317
 2943TIP3    H230245   0.654   5.053   2.287  0.5696  0.5218 -0.1557
 2944TIP3   OH230246   1.397   4.044  14.000 -0.0848 -0.6724  0.5385
 2944TIP3    H130247   1.357   4.130  14.009 -1.5104 -1.0549 -1.3365
 2944TIP3    H230248   1.362   3.993  14.073 -1.6247 -0.4669 -0.0221
 2945TIP3   OH230249   2.123   4.343  12.479 -0.6361  0.3498  0.5686
 2945TIP3    H130250   2.200   4.308  12.434 -0.1311  1.0126  0.8942
 2945TIP3    H230251   2.158   4.383  12.558 -1.4053  0.0542  1.0653
 2946TIP3   OH230252   3.441   0.640  13.909  0.4147 -0.5294  0.5188
 2946TIP3    H130253   3.414   0.730  13.922  2.1001  0.2347 -0.8065
 2946TIP3    H230254   3.392   0.610  13.833 -0.4913 -0.9111  1.2388
 2947TIP3   OH230255   2.386   6.306  13.738 -0.5862  0.6607 -0.1820
 2947TIP3    H130256   2.416   6.217  13.758 -0.6192 -0.0563 -2.9499
 2947TIP3    H230257   2.440   6.363  13.792 -0.1757 -0.9878  1.2349
 2948TIP3   OH230258   3.601   2.656   4.143  0.4134 -0.2586 -0.8160
 2948TIP3    H130259   3.520   2.695   4.110  0.0187 -0.6372 -0.3231
 2948TIP3    H230260   3.574   2.609   4.223  0.8856 -1.4191 -1.3114
 2949TIP3   OH230261   0.099   2.223   1.713 -0.5417 -0.2531 -0.3635
 2949TIP3    H130262   0.182   2.261   1.742 -0.6607 -0.2187 -0.0642
 2949TIP3    H230263   0.059   2.292   1.659 -1.5556  0.7516  1.5851
 2950TIP3   OH230264   4.198   4.142  13.870  0.4667 -0.0216  0.8931
 2950TIP3    H130265   4.196   4.226  13.823  2.3720 -0.2989  0.2429
 2950TIP3    H230266   4.240   4.082  13.809  0.3643 -1.1201  1.8778
 2951TIP3   OH230267   1.184   3.028   3.748  0.2379 -0.8222  0.0483
 2951TIP3    H130268   1.211   3.062   3.834 -0.1920  0.2626 -0.2295
 2951TIP3    H230269   1.094   3.059   3.738  0.8490  0.5784 -1.5301
 2952TIP3   OH230270   2.277   5.423   1.823  0.0434  0.0266  0.2064
 2952TIP3    H130271   2.246   5.339   1.788  0.2374 -0.1772  0.5103
 2952TIP3    H230272   2.372   5.422   1.806 -0.1931  0.9322 -1.3088
 2953TIP3   OH230273   2.643   1.736   5.432 -0.0842  0.2174  0.6637
 2953TIP3    H130274   2.644   1.676   5.357 -0.0258  0.6096  0.3458
 2953TIP3    H230275   2.595   1.813   5.400  0.2314  0.5232  0.9190
 2954TIP3   OH230276   6.073   5.207  11.266  0.2673  0.4249  0.4915
 2954TIP3    H130277   6.113   5.197  11.353  0.3797 -1.4590  0.2638
 2954TIP3    H230278   6.038   5.296  11.266  1.1367  0.8118  2.0970
 2955TIP3   OH230279   1.958   3.500   4.285 -0.6105  0.2957 -0.8902
 2955TIP3    H130280   1.895   3.456   4.342 -0.3167  2.3763  1.2009
 2955TIP3    H230281   1.995   3.569   4.339  1.8717  0.5667 -2.7517
 2956TIP3   OH230282   1.323   3.522   0.074 -0.1520 -0.1812  0.0374
 2956TIP3    H130283   1.343   3.430   0.059 -0.2948 -0.2221  0.0937
 2956TIP3    H230284   1.260   3.545   0.005 -1.2814 -0.5334  0.9292
 2957TIP3   OH230285   3.091   0.072   5.868  0.3780  0.5988  0.1693
 2957TIP3    H130286   3.108   0.167   5.864 -0.0533  0.6482 -0.8035
 2957TIP3    H230287   3.112   0.040   5.781  1.8830 -0.4659  0.8896
 2958TIP3   OH230288   4.057   3.864   5.392  0.5878  0.8136 -0.7672
 2958TIP3    H130289   3.967   3.886   5.367  1.0935  1.7085 -1.9002
 2958TIP3    H230290   4.053   3.850   5.486 -1.2918 -2.0131 -1.1237
 2959TIP3   OH230291   3.854   0.743   1.511 -0.0369 -0.5842 -0.0138
 2959TIP3    H130292   3.783   0.789   1.557 -0.7850 -2.0395  0.3434
 2959TIP3    H230293   3.871   0.666   1.566  1.8898 -0.2297 -0.0546
 2960TIP3   OH230294   6.495   4.793  16.025 -0.2270 -0.1255 -0.0955
 2960TIP3    H130295   6.584   4.822  16.045 -1.4152  2.6686  1.7599
 2960TIP3    H230296   6.497   4.698  16.034  2.2996 -0.0258  1.0441
 2961TIP3   OH230297   1.779   1.791  15.874 -0.2266  0.3635  0.1421
 2961TIP3    H130298   1.847   1.748  15.926 -0.6060 -1.2545 -0.6338
 2961TIP3    H230299   1.737   1.720  15.826 -2.7331  1.2307  0.8734
 2962TIP3   OH230300   2.330   0.351   4.061  0.1896  0.0583 -0.2512
 2962TIP3    H130301   2.335   0.305   4.145 -0.0182 -0.3401 -0.4561
 2962TIP3    H230302   2.238   0.345   4.036 -0.0117  1.2722  0.1001
 2963TIP3   OH230303   3.689   5.171   0.873  0.5042 -0.4344 -0.0097
 2963TIP3    H130304   3.768   5.163   0.926  1.5113 -1.5854 -1.5859
 2963TIP3    H230305   3.618   5.141   0.929  1.2883 -0.1089  1.1825
 2964TIP3   OH230306   0.707   0.330   0.159 -0.2939 -0.3812  0.0098
 2964TIP3    H130307   0.690   0.385   0.083 -0.5071 -0.1605  0.2163
 2964TIP3    H230308   0.682   0.384   0.234 -1.0795 -0.9744  0.1870
 2965TIP3   OH230309   2.021   0.470  11.947 -0.0102  0.1475  0.1202
 2965TIP3    H130310   2.044   0.385  11.985  1.5951  0.4506 -0.0691
 2965TIP3    H230311   1.926   0.471  11.944 -0.1466 -0.6304  2.4206
 2966TIP3   OH230312   3.827   2.906   4.447 -0.1631  0.0394  0.0250
 2966TIP3    H130313   3.853   2.843   4.380  3.2614  0.1521  1.0548
 2966TIP3    H230314   3.804   2.985   4.398  0.8064 -0.3418 -1.0991
 2967TIP3   OH230315   1.596   3.878  14.540  0.1142  0.3600 -0.4136
 2967TIP3    H130316   1.642   3.958  14.516  0.8149 -0.0085 -0.3250
 2967TIP3    H230317   1.567   3.842  14.456 -2.3868  1.9472 -0.3264
 2968TIP3   OH230318   3.668   3.319   3.965  0.1319 -0.7406 -0.2886
 2968TIP3    H130319   3.746   3.267   3.946  0.8000 -0.0604  0.5225
 2968TIP3    H230320   3.701   3.408   3.982 -0.7411 -0.5889  0.7393
 2969TIP3   OH230321   0.523   2.164  11.696 -0.4972 -0.5764  0.0574
 2969TIP3    H130322   0.446   2.165  11.753 -0.4950 -0.1880  0.0538
 2969TIP3    H230323   0.597   2.172  11.756 -0.4897 -0.2799  0.0079
 2970TIP3   OH230324   0.400   3.792  11.501  0.0405  0.8436  0.0780
 2970TIP3    H130325   0.426   3.759  11.414  0.7625 -1.2553  1.0047
 2970TIP3    H230326   0.308   3.769  11.508 -0.3376  2.0845 -0.5574
 2971TIP3   OH230327   2.243   0.101  12.683 -0.2154  0.6640 -0.0896
 2971TIP3    H130328   2.258   0.009  12.662  2.4521  0.6405  1.5542
 2971TIP3    H230329   2.213   0.139  12.600  0.1473 -1.3397 -1.2185
 2972TIP3   OH230330   5.478   3.284  11.983  0.0683  0.2236 -0.3673
 2972TIP3    H130331   5.408   3.342  11.953 -0.0738 -0.7256 -1.9820
 2972TIP3    H230332   5.526   3.261  11.903  1.8353  0.3202  0.6099
 2973TIP3   OH230333   2.097   6.233   4.804 -0.0181  0.0454 -0.0486
 2973TIP3    H130334   2.164   6.297   4.777 -1.1113  1.0203 -0.5730
 2973TIP3    H230335   2.048   6.215   4.723  0.2000 -1.3985  0.1219
 2974TIP3   OH230336   3.256   6.641  14.366  0.7562 -0.2072  0.2869
 2974TIP3    H130337   3.302   6.663  14.447  2.0606  0.4193 -0.6028
 2974TIP3    H230338   3.240   6.547  14.373 -0.1031  0.0148  1.7278
 2975TIP3   OH230339   0.174   6.509   0.085 -0.2251  0.4523  0.2083
 2975TIP3    H130340   0.257   6.466   0.063 -0.6690 -0.2843 -0.0539
 2975TIP3    H230341   0.167   6.500   0.180 -0.9838 -1.3546  0.0313
 2976TIP3   OH230342   2.660   3.926  14.429  0.1262 -0.1578  0.0375
 2976TIP3    H130343   2.587   3.956  14.483  0.2047 -1.2780  0.7967
 2976TIP3    H230344   2.690   4.005  14.384  0.8214  1.0854  2.5044
 2977TIP3   OH230345   4.839   3.972  16.605 -0.2512 -0.2671 -0.1507
 2977TIP3    H130346   4.819   3.932  16.689  1.5298 -2.7961 -0.8160
 2977TIP3    H230347   4.845   4.066  16.623 -0.6043 -0.6732  2.3615
 2978TIP3   OH230348   2.611   1.966   3.742  0.3979 -0.4994 -0.5628
 2978TIP3    H130349   2.662   2.030   3.691 -0.6170 -0.8820 -2.1574
 2978TIP3    H230350   2.564   1.915   3.675 -0.7914 -1.2225  0.7713
 2979TIP3   OH230351   0.152   0.217   5.575  0.1877 -0.0996  0.2192
 2979TIP3    H130352   0.081   0.192   5.634 -0.5042 -0.5482 -0.7683
 2979TIP3    H230353   0.175   0.306   5.602 -0.9498  0.1660  0.3891
 2980TIP3   OH230354   3.479   6.591   2.638 -0.4686  0.3272 -0.1114
 2980TIP3    H130355   3.452   6.673   2.679  0.2415  1.2746 -1.4671
 2980TIP3    H230356   3.455   6.524   2.702 -1.5160  1.5293  0.8191
 2981TIP3   OH230357   3.545   5.679   3.443 -0.1574  0.4741  0.6373
 2981TIP3    H130358   3.540   5.590   3.411 -1.7845  0.5954  0.4864
 2981TIP3    H230359   3.639   5.696   3.452  0.2498 -0.5670 -1.1851
 2982TIP3   OH230360   1.380   1.393  14.562  0.0839  0.2643 -0.0878
 2982TIP3    H130361   1.293   1.413  14.526 -0.2578 -1.1413 -0.0882
 2982TIP3    H230362   1.362   1.356  14.648  0.8179  2.0253  0.8773
 2983TIP3   OH230363   0.469   3.270   3.023  0.1617 -0.2044  0.5827
 2983TIP3    H130364   0.556   3.238   3.048 -0.0552 -0.4108  1.0846
 2983TIP3    H230365   0.424   3.287   3.106  0.4069  1.8386  0.3413
 2984TIP3   OH230366   1.644   3.584   1.360 -0.2050  0.0510 -0.1886
 2984TIP3    H130367   1.561   3.607   1.319 -0.8165  1.0922  1.5079
 2984TIP3    H230368   1.643   3.488   1.365 -0.5633 -0.0408 -1.5960
 2985TIP3   OH230369   6.629   2.933  15.507  0.0895  0.5068  0.2159
 2985TIP3    H130370   6.706   2.949  15.454 -0.5026  0.0413 -0.8181
 2985TIP3    H230371   6.638   2.992  15.582  0.5290  1.7960 -0.8207
 2986TIP3   OH230372   3.824   4.066  15.021 -0.1825 -0.0219 -0.1859
 2986TIP3    H130373   3.879   4.110  15.085 -0.4502  0.2392 -0.1356
 2986TIP3    H230374   3.865   4.085  14.937  1.2744 -1.9412  0.0263
 2987TIP3   OH230375   4.039   5.870  16.214  0.0375 -0.3618 -0.7131
 2987TIP3    H130376   4.048   5.814  16.292  1.1783  0.9208  0.1241
 2987TIP3    H230377   4.092   5.827  16.147 -0.9231 -1.4590 -0.8194
 2988TIP3   OH230378   2.723   3.384   5.693  0.3368 -0.0916  0.2433
 2988TIP3    H130379   2.680   3.299   5.681  0.9035 -0.1325 -2.0888
 2988TIP3    H230380   2.674   3.444   5.637 -0.4607  1.3408  2.3723
 2989TIP3   OH230381   4.402   1.981  15.112 -0.0646 -0.3313 -0.2340
 2989TIP3    H130382   4.355   2.060  15.087 -0.0368  0.0987  1.0183
 2989TIP3    H230383   4.414   1.989  15.206  0.5403 -1.5084 -0.1952
 2990TIP3   OH230384   6.125   3.173  15.208  0.4147  0.1325 -0.1905
 2990TIP3    H130385   6.096   3.261  15.185 -0.9223  0.2024  1.6296
 2990TIP3    H230386   6.134   3.174  15.303  0.3731 -1.7024 -0.1357
 2991TIP3   OH230387   5.169   3.150  12.457 -0.2937 -0.2379 -0.0055
 2991TIP3    H130388   5.195   3.185  12.372  3.1892 -0.0575  0.9547
 2991TIP3    H230389   5.213   3.065  12.462 -2.9801 -1.6855  0.4601
 2992TIP3   OH230390   0.793   6.458   3.789  0.2139 -0.0158  0.0148
 2992TIP3    H130391   0.854   6.399   3.746  1.6018  0.5154  1.1742
 2992TIP3    H230392   0.833   6.478   3.874 -2.0199 -0.4207  1.2738
 2993TIP3   OH230393   3.630   0.227  15.877 -0.6336 -0.3925 -0.3074
 2993TIP3    H130394   3.554   0.214  15.820 -0.6455 -4.0470  0.2922
 2993TIP3    H230395   3.705   0.208  15.821 -0.5454 -2.2330  0.3829
 2994TIP3   OH230396   0.434   6.765   0.946 -0.3467 -0.1310 -0.3066
 2994TIP3    H130397   0.500   6.698   0.964  0.1022  0.5509  0.6982
 2994TIP3    H230398   0.428   6.814   1.028 -3.0923 -1.0051  0.0974
 2995TIP3   OH230399   3.388   6.071  15.554  0.5584  0.2818 -0.0866
 2995TIP3    H130400   3.297   6.088  15.529 -0.4498 -0.0989  2.9097
 2995TIP3    H230401   3.396   5.975  15.551  0.3610  0.2131  1.0432
 2996TIP3   OH230402   4.043   2.178  13.537  0.3342  0.0902  0.0624
 2996TIP3    H130403   4.069   2.187  13.628 -0.1102  0.0752  0.1927
 2996TIP3    H230404   3.988   2.100  13.535 -0.6855  0.7869  0.0173
 2997TIP3   OH230405   5.175   2.392  12.967  0.3267 -0.1215  0.2254
 2997TIP3    H130406   5.252   2.391  12.909  0.4545 -0.5241  0.3919
 2997TIP3    H230407   5.196   2.326  13.033  0.7329  1.2075  1.4607
 2998TIP3   OH230408   3.611   3.690   4.597 -0.8075  0.0698 -0.2217
 2998TIP3    H130409   3.647   3.722   4.515 -0.7304  1.0950  0.2004
 2998TIP3    H230410   3.524   3.729   4.603 -1.8216 -1.9228 -0.9518
 2999TIP3   OH230411   3.242   3.079   1.853 -0.1572  0.1957 -0.5591
 2999TIP3    H130412   3.183   3.049   1.784 -3.4527  1.1310  1.5941
 2999TIP3    H230413   3.303   3.007   1.867 -3.4413 -2.7135 -0.1747
 3000TIP3   OH230414   0.205   0.529   4.598 -0.3502 -0.5172  0.2690
 3000TIP3    H130415   0.172   0.586   4.668 -1.5134 -1.0369  0.1705
 3000TIP3    H230416   0.238   0.452   4.644  0.6936 -0.0389  0.3596
 3001TIP3   OH230417   0.787   3.200   5.552  0.2458  0.0804 -0.4491
 3001TIP3    H130418   0.748   3.283   5.525  1.6205  1.6842  2.0708
 3001TIP3    H230419   0.821   3.161   5.471 -1.8904  1.1028 -1.9296
 3002TIP3   OH230420   2.905   1.805  12.458  0.2443  0.2235  0.2045
 3002TIP3    H130421   2.818   1.819  12.496  1.7996  3.0320  3.1672
 3002TIP3    H230422   2.920   1.882  12.403  0.2972 -1.0713 -1.6986
 3003TIP3   OH230423   6.447   5.651   3.933 -0.7650  0.0398  0.5534
 3003TIP3    H130424   6.374   5.620   3.879 -1.2326 -0.8366  1.6664
 3003TIP3    H230425   6.524   5.611   3.893 -1.2764 -2.0569  1.5039
 3004TIP3   OH230426   4.731   4.996  12.340 -0.1197 -0.1314 -0.1057
 3004TIP3    H130427   4.709   4.916  12.389  1.9772 -1.3067 -0.9683
 3004TIP3    H230428   4.805   4.971  12.285 -0.2257  2.0893 -1.3641
 3005TIP3   OH230429   1.574   0.412   5.612 -0.1251 -0.1323  0.4851
 3005TIP3    H130430   1.572   0.316   5.615 -0.1542 -0.2357 -1.5866
 3005TIP3    H230431   1.489   0.438   5.648 -0.9593 -0.9821 -0.7769
 3006TIP3   OH230432   5.001   2.688   2.073  0.1911  0.1835 -0.3928
 3006TIP3    H130433   4.924   2.673   2.128  0.6086  0.7234  0.3574
 3006TIP3    H230434   5.066   2.625   2.105  0.7203  1.0723  0.3175
 3007TIP3   OH230435   2.780   0.054   3.703  0.7318  0.3136  0.5966
 3007TIP3    H130436   2.798  -0.023   3.756  0.9169 -0.1935 -0.1832
 3007TIP3    H230437   2.817   0.033   3.617 -0.2332  0.7911  0.0446
 3008TIP3   OH230438   2.910   0.584   2.425  0.2145 -0.0685 -0.5012
 3008TIP3    H130439   2.970   0.514   2.399 -0.4697 -0.4862 -0.9773
 3008TIP3    H230440   2.859   0.546   2.497 -0.7280 -0.3719 -1.3057
 3009TIP3   OH230441   2.721   6.485   6.591 -0.5180  0.1558  0.1245
 3009TIP3    H130442   2.688   6.396   6.578 -1.0031  0.2918  0.4017
 3009TIP3    H230443   2.814   6.479   6.570 -0.7914 -0.1461 -1.0684
 3010TIP3   OH230444   3.558   4.171  10.798  0.2218 -0.0040  0.1006
 3010TIP3    H130445   3.503   4.215  10.733 -0.1181  0.5260  0.7365
 3010TIP3    H230446   3.528   4.080  10.797 -0.7604  0.2990  0.5117
 3011TIP3   OH230447   5.183   0.373  14.053  0.2162  0.1848  0.2920
 3011TIP3    H130448   5.142   0.309  14.110 -0.8849  0.4784 -0.1403
 3011TIP3    H230449   5.253   0.411  14.105 -0.2742 -0.1014  1.1689
 3012TIP3   OH230450   6.627   3.845  16.807 -0.2948 -0.4342 -0.0627
 3012TIP3    H130451   6.563   3.911  16.783 -0.5293 -0.5948  0.1148
 3012TIP3    H230452   6.703   3.865  16.753  0.0864  0.7364  0.8563
 3013TIP3   OH230453   1.802   0.491  11.004  0.3506 -0.4477 -0.2139
 3013TIP3    H130454   1.874   0.516  11.062  0.1569  0.8065 -0.4966
 3013TIP3    H230455   1.778   0.571  10.959 -0.2588 -1.1686 -1.2134
 3014TIP3   OH230456   1.000   6.596  12.683 -0.0621 -0.2651  0.3556
 3014TIP3    H130457   0.972   6.563  12.598  0.5868 -1.2724  0.5153
 3014TIP3    H230458   0.957   6.681  12.691  0.3175  0.1095 -1.2158
 3015TIP3   OH230459   6.737   4.797  16.366  0.0993  0.0216 -0.0924
 3015TIP3    H130460   6.727   4.849  16.287 -0.8473 -2.0606 -1.4484
 3015TIP3    H230461   6.648   4.770  16.388  0.6180 -1.9040 -0.1348
 3016TIP3   OH230462   0.597   5.871  15.106  0.0716  0.9604 -0.9161
 3016TIP3    H130463   0.649   5.882  15.186 -0.9911  0.1281 -0.0726
 3016TIP3    H230464   0.660   5.884  15.035  2.1227 -2.5418  0.0085
 3017TIP3   OH230465   0.157   0.093  10.475  0.4486 -0.7358  0.0824
 3017TIP3    H130466   0.232   0.138  10.514  1.9823 -2.3710 -0.8644
 3017TIP3    H230467   0.189   0.060  10.391 -1.7920 -0.2059 -1.0705
 3018TIP3   OH230468   3.061   6.571   1.174  0.4648  0.4043 -0.2564
 3018TIP3    H130469   3.054   6.663   1.200 -0.1460 -0.1603  1.7917
 3018TIP3    H230470   3.144   6.542   1.211  0.2382 -0.0716 -0.1129
 3019TIP3   OH230471   2.683   3.654   0.148  0.0576  0.3011  0.5378
 3019TIP3    H130472   2.712   3.582   0.204 -0.6325  0.4921  1.1541
 3019TIP3    H230473   2.758   3.673   0.092  0.8374  0.2334  1.5326
 3020TIP3   OH230474   5.489   3.714  13.929  0.2082 -0.3073  0.5089
 3020TIP3    H130475   5.495   3.703  14.024  2.4045  1.1095  0.6151
 3020TIP3    H230476   5.405   3.758  13.916  0.6590  1.1266  2.0279
 3021TIP3   OH230477   4.430   1.679  16.168  0.2644 -0.2072  0.1177
 3021TIP3    H130478   4.342   1.671  16.130  0.6269  0.5593 -0.9386
 3021TIP3    H230479   4.421   1.748  16.234  0.4938  1.4539 -1.4873
 3022TIP3   OH230480   6.213   0.550   1.051 -0.2107  0.1476  0.1052
 3022TIP3    H130481   6.119   0.568   1.047 -0.6483 -2.0274 -1.2483
 3022TIP3    H230482   6.243   0.558   0.961  0.4949 -0.9133  0.2261
 3023TIP3   OH230483   6.240   3.207   4.992  0.3100 -0.0611  0.1535
 3023TIP3    H130484   6.229   3.301   5.002  1.3657  0.1702 -0.6489
 3023TIP3    H230485   6.328   3.189   5.026  0.6131 -0.5367 -0.8270
 3024TIP3   OH230486   4.858   0.420  16.113 -0.3954  0.1186 -0.6999
 3024TIP3    H130487   4.945   0.445  16.081  1.0154 -1.1607  1.8278
 3024TIP3    H230488   4.798   0.478  16.066  2.0065  2.8715 -0.6836
 3025TIP3   OH230489   5.793   2.553   3.245  0.2085 -0.0388 -0.8688
 3025TIP3    H130490   5.761   2.635   3.282  1.6287  0.7515 -1.3010
 3025TIP3    H230491   5.714   2.502   3.225 -0.6513  0.2901  1.4295
 3026TIP3   OH230492   4.912   4.011  16.331  0.4264 -0.5618 -0.6034
 3026TIP3    H130493   4.974   3.952  16.373  2.4271  2.0796  0.4156
 3026TIP3    H230494   4.848   4.031  16.399  0.1588 -0.9723 -0.7287
 3027TIP3   OH230495   1.630   4.723   3.412 -0.2014  0.4449  0.0842
 3027TIP3    H130496   1.635   4.665   3.489 -2.0549 -0.1941 -0.2215
 3027TIP3    H230497   1.565   4.789   3.436  0.5361  1.3315 -0.2857
 3028TIP3   OH230498   5.802   0.713  14.403  0.6403 -0.5181  0.7142
 3028TIP3    H130499   5.844   0.771  14.466 -1.3978  0.0114  1.6856
 3028TIP3    H230500   5.762   0.644  14.458 -3.3992  1.3257  0.4567
 3029TIP3   OH230501   1.922   2.030  14.956  0.2085 -0.8462  0.2872
 3029TIP3    H130502   1.837   2.072  14.947 -0.3798 -1.7954  1.2182
 3029TIP3    H230503   1.940   2.030  15.050  0.8684 -1.3507  0.1721
 3030TIP3   OH230504   6.669   2.864   4.494  0.3101  0.3209 -0.3555
 3030TIP3    H130505   6.735   2.868   4.425 -0.1874  0.0043 -0.8573
 3030TIP3    H230506   6.604   2.802   4.461 -1.4240  2.3420 -0.9147
 3031TIP3   OH230507   6.201   2.492   1.628  0.3337  0.5743 -0.0301
 3031TIP3    H130508   6.288   2.453   1.620 -0.3578 -1.1707  0.5583
 3031TIP3    H230509   6.155   2.465   1.549 -0.6330 -1.1649  1.0729
 3032TIP3   OH230510   4.050   6.559   4.794  0.0997  0.1911 -0.0288
 3032TIP3    H130511   4.135   6.515   4.805  0.1375  0.2285 -0.1611
 3032TIP3    H230512   3.985   6.490   4.809  0.1523 -0.7553 -3.2801
 3033TIP3   OH230513   1.771   6.635   1.952  0.1030  0.3497  0.6726
 3033TIP3    H130514   1.746   6.579   1.879  0.6460  1.7678 -0.6514
 3033TIP3    H230515   1.829   6.581   2.006 -0.8943 -0.9548  0.4766
 3034TIP3   OH230516   6.779   6.080   2.285 -0.1316  0.2373  0.6316
 3034TIP3    H130517   6.821   6.069   2.199 -0.2000  1.6817  0.3825
 3034TIP3    H230518   6.850   6.110   2.342 -0.7070  2.4590  0.2665
 3035TIP3   OH230519   1.165   5.208   0.957 -0.1985 -0.5290 -0.1619
 3035TIP3    H130520   1.178   5.118   0.988  2.6122 -0.6018 -1.2336
 3035TIP3    H230521   1.086   5.203   0.903 -0.8365 -2.0521  0.8274
 3036TIP3   OH230522   5.642   6.780   2.537 -0.4725  0.4098  0.2428
 3036TIP3    H130523   5.706   6.809   2.602 -0.4772  0.3576  0.2712
 3036TIP3    H230524   5.558   6.797   2.578 -0.4682 -0.5739  0.6757
 3037TIP3   OH230525   6.037   2.004   5.442  0.1887 -0.3716  0.6135
 3037TIP3    H130526   5.989   1.931   5.402  0.0694  0.1866 -0.2990
 3037TIP3    H230527   6.010   2.003   5.534 -1.1239 -0.4425  0.2517
 3038TIP3   OH230528   1.155   5.711  13.888  0.0449  0.3154 -0.2176
 3038TIP3    H130529   1.094   5.651  13.846  0.6993 -1.0664  0.7230
 3038TIP3    H230530   1.216   5.737  13.819  0.1400 -0.6230 -0.4880
 3039TIP3   OH230531   3.587   3.021  13.486  0.0972  0.0735  0.3572
 3039TIP3    H130532   3.654   3.019  13.555  0.7264  0.3738 -0.2271
 3039TIP3    H230533   3.522   3.084  13.517 -1.2411 -2.0352  2.0944
 3040TIP3   OH230534   0.826   1.274  12.948  0.6846  0.3709 -0.0435
 3040TIP3    H130535   0.740   1.285  12.907  1.3228  0.3890 -1.4567
 3040TIP3    H230536   0.808   1.258  13.041 -0.8598 -0.0999 -0.4046
 3041TIP3   OH230537   2.547   3.782   3.954 -0.3061  0.0982 -0.0129
 3041TIP3    H130538   2.500   3.798   4.035 -2.6373 -0.5576 -1.1606
 3041TIP3    H230539   2.541   3.687   3.941 -1.7664  0.3786 -1.9020
 3042TIP3   OH230540   5.452   4.030  16.807  0.2329  0.2926  0.0789
 3042TIP3    H130541   5.460   4.004  16.899  2.3197  2.8126  0.7395
 3042TIP3    H230542   5.533   3.999  16.766 -0.3644 -0.1979 -0.7598
 3043TIP3   OH230543   3.883   2.555  16.643 -0.1249 -0.3806  0.4219
 3043TIP3    H130544   3.823   2.604  16.699 -1.3925 -1.9930  0.5703
 3043TIP3    H230545   3.842   2.557  16.557  1.1534  0.9883 -0.1807
 3044TIP3   OH230546   1.199   5.998  10.824 -0.0034  0.1823 -0.0135
 3044TIP3    H130547   1.253   5.920  10.836  0.5375  0.7642  1.7040
 3044TIP3    H230548   1.115   5.975  10.863  0.1696  0.4578  0.5307
 3045TIP3   OH230549   5.089   4.570  11.777 -0.4098 -0.3643  0.7194
 3045TIP3    H130550   5.096   4.587  11.683 -1.2165 -1.1513  0.5046
 3045TIP3    H230551   5.009   4.518  11.787  1.2239 -2.8700  1.4851
 3046TIP3   OH230552   2.244   4.771  11.156  0.6221 -0.0270  0.0075
 3046TIP3    H130553   2.304   4.844  11.169 -0.8325  1.4495 -1.1228
 3046TIP3    H230554   2.223   4.774  11.062 -0.8330 -0.8072  0.2801
 3047TIP3   OH230555   2.670   0.784  14.873 -0.0766 -0.3895 -0.4491
 3047TIP3    H130556   2.688   0.865  14.826  2.4190  0.6273  1.9911
 3047TIP3    H230557   2.741   0.724  14.847 -0.2075 -0.7450 -0.0058
 3048TIP3   OH230558   1.442   0.240  11.135 -0.4564 -0.1433  0.9299
 3048TIP3    H130559   1.400   0.183  11.198 -0.3479  0.7627  1.8510
 3048TIP3    H230560   1.370   0.276  11.083 -0.6103 -0.3434  1.0044
 3049TIP3   OH230561   6.385   3.273  15.960  0.0154  0.7338 -1.0850
 3049TIP3    H130562   6.295   3.289  15.987  0.2891  1.0467 -0.3352
 3049TIP3    H230563   6.386   3.181  15.934 -0.6784  0.9102 -1.7678
 3050TIP3   OH230564   4.790   1.270  11.304 -0.5343 -0.2583  0.0747
 3050TIP3    H130565   4.793   1.326  11.382 -0.4302 -0.2680  0.0789
 3050TIP3    H230566   4.743   1.321  11.239  1.0261  0.5374 -0.4852
 3051TIP3   OH230567   0.890   3.953  15.095 -0.5008  0.0376 -0.1024
 3051TIP3    H130568   0.950   3.905  15.151 -1.0139  0.3586  0.7453
 3051TIP3    H230569   0.943   3.981  15.021  0.3840  0.2982  0.6165
 3052TIP3   OH230570   2.816   3.353  15.583 -0.0014 -0.3958 -0.1188
 3052TIP3    H130571   2.787   3.282  15.639 -2.6691  0.3885 -0.3526
 3052TIP3    H230572   2.883   3.314  15.527 -0.2304 -2.2640  0.8376
 3053TIP3   OH230573   2.357   1.117   1.434  0.2564 -0.5411 -0.1497
 3053TIP3    H130574   2.376   1.116   1.528  0.0280 -0.6197 -0.1036
 3053TIP3    H230575   2.310   1.199   1.420  1.9407  0.4076 -0.5293
 3054TIP3   OH230576   1.876   4.082   1.315 -0.1508 -0.8811  0.2040
 3054TIP3    H130577   1.818   4.133   1.371 -1.6127  0.2009 -2.1468
 3054TIP3    H230578   1.832   3.998   1.304 -0.5622 -0.5914 -0.4035
 3055TIP3   OH230579   6.038   6.461  17.169  0.0601 -0.1502  0.6330
 3055TIP3    H130580   6.082   6.428  17.247 -0.7896 -0.0349  1.1649
 3055TIP3    H230581   5.946   6.442  17.182 -0.0711 -0.3702 -0.4699
 3056TIP3   OH230582   2.634   2.798   4.499  0.2136 -0.2991  0.4788
 3056TIP3    H130583   2.705   2.836   4.447  0.5715  0.0249  1.1845
 3056TIP3    H230584   2.562   2.862   4.492  1.4338  1.5831  3.1903
 3057TIP3   OH230585   5.516   0.848   4.423  0.5204  0.1917  0.1314
 3057TIP3    H130586   5.567   0.818   4.349  0.9250 -1.2822  0.9587
 3057TIP3    H230587   5.440   0.892   4.385  0.6795 -0.6153 -1.1321
 3058TIP3   OH230588   0.947   4.917   2.428 -0.2195  0.6512 -0.3052
 3058TIP3    H130589   0.881   4.954   2.370  0.1877  0.1115 -1.1290
 3058TIP3    H230590   0.973   4.990   2.484 -0.0641  1.3888 -1.3155
 3059TIP3   OH230591   2.902   6.236  15.996  0.0509 -0.1616 -0.1419
 3059TIP3    H130592   2.922   6.253  15.904 -1.4317 -0.8900 -0.6373
 3059TIP3    H230593   2.877   6.143  15.998  0.8424 -0.3622  1.1443
 3060TIP3   OH230594   0.615   1.846   3.644  0.8718 -0.4546  0.1229
 3060TIP3    H130595   0.659   1.865   3.561 -0.0440  1.0099 -0.0747
 3060TIP3    H230596   0.626   1.752   3.657  3.4394 -0.2621 -0.2411
 3061TIP3   OH230597   5.139   0.201  12.099 -0.0851 -0.3289 -0.6688
 3061TIP3    H130598   5.139   0.106  12.084  0.4260 -0.2998 -0.8797
 3061TIP3    H230599   5.101   0.212  12.186  2.3854 -0.9351  0.5768
 3062TIP3   OH230600   2.588   4.725  13.786 -0.3507 -0.6309 -0.2295
 3062TIP3    H130601   2.648   4.792  13.820 -0.3627  0.3283 -1.9682
 3062TIP3    H230602   2.527   4.708  13.858  0.0041  0.8214  0.4500
 3063TIP3   OH230603   1.916   5.943   0.161 -0.4378  0.7181  0.1179
 3063TIP3    H130604   1.928   5.931   0.255  3.4454  0.9109 -0.1767
 3063TIP3    H230605   1.924   5.855   0.123 -2.0454  0.6299 -0.1024
 3064TIP3   OH230606   5.781   2.601   0.910 -0.5119  0.2363 -0.4179
 3064TIP3    H130607   5.831   2.683   0.913 -1.1384  0.6038  0.5649
 3064TIP3    H230608   5.741   2.594   0.996 -0.3590 -1.1971 -0.4438
 3065TIP3   OH230609   2.241   4.907  16.628  0.1515 -0.2922  0.0973
 3065TIP3    H130610   2.207   4.828  16.670 -1.3321 -1.3267 -2.7662
 3065TIP3    H230611   2.187   4.918  16.550  2.2271  1.9020 -1.1744
 3066TIP3   OH230612   4.350   2.262   0.471 -0.0476 -0.1298  0.2848
 3066TIP3    H130613   4.445   2.248   0.464  0.0742  0.5243  0.6199
 3066TIP3    H230614   4.339   2.356   0.464 -0.8215 -0.3138 -1.3329
 3067TIP3   OH230615   5.922   1.477  15.140 -0.2146  0.7310 -0.3823
 3067TIP3    H130616   5.832   1.455  15.117 -0.2610  0.2981  0.1849
 3067TIP3    H230617   5.913   1.547  15.205 -0.2246 -0.5699  1.0741
 3068TIP3   OH230618   1.699   3.039   0.890  0.3725 -0.1422 -0.0232
 3068TIP3    H130619   1.670   3.001   0.973  0.7515  0.6352  0.4856
 3068TIP3    H230620   1.732   2.965   0.839 -0.4339 -0.7137  0.2715
 3069TIP3   OH230621   2.243   6.648   1.911 -0.0374 -0.0385  0.2187
 3069TIP3    H130622   2.158   6.691   1.918 -0.6325 -0.9863 -0.7547
 3069TIP3    H230623   2.284   6.688   1.834  0.5300  0.5999  0.8346
 3070TIP3   OH230624   4.547   4.118   4.451 -0.0955 -0.3769  0.1695
 3070TIP3    H130625   4.533   4.204   4.492  1.0256 -1.0892  2.2295
 3070TIP3    H230626   4.607   4.135   4.379 -0.6390  0.7026 -0.0428
 3071TIP3   OH230627   3.147   4.995   4.884  0.0095  0.5751 -0.3575
 3071TIP3    H130628   3.198   4.928   4.929  0.2777  0.8759 -0.2129
 3071TIP3    H230629   3.212   5.057   4.851 -0.2337  0.7394 -0.5322
 3072TIP3   OH230630   1.881   6.659   4.098  0.3962 -0.1653  0.2518
 3072TIP3    H130631   1.805   6.628   4.147 -0.1517  1.6054  0.5998
 3072TIP3    H230632   1.951   6.664   4.163  0.9213 -1.9499 -0.1004
 3073TIP3   OH230633   0.727   5.482   4.520  0.1287 -0.4208  0.0694
 3073TIP3    H130634   0.794   5.417   4.499 -0.0327 -0.8685  0.8900
 3073TIP3    H230635   0.758   5.522   4.602 -0.5883 -0.6191  0.4481
 3074TIP3   OH230636   4.205   0.890  13.556  0.2842  0.3596  0.2485
 3074TIP3    H130637   4.265   0.900  13.630 -0.1082 -0.5875  0.7111
 3074TIP3    H230638   4.127   0.849  13.594 -0.4374  1.0454 -0.4530
 3075TIP3   OH230639   5.721   2.287  16.466  0.1098 -0.1115  0.3072
 3075TIP3    H130640   5.761   2.342  16.533 -1.7664  3.3450 -1.1743
 3075TIP3    H230641   5.759   2.317  16.384 -1.4836 -0.5139 -0.6208
 3076TIP3   OH230642   5.017   0.858   2.241 -0.7933 -0.0038 -0.8697
 3076TIP3    H130643   5.062   0.909   2.173  1.6693 -0.1956  0.5179
 3076TIP3    H230644   4.926   0.889   2.237  0.1826  3.1949 -1.3225
 3077TIP3   OH230645   1.718   6.507   2.303  0.2904  0.4730 -0.5300
 3077TIP3    H130646   1.678   6.442   2.361 -0.3159  0.5250 -0.8764
 3077TIP3    H230647   1.764   6.456   2.237 -0.0669  0.3869 -0.7190
 3078TIP3   OH230648   0.208   2.012  11.024  0.2391  0.5461  0.1300
 3078TIP3    H130649   0.302   1.999  11.036  0.3792  2.3942  1.4215
 3078TIP3    H230650   0.191   1.981  10.935  1.7540 -1.2346  0.3886
 3079TIP3   OH230651   5.574   2.908   4.864  0.1975 -0.2740  0.3556
 3079TIP3    H130652   5.517   2.976   4.902 -1.0727  0.5824 -2.7749
 3079TIP3    H230653   5.660   2.949   4.861 -0.7114  1.7502 -2.3317
 3080TIP3   OH230654   5.999   6.372   5.627 -0.0582  0.3893  0.3518
 3080TIP3    H130655   6.018   6.328   5.709 -0.1041  0.9817  0.6844
 3080TIP3    H230656   5.903   6.371   5.620  0.0006 -1.4914 -0.7156
 3081TIP3   OH230657   0.406   0.595  12.990 -0.3674  0.3905  0.7597
 3081TIP3    H130658   0.427   0.504  12.967  1.4153  0.8520  0.3644
 3081TIP3    H230659   0.361   0.629  12.912 -1.6621 -0.3092  1.1677
 3082TIP3   OH230660   2.967   3.790  12.824 -0.7406 -0.3108 -0.0357
 3082TIP3    H130661   2.925   3.871  12.795  0.0395  0.2282  0.3185
 3082TIP3    H230662   2.989   3.744  12.743 -3.1316 -1.2316 -0.2531
 3083TIP3   OH230663   1.469   5.121  14.697 -0.5384 -0.2217  0.0505
 3083TIP3    H130664   1.401   5.164  14.645 -0.0477  1.1528  0.5282
 3083TIP3    H230665   1.520   5.072  14.633 -0.7250  0.4073 -0.5939
 3084TIP3   OH230666   5.644   3.186   1.612  0.4669 -0.3889 -0.1327
 3084TIP3    H130667   5.727   3.183   1.660 -0.5732 -0.7232  1.7721
 3084TIP3    H230668   5.586   3.237   1.668 -0.2768  1.0048 -2.0654
 3085TIP3   OH230669   3.642   5.703   5.139 -0.3232 -0.1492  0.0937
 3085TIP3    H130670   3.619   5.796   5.134 -1.4508 -0.4543 -1.1191
 3085TIP3    H230671   3.686   5.693   5.223 -1.5849  1.1934  0.9533
 3086TIP3   OH230672   5.114   6.459   2.033  0.6246  0.4137 -0.6066
 3086TIP3    H130673   5.077   6.543   2.063  1.4645 -0.0302  1.9076
 3086TIP3    H230674   5.207   6.477   2.022  0.6640  0.0219 -0.9167
 3087TIP3   OH230675   0.125   1.050   4.339  0.3026  0.1753  0.0871
 3087TIP3    H130676   0.142   0.956   4.335 -0.7358  0.0179 -2.6503
 3087TIP3    H230677   0.170   1.086   4.263  1.0586  2.0049  1.3264
 3088TIP3   OH230678   6.076   2.841   2.778 -0.5021  0.5588  0.1021
 3088TIP3    H130679   6.126   2.872   2.854 -0.5246 -2.3412  1.4117
 3088TIP3    H230680   6.116   2.887   2.704  3.8687 -1.1504  1.0851
 3089TIP3   OH230681   1.734   6.241   5.548 -0.5242  0.5508 -0.3914
 3089TIP3    H130682   1.712   6.205   5.462  0.0920 -3.2089  0.8640
 3089TIP3    H230683   1.678   6.193   5.609  1.7572  0.3232  1.6450
 3090TIP3   OH230684   2.457   4.554   1.961 -0.2447  0.0218 -0.0305
 3090TIP3    H130685   2.527   4.598   2.009 -0.6812 -0.0080  0.6345
 3090TIP3    H230686   2.407   4.625   1.921  2.0230  0.0492 -3.3069
 3091TIP3   OH230687   2.942   5.847   5.353  0.3677 -0.0085 -0.5360
 3091TIP3    H130688   2.883   5.901   5.406 -0.2903 -1.6945  0.5554
 3091TIP3    H230689   2.905   5.850   5.265 -0.4262  0.2838 -0.2073
 3092TIP3   OH230690   0.352   4.582   0.868  0.0599  0.2304 -0.0691
 3092TIP3    H130691   0.393   4.652   0.818 -0.0673  1.2429  1.1989
 3092TIP3    H230692   0.399   4.580   0.951 -0.7021 -0.3904  0.3692
 3093TIP3   OH230693   1.375   5.816  11.032  0.1815 -0.0126 -0.3427
 3093TIP3    H130694   1.368   5.778  10.945 -0.3391  0.0767 -0.3460
 3093TIP3    H230695   1.285   5.819  11.064 -0.1124  3.0778 -1.1475
 3094TIP3   OH230696   5.723   6.190   0.770  0.0271  0.3994  0.3795
 3094TIP3    H130697   5.649   6.129   0.773 -0.8696  1.1899 -2.6933
 3094TIP3    H230698   5.684   6.276   0.787  0.6706  0.5648  1.0738
 3095TIP3   OH230699   0.314   6.635   5.002  0.1002 -0.7015 -0.2427
 3095TIP3    H130700   0.402   6.617   4.970  0.4997  0.1093  0.3566
 3095TIP3    H230701   0.320   6.722   5.041 -1.1337 -0.3456 -0.7866
 3096TIP3   OH230702   6.377   2.855  15.595 -0.2999  0.2257  0.6350
 3096TIP3    H130703   6.449   2.871  15.533  0.3409 -1.3998  0.8971
 3096TIP3    H230704   6.304   2.826  15.540 -0.3736  0.6818  0.4828
 3097TIP3   OH230705   4.556   5.849  10.900 -0.7726  0.1695  0.2196
 3097TIP3    H130706   4.612   5.831  10.825 -0.0768  1.4158  0.4232
 3097TIP3    H230707   4.467   5.832  10.868 -0.3349 -1.5960 -0.1689
 3098TIP3   OH230708   3.909   2.398  15.049  0.3949 -0.6921 -0.5836
 3098TIP3    H130709   3.964   2.427  15.122  1.6293 -1.9145 -0.9867
 3098TIP3    H230710   3.923   2.464  14.981 -0.9609  0.5967  0.3107
 3099TIP3   OH230711   0.294   3.466  13.616  0.3301  0.0045  0.1475
 3099TIP3    H130712   0.254   3.382  13.596  0.6661 -0.1237  0.0082
 3099TIP3    H230713   0.220   3.525  13.633 -0.0001  0.1656 -1.6354
 3100TIP3   OH230714   1.254   0.374   6.002  0.0317 -0.0297 -0.3811
 3100TIP3    H130715   1.189   0.380   6.072  0.3589 -2.4050  0.2130
 3100TIP3    H230716   1.321   0.439   6.026  0.8101 -1.6704  2.3430
 3101TIP3   OH230717   6.064   5.707   4.326 -0.6627  0.0235 -0.0946
 3101TIP3    H130718   6.159   5.704   4.324 -0.6310  0.3642  0.7030
 3101TIP3    H230719   6.042   5.800   4.315 -0.8643  0.0974  0.8875
 3102TIP3   OH230720   6.649   1.151  10.927  0.4651 -0.2910 -0.2799
 3102TIP3    H130721   6.733   1.189  10.950 -0.3143  1.4710 -0.1783
 3102TIP3    H230722   6.628   1.188  10.841 -0.4119 -0.2984 -0.0850
 3103TIP3   OH230723   5.106   3.214   1.216 -0.6534  0.6706  0.3596
 3103TIP3    H130724   5.077   3.147   1.278 -1.4918 -0.0670 -0.7901
 3103TIP3    H230725   5.069   3.295   1.250  0.6991  0.6523  1.9911
 3104TIP3   OH230726   3.724   3.292   3.331  0.5317 -0.1311  0.3133
 3104TIP3    H130727   3.736   3.240   3.410 -1.8968  3.3915  3.3229
 3104TIP3    H230728   3.773   3.373   3.347 -2.2825  1.8635 -0.3806
 3105TIP3   OH230729   6.151   0.360  12.771  0.5016  0.0878  0.0841
 3105TIP3    H130730   6.062   0.337  12.743  0.2615 -0.3527  1.1787
 3105TIP3    H230731   6.173   0.436  12.718 -0.6652  0.4178  0.0332
 3106TIP3   OH230732   4.174   2.569   0.651  0.3317 -0.0332  0.2353
 3106TIP3    H130733   4.146   2.650   0.695  0.9825 -1.2297  3.0852
 3106TIP3    H230734   4.124   2.568   0.570 -2.9523  1.1477  2.0323
 3107TIP3   OH230735   3.013   1.256   1.559  0.1334  0.2839  0.3249
 3107TIP3    H130736   2.976   1.340   1.535  0.8992  0.6735  0.4894
 3107TIP3    H230737   3.105   1.274   1.579  0.4254 -0.6587 -0.0818
 3108TIP3   OH230738   1.505   0.500   0.685 -0.3281 -0.6140  0.2294
 3108TIP3    H130739   1.571   0.483   0.753 -1.2716 -1.3561  0.9832
 3108TIP3    H230740   1.515   0.428   0.623 -1.0775 -1.2688  0.8612
 3109TIP3   OH230741   2.758   3.000  14.839 -0.0780  0.4620 -0.3225
 3109TIP3    H130742   2.739   2.938  14.769  1.4514  0.4223 -0.7416
 3109TIP3    H230743   2.677   3.006  14.889 -1.2131  0.4609 -2.0706
 3110TIP3   OH230744   0.659   2.346  12.156  0.0590  0.1769  0.0575
 3110TIP3    H130745   0.746   2.352  12.117 -0.2978  1.5083 -0.5723
 3110TIP3    H230746   0.673   2.297  12.238  1.2731 -0.1927 -0.3476
 3111TIP3   OH230747   4.981   5.074   3.688  0.0119 -0.3703  0.1945
 3111TIP3    H130748   4.924   5.013   3.735 -0.6834 -0.9514 -1.3302
 3111TIP3    H230749   4.929   5.155   3.681 -1.5141 -1.4851 -2.8428
 3112TIP3   OH230750   3.529   1.344  16.550  0.3719 -0.4783  0.3583
 3112TIP3    H130751   3.611   1.302  16.576 -0.6547 -2.1955  0.9448
 3112TIP3    H230752   3.542   1.367  16.458  1.5583 -0.5465  0.4932
 3113TIP3   OH230753   0.519   1.986   4.326  0.5413  0.1073 -0.1485
 3113TIP3    H130754   0.540   2.079   4.332  1.2993 -0.0597 -0.0658
 3113TIP3    H230755   0.424   1.983   4.312  0.5263  0.8915 -0.2497
 3114TIP3   OH230756   3.301   5.381  11.465 -1.2802 -0.4010  0.3753
 3114TIP3    H130757   3.206   5.380  11.452 -1.4986  0.1798  1.7391
 3114TIP3    H230758   3.338   5.365  11.378 -2.6237 -1.0879 -0.0909
 3115TIP3   OH230759   2.792   3.571  13.892 -0.0169  0.6678  0.0190
 3115TIP3    H130760   2.825   3.482  13.899 -0.7060  0.4554  0.5881
 3115TIP3    H230761   2.699   3.561  13.870 -0.3274  1.2233  1.0194
 3116TIP3   OH230762   3.227   6.598   3.710  0.0902 -0.8259 -0.1827
 3116TIP3    H130763   3.254   6.687   3.687 -1.1560 -0.3732  0.0494
 3116TIP3    H230764   3.136   6.591   3.681  0.4082 -2.3161 -0.9546
 3117TIP3   OH230765   3.372   5.995   0.850 -0.2016  0.5095  0.2008
 3117TIP3    H130766   3.367   6.086   0.821  1.1434  0.0262 -1.7809
 3117TIP3    H230767   3.307   5.988   0.920 -0.6521  2.8570  0.0979
 3118TIP3   OH230768   2.884   4.319  15.356 -0.5807 -0.1975  0.5421
 3118TIP3    H130769   2.944   4.256  15.396 -0.9052  0.4422  2.1098
 3118TIP3    H230770   2.856   4.374  15.428  0.5951  2.5271 -0.9268
 3119TIP3   OH230771   3.376   6.199  14.912  0.2425  0.5369 -0.2832
 3119TIP3    H130772   3.323   6.247  14.975 -0.3420  0.5579 -0.7791
 3119TIP3    H230773   3.467   6.218  14.937  0.0902 -1.1169  1.8380
 3120TIP3   OH230774   2.301   1.099   5.329 -0.1305 -0.3873  0.1520
 3120TIP3    H130775   2.289   1.122   5.421  0.2171  0.1480  0.0667
 3120TIP3    H230776   2.213   1.097   5.292 -0.2765 -0.6826  0.5139
 3121TIP3   OH230777   1.903   0.079  16.993  0.6079 -0.8417 -0.6056
 3121TIP3    H130778   1.985   0.052  16.951 -0.7570 -1.1982 -3.2481
 3121TIP3    H230779   1.856  -0.003  17.010 -0.2162 -0.5508 -1.3884
 3122TIP3   OH230780   4.759   5.374   5.505 -0.4856  0.4047 -0.4204
 3122TIP3    H130781   4.684   5.336   5.551 -1.1555  1.0379 -0.9623
 3122TIP3    H230782   4.747   5.469   5.514 -0.2866  0.5263 -1.3636
 3123TIP3   OH230783   5.034   5.609  12.420  0.3708  0.1930 -0.2445
 3123TIP3    H130784   5.123   5.594  12.390 -0.2082 -1.9469 -1.0389
 3123TIP3    H230785   4.998   5.672  12.357  0.5290 -0.9437 -1.5118
 3124TIP3   OH230786   6.361   3.904   5.738  0.1772  0.5178  0.5805
 3124TIP3    H130787   6.445   3.941   5.767 -0.1232 -0.2562  2.6136
 3124TIP3    H230788   6.374   3.810   5.741 -1.0087  0.3612  1.8226
 3125TIP3   OH230789   3.012   2.516   0.028 -0.5040 -0.2659 -0.3769
 3125TIP3    H130790   3.090   2.479  -0.013 -0.2635  1.0171 -1.1111
 3125TIP3    H230791   3.007   2.473   0.113  0.2760 -1.2987 -0.8345
 3126TIP3   OH230792   1.088   0.809   4.365 -0.1814 -0.1648  0.0008
 3126TIP3    H130793   1.146   0.794   4.440 -0.4981  0.1049  0.3007
 3126TIP3    H230794   1.124   0.885   4.321 -1.1805  0.9723  1.0703
 3127TIP3   OH230795   5.594   3.411   5.622 -0.0968  0.0766 -0.7508
 3127TIP3    H130796   5.650   3.408   5.699 -1.6032 -0.9919  0.3610
 3127TIP3    H230797   5.584   3.504   5.602 -2.3283  0.7035  2.4304
 3128TIP3   OH230798   0.818   0.091   3.868 -0.3220  0.4557  0.0974
 3128TIP3    H130799   0.774   0.162   3.821 -3.4658 -0.7732  0.9181
 3128TIP3    H230800   0.747   0.044   3.912  1.7349 -2.5754  0.4581
 3129TIP3   OH230801   6.430   2.306  13.141  0.0793  0.2807  0.2109
 3129TIP3    H130802   6.404   2.329  13.052  1.2293 -0.3036 -0.3054
 3129TIP3    H230803   6.357   2.335  13.196 -1.4784 -0.9757 -1.0908
 3130TIP3   OH230804   1.779   5.159   1.638 -0.8223  0.0526  0.2117
 3130TIP3    H130805   1.691   5.121   1.639 -0.5654 -0.5510  0.4005
 3130TIP3    H230806   1.782   5.213   1.559 -1.3235 -0.0078  0.1500
 3131TIP3   OH230807   1.471   6.563  15.967 -0.3738  0.0484  0.0880
 3131TIP3    H130808   1.492   6.570  16.060 -2.9186 -1.2319  0.8695
 3131TIP3    H230809   1.455   6.653  15.939 -0.1902  0.3938  1.0546
 3132TIP3   OH230810   6.640   0.436   3.957  0.9488 -0.0686  0.1786
 3132TIP3    H130811   6.655   0.458   3.865  1.9647 -0.8272  0.1489
 3132TIP3    H230812   6.720   0.464   4.001  0.4153  0.4065  0.8611
 3133TIP3   OH230813   2.898   3.649  11.366 -0.7460 -0.0218  0.5035
 3133TIP3    H130814   2.891   3.605  11.282 -0.0808 -0.1838  0.5286
 3133TIP3    H230815   2.829   3.715  11.364 -1.5055 -0.7995  0.3117
 3134TIP3   OH230816   5.626   3.921   1.835  0.1271 -0.3324 -0.5361
 3134TIP3    H130817   5.676   3.859   1.889  0.3089 -0.3347 -0.7074
 3134TIP3    H230818   5.659   4.007   1.860 -1.8055 -0.1091  1.4750
 3135TIP3   OH230819   3.832   4.823   1.828 -0.4381 -0.1302  0.4149
 3135TIP3    H130820   3.833   4.812   1.733  2.1650 -3.5892  0.6196
 3135TIP3    H230821   3.860   4.913   1.843  0.9680 -0.0562 -2.1272
 3136TIP3   OH230822   0.887   2.244   1.058 -0.4304 -0.7628 -0.4834
 3136TIP3    H130823   0.876   2.338   1.073 -2.3662 -1.0294  0.0264
 3136TIP3    H230824   0.827   2.203   1.119 -0.2946 -2.3140 -1.3561
 3137TIP3   OH230825   5.905   6.472   3.188 -0.4624  0.0724 -0.4003
 3137TIP3    H130826   5.885   6.414   3.114  0.9126  1.0331 -1.5774
 3137TIP3    H230827   5.983   6.433   3.228 -1.3490 -0.5885  0.7479
 3138TIP3   OH230828   5.853   5.413  11.723 -0.3131  0.2266  0.1436
 3138TIP3    H130829   5.822   5.418  11.632  0.0943 -0.6439 -0.0570
 3138TIP3    H230830   5.779   5.444  11.775  0.6403  4.3921 -0.6262
 3139TIP3   OH230831   2.641   2.174  11.777 -0.1750  0.6110  0.4119
 3139TIP3    H130832   2.705   2.141  11.714 -1.8178 -1.8829 -0.1026
 3139TIP3    H230833   2.573   2.215  11.724  0.4114  2.2922  0.8898
 3140TIP3   OH230834   6.364   4.608   1.097  0.2905  0.1420 -0.3436
 3140TIP3    H130835   6.428   4.549   1.057 -0.5091 -0.2005 -1.1502
 3140TIP3    H230836   6.282   4.559   1.095 -0.0287  0.6313  0.5492
 3141TIP3   OH230837   1.544   6.340  10.349 -0.1245 -0.2312 -0.2130
 3141TIP3    H130838   1.495   6.288  10.285 -1.2073 -0.0485  0.4424
 3141TIP3    H230839   1.476   6.382  10.402  0.7553  0.1181  0.6533
 3142TIP3   OH230840   0.456   3.495   4.630 -0.5951 -0.1164  0.5058
 3142TIP3    H130841   0.405   3.573   4.607  0.3912 -0.1026 -2.0140
 3142TIP3    H230842   0.528   3.529   4.682 -0.2729  0.6839 -0.4138
 3143TIP3   OH230843   3.036   5.974   3.110  0.2702  0.0871  0.0561
 3143TIP3    H130844   3.007   6.010   3.194 -0.3264 -2.1330  0.8630
 3143TIP3    H230845   3.090   6.043   3.072 -1.6248  2.2403  0.9947
 3144TIP3   OH230846   6.119   0.281   2.998  0.3119 -0.0672 -0.3576
 3144TIP3    H130847   6.035   0.325   2.982 -0.4956 -1.8285 -1.2546
 3144TIP3    H230848   6.129   0.284   3.093  0.1893  1.7879 -0.3605
 3145TIP3   OH230849   5.158   1.961  16.293 -0.0681  0.1774  0.2107
 3145TIP3    H130850   5.222   1.890  16.305  0.8456  0.6654 -1.4716
 3145TIP3    H230851   5.187   2.029  16.354  0.1607 -0.1640  0.4905
 3146TIP3   OH230852   0.424   2.474  13.866  0.7934 -0.0539  0.0237
 3146TIP3    H130853   0.439   2.522  13.784 -0.3305 -0.8078 -0.6410
 3146TIP3    H230854   0.441   2.539  13.935  2.4484  0.4039 -0.7589
 3147TIP3   OH230855   0.981   3.755   3.160  0.3112 -0.6014  0.0807
 3147TIP3    H130856   0.948   3.812   3.091  0.3936  0.4156  0.8529
 3147TIP3    H230857   0.948   3.669   3.138 -0.5096 -0.1075 -0.6822
 3148TIP3   OH230858   2.138   4.508  15.434 -0.1048  0.0917  0.1581
 3148TIP3    H130859   2.188   4.493  15.514  0.1093 -0.3134 -0.0476
 3148TIP3    H230860   2.104   4.597  15.443  2.1523  1.1148 -0.4658
 3149TIP3   OH230861   5.285   3.036  15.452 -0.2204  0.8076  0.5514
 3149TIP3    H130862   5.212   2.999  15.402  0.1948  1.4580 -0.5888
 3149TIP3    H230863   5.247   3.059  15.537 -0.7837 -0.9902  0.8318
 3150TIP3   OH230864   0.805   5.432  11.388  0.3243 -0.0800  0.4819
 3150TIP3    H130865   0.889   5.433  11.434  0.2493 -0.0559  0.6194
 3150TIP3    H230866   0.799   5.345  11.350  1.4581  0.6130 -1.4550
 3151TIP3   OH230867   0.541   3.704   3.812  0.8299 -0.2690 -0.3031
 3151TIP3    H130868   0.463   3.662   3.776 -0.6406  2.2304 -0.2296
 3151TIP3    H230869   0.582   3.636   3.866 -1.8205 -1.3709  0.4480
 3152TIP3   OH230870   1.658   1.720   2.709 -0.0924 -1.1090 -0.0359
 3152TIP3    H130871   1.706   1.779   2.766 -2.0018  1.4646 -0.8845
 3152TIP3    H230872   1.724   1.662   2.672  1.7794 -0.0177  1.4547
 3153TIP3   OH230873   6.366   0.902  12.462  0.3122  0.0832  0.4572
 3153TIP3    H130874   6.275   0.875  12.449  0.6477 -1.2808  0.8140
 3153TIP3    H230875   6.407   0.891  12.376  0.4693 -0.6395  0.6231
 3154TIP3   OH230876   3.496   2.387   1.662 -0.2523 -0.1595  0.5577
 3154TIP3    H130877   3.582   2.357   1.633  0.2125  0.4402  1.3115
 3154TIP3    H230878   3.496   2.481   1.644 -0.2100  0.0980  1.8706
 3155TIP3   OH230879   5.182   1.729   2.258  0.0332 -0.3298  0.5624
 3155TIP3    H130880   5.155   1.759   2.345  0.4067  1.5048  0.1041
 3155TIP3    H230881   5.110   1.674   2.227  0.6334 -2.4757  2.6800
 3156TIP3   OH230882   4.990   3.943  11.456  0.3221 -0.0084 -0.0951
 3156TIP3    H130883   4.954   3.889  11.386  1.9182 -1.5928  0.2227
 3156TIP3    H230884   5.007   3.882  11.528  1.4060  1.0494  0.6043
 3157TIP3   OH230885   0.944   0.277   4.050  0.3458 -0.0379 -0.3295
 3157TIP3    H130886   0.936   0.318   3.964  0.5567  2.9716  0.9570
 3157TIP3    H230887   0.922   0.185   4.035  1.8047  0.0235 -3.8264
 3158TIP3   OH230888   3.297   5.992  12.917  0.2973  0.2106 -0.1981
 3158TIP3    H130889   3.273   5.914  12.968 -0.2872  1.4502  1.4761
 3158TIP3    H230890   3.297   5.961  12.826 -4.6505 -0.7008 -0.1627
 3159TIP3   OH230891   0.118   0.039  14.687  0.3982 -0.0836  0.2000
 3159TIP3    H130892   0.042   0.097  14.683  0.3361 -0.1390  0.6036
 3159TIP3    H230893   0.140   0.033  14.780  0.3368 -0.7942  0.1723
 3160TIP3   OH230894   1.700   2.740  12.032  0.3410  0.7388 -0.1931
 3160TIP3    H130895   1.688   2.661  11.979  2.3031 -0.0687  0.4442
 3160TIP3    H230896   1.763   2.792  11.982  0.9339  0.7294  0.5219
 3161TIP3   OH230897   5.731   2.019   5.589 -0.4547 -0.3282  0.3071
 3161TIP3    H130898   5.744   1.935   5.544 -0.1569 -0.2358  0.2174
 3161TIP3    H230899   5.746   1.999   5.682 -1.8914 -0.6988  0.4841
 3162TIP3   OH230900   3.558   3.093  12.939  0.2306 -0.3933 -0.5186
 3162TIP3    H130901   3.532   3.063  13.026 -1.7837 -0.8570 -1.2416
 3162TIP3    H230902   3.524   3.182  12.933  1.9190  0.3195 -0.2219
 3163TIP3   OH230903   3.377   0.833   3.051  0.1493  0.3968  0.1147
 3163TIP3    H130904   3.383   0.920   3.090 -0.7107 -0.0312  1.2906
 3163TIP3    H230905   3.320   0.843   2.976  2.7066  1.4607 -1.8279
 3164TIP3   OH230906   2.116   1.767  14.871 -0.2961 -0.3108  0.6877
 3164TIP3    H130907   2.081   1.705  14.934 -1.2267 -0.1039  0.3816
 3164TIP3    H230908   2.041   1.792  14.817  0.0540  1.0755  0.8017
 3165TIP3   OH230909   5.711   6.682  14.157  0.1133  0.2002  0.4067
 3165TIP3    H130910   5.622   6.692  14.123  0.0405 -0.0384  0.5279
 3165TIP3    H230911   5.714   6.741  14.232 -0.1706 -0.3247  0.8388
 3166TIP3   OH230912   2.131   3.703   4.352  0.7249  0.5383 -0.1886
 3166TIP3    H130913   2.221   3.718   4.382  0.3635  0.1368  1.1757
 3166TIP3    H230914   2.093   3.791   4.344  1.0556  0.6844 -0.1582
 3167TIP3   OH230915   3.090   4.692  10.885 -0.2219  0.0053 -0.5497
 3167TIP3    H130916   3.021   4.626  10.874 -0.3028  0.3106 -2.1430
 3167TIP3    H230917   3.135   4.692  10.801  1.4147  0.1806  0.2999
 3168TIP3   OH230918   2.187   5.171  15.169  0.0928 -0.1491  0.4248
 3168TIP3    H130919   2.248   5.244  15.170 -0.1386  0.0556  0.0141
 3168TIP3    H230920   2.175   5.151  15.076 -1.4481  0.6519  0.4129
 3169TIP3   OH230921   0.954   1.061  16.433  0.3888 -0.6229 -0.3447
 3169TIP3    H130922   1.033   1.035  16.385  0.8273 -0.4153  0.2477
 3169TIP3    H230923   0.984   1.070  16.524 -0.6339 -1.9776  0.1585
 3170TIP3   OH230924   0.668   1.664  15.250 -0.0764  0.1621 -0.7158
 3170TIP3    H130925   0.635   1.628  15.168  0.2694 -0.8668 -0.4211
 3170TIP3    H230926   0.614   1.623  15.318  0.2348  0.3138 -0.3700
 3171TIP3   OH230927   5.775   6.072   3.120 -0.0427  0.0092  0.0496
 3171TIP3    H130928   5.780   6.146   3.058  0.2015 -0.3311 -0.3411
 3171TIP3    H230929   5.703   6.018   3.086 -0.3625  0.1742  0.4574
 3172TIP3   OH230930   0.587   2.350   6.432 -0.2038 -0.0494  0.0734
 3172TIP3    H130931   0.547   2.425   6.475 -1.1969 -0.1061 -0.7359
 3172TIP3    H230932   0.563   2.275   6.487  1.2780  0.2600  1.2086
 3173TIP3   OH230933   0.373   4.114   3.856 -0.4168  0.4088 -0.1459
 3173TIP3    H130934   0.408   4.171   3.925 -0.3776 -0.9731  1.0138
 3173TIP3    H230935   0.278   4.122   3.865 -0.4100  0.7166 -0.3475
 3174TIP3   OH230936   3.424   2.911  11.427  0.0575 -0.0783 -0.4639
 3174TIP3    H130937   3.442   3.002  11.448 -1.1512  0.3492 -1.1975
 3174TIP3    H230938   3.352   2.914  11.364 -1.3432 -1.5942  0.9430
 3175TIP3   OH230939   4.107   1.466  11.726  0.1673 -0.1229  0.6875
 3175TIP3    H130940   4.030   1.522  11.722 -0.4674 -0.9118  1.5448
 3175TIP3    H230941   4.104   1.415  11.645 -0.8401 -0.9567  1.2426
 3176TIP3   OH230942   4.015   3.323   3.966 -0.4860  0.1356  0.2288
 3176TIP3    H130943   4.098   3.339   4.011 -0.5519  0.7256  0.1459
 3176TIP3    H230944   3.990   3.408   3.931 -1.2158  0.0005  0.4053
 3177TIP3   OH230945   5.579   6.765  13.364  0.1235 -0.2221  0.1053
 3177TIP3    H130946   5.525   6.763  13.285  0.0883  1.8837  0.0236
 3177TIP3    H230947   5.664   6.731  13.336  0.8317  2.5930 -1.4914
 3178TIP3   OH230948   4.886   0.216  12.638  0.3830  0.1309  0.2976
 3178TIP3    H130949   4.923   0.298  12.670  2.0127 -0.0586 -0.9623
 3178TIP3    H230950   4.792   0.230  12.639  0.5865  1.6645  1.0065
 3179TIP3   OH230951   6.456   2.652  11.791  0.0941  0.4400 -0.3957
 3179TIP3    H130952   6.408   2.672  11.711 -1.1369  0.3262  0.2867
 3179TIP3    H230953   6.388   2.645  11.858  0.9554 -0.9402  0.3788
 3180TIP3   OH230954   3.412   5.884   3.907  0.3503 -0.3665  0.9399
 3180TIP3    H130955   3.496   5.856   3.944  0.3493  0.8759  1.9618
 3180TIP3    H230956   3.435   5.924   3.823  0.5408 -1.7700  0.2995
 3181TIP3   OH230957   2.473   4.422   5.359  0.1720 -0.2522 -0.1126
 3181TIP3    H130958   2.381   4.414   5.385 -0.0279 -1.0667 -1.0218
 3181TIP3    H230959   2.470   4.454   5.269  0.8480  2.5267  0.7470
 3182TIP3   OH230960   3.981   6.406   3.970  0.0669 -0.0688  0.3310
 3182TIP3    H130961   4.035   6.371   3.900 -0.5517 -0.0636 -0.1633
 3182TIP3    H230962   3.893   6.371   3.952  0.3576 -2.1759  2.5428
 3183TIP3   OH230963   0.015   0.639  12.186  0.1591  0.2765  0.2072
 3183TIP3    H130964   0.072   0.588  12.127  0.0850  1.1933 -0.6941
 3183TIP3    H230965  -0.016   0.576  12.250 -0.5660 -0.9953 -1.3369
 3184TIP3   OH230966   2.039   1.845   5.899 -0.4420  0.3065  0.0553
 3184TIP3    H130967   2.124   1.804   5.881 -0.5222 -0.3491  1.0671
 3184TIP3    H230968   1.993   1.843   5.816 -0.6944 -2.2735  0.1991
 3185TIP3   OH230969   4.212   0.900  16.634 -0.1837 -0.3045 -0.2394
 3185TIP3    H130970   4.151   0.920  16.705 -0.7228  0.2812 -0.8510
 3185TIP3    H230971   4.272   0.836  16.672 -0.0797  0.4524  0.9398
 3186TIP3   OH230972   0.596   0.704   6.061  0.0722  0.4665 -0.8055
 3186TIP3    H130973   0.512   0.701   6.105  0.4575 -0.8116 -0.0953
 3186TIP3    H230974   0.604   0.795   6.030  0.2679  1.8299  2.7412
 3187TIP3   OH230975   3.790   4.535  11.252 -0.3630  0.3121 -0.0510
 3187TIP3    H130976   3.742   4.618  11.247  0.4945  0.7425 -2.7397
 3187TIP3    H230977   3.864   4.555  11.311 -2.3443  0.1528  2.6666
 3188TIP3   OH230978   3.856   2.844  13.845  0.3900  1.1524  0.3295
 3188TIP3    H130979   3.906   2.764  13.830  0.1813  1.4791 -2.7013
 3188TIP3    H230980   3.818   2.832  13.932 -0.6543 -2.6366 -0.4408
 3189TIP3   OH230981   0.575   4.201   1.467  0.0915  0.4425  0.1656
 3189TIP3    H130982   0.575   4.219   1.561  1.9856  0.1814  0.2453
 3189TIP3    H230983   0.494   4.152   1.452  0.2070 -0.3086  1.8218
 3190TIP3   OH230984   5.585   4.749   1.627  0.1698 -0.5586  0.1085
 3190TIP3    H130985   5.564   4.824   1.682  0.0873 -1.2619  1.0723
 3190TIP3    H230986   5.588   4.783   1.538 -0.1886  0.5098  0.5016
 3191TIP3   OH230987   3.094   0.053   3.260 -0.2083 -0.1190  0.2466
 3191TIP3    H130988   3.027   0.043   3.328 -0.7707 -0.4249 -0.3364
 3191TIP3    H230989   3.066   0.130   3.211 -0.6866 -0.8203 -0.6023
 3192TIP3   OH230990   2.710   0.105  12.854 -0.5213  0.0615  0.3011
 3192TIP3    H130991   2.660   0.043  12.801 -0.9844  0.7644 -0.0996
 3192TIP3    H230992   2.664   0.188  12.843  0.7398  0.7315 -0.1123
 3193TIP3   OH230993   5.426   6.141   2.371 -0.6189 -0.3309  0.3197
 3193TIP3    H130994   5.400   6.230   2.390 -0.4632  0.1441 -1.4843
 3193TIP3    H230995   5.483   6.149   2.294 -0.6678 -1.9751  0.0758
 3194TIP3   OH230996   1.653   2.749   5.247 -0.1067  0.1090  0.3281
 3194TIP3    H130997   1.686   2.808   5.314  1.0380  2.2034 -1.9486
 3194TIP3    H230998   1.614   2.806   5.181  0.7666 -1.6427 -1.8525
 3195TIP3   OH230999   2.572   2.918   2.651  0.1733 -0.6402  0.1332
 3195TIP3    H131000   2.493   2.956   2.611 -0.6615 -2.7153 -0.2909
 3195TIP3    H231001   2.642   2.976   2.622 -1.1396  1.1662  0.3661
 3196TIP3   OH231002   2.656   4.859   0.209 -0.5504 -0.3378  0.1107
 3196TIP3    H131003   2.679   4.783   0.156  0.0418  0.1718 -0.3786
 3196TIP3    H231004   2.688   4.934   0.158 -1.6231  0.2737  0.3078
 3197TIP3   OH231005   2.478   0.142  15.822  0.2435  0.4427  0.1602
 3197TIP3    H131006   2.406   0.086  15.794  1.0166 -0.6266  0.2560
 3197TIP3    H231007   2.468   0.222  15.771 -1.1356  0.4007  0.3457
 3198TIP3   OH231008   2.068   5.026   4.710 -0.2322 -0.1530 -0.4291
 3198TIP3    H131009   2.033   5.071   4.633  0.1651 -0.8825 -1.0556
 3198TIP3    H231010   2.160   5.053   4.713  0.1163 -1.2346 -1.0580
 3199TIP3   OH231011   2.485   5.988   5.523 -0.1971 -0.2089  0.3276
 3199TIP3    H131012   2.536   5.907   5.531  0.0124 -0.1026  0.1165
 3199TIP3    H231013   2.456   5.988   5.432 -0.0810  0.0201  0.2902
 3200TIP3   OH231014   4.011   0.221  16.901  0.2443  0.1957 -0.1107
 3200TIP3    H131015   4.021   0.148  16.840 -1.9175 -0.4849  0.2694
 3200TIP3    H231016   3.935   0.269  16.869 -1.4466 -0.6248  2.4181
 3201TIP3   OH231017   3.918   4.158  10.300  0.2117 -0.0787 -0.4405
 3201TIP3    H131018   3.890   4.092  10.237  0.1535 -1.8847  1.3695
 3201TIP3    H231019   4.008   4.133  10.322 -0.8540 -1.7215  2.7162
 3202TIP3   OH231020   3.398   1.638   3.514 -0.0030 -0.3315 -0.3518
 3202TIP3    H131021   3.378   1.720   3.468 -0.0301 -1.2057 -1.9667
 3202TIP3    H231022   3.328   1.578   3.488 -0.3179 -0.7358  1.2686
 3203TIP3   OH231023   5.876   0.865  14.022  0.3836  0.1283  0.2519
 3203TIP3    H131024   5.799   0.904  14.063 -0.4062 -0.7156 -0.3909
 3203TIP3    H231025   5.919   0.816  14.092  0.6503  1.0457  0.7433
 3204TIP3   OH231026   0.976   0.082  12.652  0.2767  0.3511 -1.0673
 3204TIP3    H131027   1.006   0.100  12.564  2.2117 -0.6404 -0.6646
 3204TIP3    H231028   1.056   0.080  12.705 -0.7386 -0.0314  0.5223
 3205TIP3   OH231029   0.585   3.370   2.188  0.0899 -0.2767 -0.1160
 3205TIP3    H131030   0.675   3.374   2.155  0.7797  0.8616  1.7951
 3205TIP3    H231031   0.583   3.292   2.243 -0.8377 -1.7054 -2.0366
 3206TIP3   OH231032   4.297   0.392  15.919  0.2986  0.6847  0.0437
 3206TIP3    H131033   4.203   0.384  15.904 -0.0609 -0.7166  2.5056
 3206TIP3    H231034   4.331   0.304  15.904  0.9173  0.7846  0.7897
 3207TIP3   OH231035   2.812   3.088  15.703  0.2150 -0.1800 -1.0683
 3207TIP3    H131036   2.893   3.044  15.729  0.4191  1.1974  0.8658
 3207TIP3    H231037   2.772   3.029  15.640  1.3022 -2.2866  0.0902
 3208TIP3   OH231038   4.876   4.031  14.243  0.4832 -0.7533  0.2858
 3208TIP3    H131039   4.865   3.965  14.174  1.0276  0.3033 -0.8590
 3208TIP3    H231040   4.938   4.094  14.206  0.2163  0.2415  1.4623
 3209TIP3   OH231041   5.631   5.398   4.526 -0.6437  0.0947 -0.0218
 3209TIP3    H131042   5.558   5.447   4.563  0.1048  0.1221  1.4931
 3209TIP3    H231043   5.708   5.452   4.544 -0.2075 -0.0307 -1.4063
 3210TIP3   OH231044   2.118   0.828  15.836  0.7034  0.3670  0.4862
 3210TIP3    H131045   2.100   0.921  15.819  0.0932 -0.1076 -1.7443
 3210TIP3    H231046   2.053   0.802  15.901 -0.5022  1.0078 -0.4370
 3211TIP3   OH231047   4.221   5.952   1.156 -0.2643 -0.1636  0.0305
 3211TIP3    H131048   4.306   5.971   1.196 -0.2886  1.1126 -0.4658
 3211TIP3    H231049   4.157   5.988   1.218 -0.4111 -0.4835  0.0647
 3212TIP3   OH231050   2.226   0.403  16.183  0.3037 -0.1034 -0.5780
 3212TIP3    H131051   2.145   0.380  16.137  0.2991 -0.1045 -0.5703
 3212TIP3    H231052   2.201   0.408  16.275  0.1282  0.7539 -0.6694
 3213TIP3   OH231053   3.795   0.277  12.092  0.0587  0.2344  0.1646
 3213TIP3    H131054   3.752   0.270  12.177 -0.3386 -0.1584 -0.0644
 3213TIP3    H231055   3.785   0.369  12.067 -1.3183 -0.0081 -0.2299
 3214TIP3   OH231056   3.869   2.141  16.251 -0.0382  0.5380 -0.2199
 3214TIP3    H131057   3.802   2.208  16.234 -0.9791  0.0876  1.4843
 3214TIP3    H231058   3.884   2.146  16.345  2.4950  0.7210 -0.5759
 3215TIP3   OH231059   4.913   1.622  13.096 -0.3979  0.1785  0.2439
 3215TIP3    H131060   4.977   1.575  13.150 -0.5220 -0.4628 -0.1603
 3215TIP3    H231061   4.898   1.565  13.021  1.5182  2.0496 -1.7105
 3216TIP3   OH231062   0.955   2.145   6.219  0.4653  0.5084 -0.5917
 3216TIP3    H131063   0.956   2.109   6.130  0.5863  0.4799 -0.5793
 3216TIP3    H231064   0.890   2.093   6.266  0.4705  0.4611 -0.6373
 3217TIP3   OH231065   0.649   0.042   3.128 -0.2433  0.0944  0.4052
 3217TIP3    H131066   0.554   0.034   3.133 -0.0405 -1.8941  3.6289
 3217TIP3    H231067   0.673  -0.003   3.047 -1.9188 -1.2730  0.6252
 3218TIP3   OH231068   1.031   5.559   4.262  0.5343 -0.0998 -0.9881
 3218TIP3    H131069   1.033   5.633   4.201  1.8063  0.1691 -0.6634
 3218TIP3    H231070   1.112   5.568   4.313 -1.1392  0.5550  1.7877
 3219TIP3   OH231071   0.399   5.747   1.920  0.0498 -0.3078 -0.2193
 3219TIP3    H131072   0.462   5.796   1.972  2.5884 -2.4252 -1.0693
 3219TIP3    H231073   0.418   5.771   1.830  0.1931 -1.5201 -0.5297
 3220TIP3   OH231074   5.330   2.729   1.836 -0.3392  0.7742 -0.1981
 3220TIP3    H131075   5.404   2.786   1.815  0.0090 -0.0275 -1.2008
 3220TIP3    H231076   5.333   2.660   1.770 -0.8903 -0.2967  0.8684
 3221TIP3   OH231077   0.661   5.488   0.904  0.2080 -0.0370  0.1221
 3221TIP3    H131078   0.625   5.470   0.991  0.5321 -0.8242  0.0935
 3221TIP3    H231079   0.587   5.522   0.854 -0.3634 -1.0592  0.2488
 3222TIP3   OH231080   2.244   5.978  10.941 -0.1840 -0.3720 -0.0041
 3222TIP3    H131081   2.273   5.918  11.010 -0.8605  0.7817  1.3385
 3222TIP3    H231082   2.159   6.010  10.972 -0.8989 -0.4600 -1.8024
 3223TIP3   OH231083   5.613   0.959  12.190 -0.0592 -0.1296 -0.6248
 3223TIP3    H131084   5.548   1.026  12.208  0.6922  0.3628  0.3444
 3223TIP3    H231085   5.669   0.957  12.268 -0.5426 -2.4566 -0.2448
 3224TIP3   OH231086   2.791   3.726  11.740 -0.1172  0.3400 -0.1415
 3224TIP3    H131087   2.832   3.799  11.694  2.2856 -0.2599  0.9110
 3224TIP3    H231088   2.778   3.758  11.829 -0.1142 -0.1311  0.0303
 3225TIP3   OH231089   4.962   6.717  10.987 -0.6374 -0.0562  0.0288
 3225TIP3    H131090   4.943   6.804  10.952 -1.8171 -0.5078 -0.5205
 3225TIP3    H231091   4.964   6.729  11.082  0.2481  0.7457 -0.0720
 3226TIP3   OH231092   6.585   5.822  11.592 -0.6478  0.1134 -0.0436
 3226TIP3    H131093   6.541   5.815  11.677 -0.0602 -1.6021  0.1576
 3226TIP3    H231094   6.678   5.818  11.613 -0.4812  0.1945 -0.7340
 3227TIP3   OH231095   0.328   3.443   5.844 -0.1556 -0.0725 -0.4998
 3227TIP3    H131096   0.271   3.369   5.821 -0.3651  0.0680 -0.4415
 3227TIP3    H231097   0.288   3.518   5.801 -0.9530  0.3182  0.8682
 3228TIP3   OH231098   3.972   3.509  16.557  0.1238  0.2204  0.3641
 3228TIP3    H131099   4.023   3.429  16.541  0.5510  0.5382  0.0889
 3228TIP3    H231100   3.948   3.504  16.649  0.7680  0.1203  0.5350
 3229TIP3   OH231101   2.651   0.332   4.749  0.2242 -0.1704  0.5297
 3229TIP3    H131102   2.607   0.277   4.684 -1.2161  0.0987  1.2195
 3229TIP3    H231103   2.650   0.420   4.712  1.3028 -0.3619  0.0184
 3230TIP3   OH231104   5.694   5.535  13.276  0.3770  0.0581  0.0559
 3230TIP3    H131105   5.697   5.622  13.236  0.2630  0.1922  0.3384
 3230TIP3    H231106   5.629   5.487  13.224  0.5892  0.0771 -0.2270
 3231TIP3   OH231107   2.585   1.103   5.287  0.0627 -0.1194 -0.8853
 3231TIP3    H131108   2.595   1.199   5.285  1.5549 -0.1450  1.2601
 3231TIP3    H231109   2.497   1.089   5.321 -0.4168  0.4585 -1.8323
 3232TIP3   OH231110   4.378   6.786   0.306  1.0102  0.8540  0.2077
 3232TIP3    H131111   4.296   6.812   0.266  0.5616 -0.5371  0.1542
 3232TIP3    H231112   4.432   6.756   0.233  0.6763 -0.4320  0.4491
 3233TIP3   OH231113   3.054   2.332  14.057  0.7374  0.8809  0.2350
 3233TIP3    H131114   2.999   2.347  13.980  1.4333  1.6796 -0.1131
 3233TIP3    H231115   3.144   2.339  14.025  1.2667 -3.4909  0.1085
 3234TIP3   OH231116   2.379   0.718   4.617  0.1469  0.3538  0.5661
 3234TIP3    H131117   2.394   0.743   4.526  1.3065  0.7804  0.8498
 3234TIP3    H231118   2.288   0.691   4.620  0.2261 -0.1333 -0.8251
 3235TIP3   OH231119   0.385   4.049   1.298 -0.5511 -0.4016 -0.2309
 3235TIP3    H131120   0.400   3.961   1.334  2.2756  0.9034  2.2585
 3235TIP3    H231121   0.434   4.050   1.216  1.7322 -0.4586  1.0432
 3236TIP3   OH231122   4.492   5.997   1.250  0.4823  0.0117  0.0545
 3236TIP3    H131123   4.560   6.059   1.224  1.6036 -0.5704  1.4755
 3236TIP3    H231124   4.479   6.014   1.343 -0.9730 -0.2459 -0.0808
 3237TIP3   OH231125   5.941   0.587   1.036 -0.2425  0.2425 -0.5119
 3237TIP3    H131126   5.865   0.624   0.991 -0.9491 -0.3532  0.1765
 3237TIP3    H231127   5.981   0.661   1.081 -0.1437  0.6406 -1.2332
 3238TIP3   OH231128   1.120   6.290  10.839 -0.5804 -0.1123  0.4405
 3238TIP3    H131129   1.068   6.218  10.874 -0.5089  0.0835  0.9482
 3238TIP3    H231130   1.099   6.291  10.745 -2.1045  0.4630  0.7589
 3239TIP3   OH231131   2.346   4.353   3.936 -0.0694  0.4626 -0.3668
 3239TIP3    H131132   2.303   4.397   4.009  1.4103  0.1141  0.7857
 3239TIP3    H231133   2.280   4.295   3.899 -1.0222  1.0962  0.3205
 3240TIP3   OH231134   4.920   3.506   1.199  0.0242 -0.5996  0.0745
 3240TIP3    H131135   4.929   3.525   1.293  0.6210  0.8496 -0.2494
 3240TIP3    H231136   4.836   3.542   1.174  1.8132  3.4216 -0.8747
 3241TIP3   OH231137   0.256   0.128  15.381  0.4732  0.0863  0.5739
 3241TIP3    H131138   0.297   0.195  15.326 -0.2148  0.8197  0.9361
 3241TIP3    H231139   0.177   0.103  15.333 -0.1559  0.7625  1.2172
 3242TIP3   OH231140   1.770   5.613  12.000  0.5341  0.2903  0.4986
 3242TIP3    H131141   1.690   5.665  12.007  0.9891  1.0858 -0.0752
 3242TIP3    H231142   1.833   5.671  11.958  1.2792 -0.4831  0.5192
 3243TIP3   OH231143   3.756   0.571   1.151  0.0777  0.0796  0.0959
 3243TIP3    H131144   3.745   0.489   1.103 -0.5138 -1.6563  2.9511
 3243TIP3    H231145   3.846   0.569   1.182 -0.0298  0.3589  0.4253
 3244TIP3   OH231146   4.768   0.586   0.521  0.3886  0.1969 -1.0908
 3244TIP3    H131147   4.858   0.552   0.529 -0.5463 -2.0340  1.1930
 3244TIP3    H231148   4.722   0.519   0.471 -0.3548  0.6096 -0.9625
 3245TIP3   OH231149   6.779   1.546  13.100  0.0466 -0.0934  0.6110
 3245TIP3    H131150   6.768   1.555  13.195  0.4326 -0.9865  0.7493
 3245TIP3    H231151   6.797   1.453  13.086 -0.5783 -0.0801 -0.4025
 3246TIP3   OH231152   5.606   2.754   2.875  0.3870 -0.0656  0.0055
 3246TIP3    H131153   5.591   2.788   2.963 -0.6538  0.6987 -0.4507
 3246TIP3    H231154   5.700   2.737   2.872  0.8161  1.9601  0.5586
 3247TIP3   OH231155   6.196   2.587   1.159  0.0926  0.2474 -0.0323
 3247TIP3    H131156   6.154   2.524   1.218  1.3489  0.3458  1.0136
 3247TIP3    H231157   6.290   2.573   1.172  0.4029  2.3779  0.2984
 3248TIP3   OH231158   1.485   6.100   5.649  0.3145  0.3437  0.1532
 3248TIP3    H131159   1.442   6.036   5.705 -0.2643  0.0269 -0.6317
 3248TIP3    H231160   1.466   6.184   5.691 -0.2152  0.1237  0.3692
 3249TIP3   OH231161   4.339   4.686  12.726 -0.0760 -0.2534  0.2885
 3249TIP3    H131162   4.387   4.687  12.642  1.3878 -2.5977  1.0069
 3249TIP3    H231163   4.357   4.600  12.762 -4.1490 -0.9036  1.1332
 3250TIP3   OH231164   1.175   5.198   0.378  0.3350  0.1637  0.1994
 3250TIP3    H131165   1.158   5.281   0.333  1.1288  0.6035  0.6860
 3250TIP3    H231166   1.146   5.131   0.316 -0.0365  0.7896 -0.3241
 3251TIP3   OH231167   1.637   0.454  13.671  0.2836  0.6922 -0.3003
 3251TIP3    H131168   1.554   0.501  13.668 -1.3944 -2.0891 -1.1821
 3251TIP3    H231169   1.644   0.423  13.761  1.7988  3.0868  0.5113
 3252TIP3   OH231170   4.563   0.170   0.455  0.1804  0.1881 -0.1653
 3252TIP3    H131171   4.530   0.102   0.396  1.2204 -1.2129  0.8066
 3252TIP3    H231172   4.486   0.200   0.503 -0.0546 -1.5250  0.5873
 3253TIP3   OH231173   3.134   6.564  16.773  0.2032  0.1430  0.0403
 3253TIP3    H131174   3.143   6.540  16.681 -1.4470  1.0722 -0.4194
 3253TIP3    H231175   3.040   6.559  16.790  0.4543  0.1721  1.6291
 3254TIP3   OH231176   2.659   4.653  16.140  1.3018 -0.2039 -0.0157
 3254TIP3    H131177   2.632   4.566  16.169  0.2229  0.0797 -0.1263
 3254TIP3    H231178   2.719   4.683  16.208 -0.3565  0.0124  1.4375
 3255TIP3   OH231179   3.375   3.442   6.204  0.1721  0.2702  0.6114
 3255TIP3    H131180   3.395   3.499   6.130  0.5313  0.8622  1.1582
 3255TIP3    H231181   3.279   3.438   6.205  0.1493 -1.8062 -1.4242
 3256TIP3   OH231182   1.384   3.345   4.235 -0.3264  0.4074 -0.4950
 3256TIP3    H131183   1.332   3.410   4.281 -1.5267  0.5151 -1.9220
 3256TIP3    H231184   1.456   3.395   4.195  0.7934  0.2931  1.2868
 3257TIP3   OH231185   5.966   4.193   2.633 -0.1745  0.7399 -0.0930
 3257TIP3    H131186   6.015   4.138   2.694 -1.2441  1.5463  1.5552
 3257TIP3    H231187   5.929   4.262   2.687 -4.0209 -0.3840 -0.9918
 3258TIP3   OH231188   4.773   2.002   5.366 -0.3057  0.1938 -0.0693
 3258TIP3    H131189   4.858   1.973   5.333 -0.1278  0.6123  0.0183
 3258TIP3    H231190   4.790   2.030   5.456 -0.5715  0.1141  0.0079
 3259TIP3   OH231191   2.766   3.091   0.919  0.0152  0.8440  0.1579
 3259TIP3    H131192   2.689   3.051   0.961 -0.3234 -0.5077 -1.6118
 3259TIP3    H231193   2.746   3.088   0.825  2.2923  0.2861 -0.3653
 3260TIP3   OH231194   0.191   6.035   5.442 -0.1667 -0.3530 -0.2834
 3260TIP3    H131195   0.153   6.121   5.462  0.4440  0.2421 -1.6000
 3260TIP3    H231196   0.234   6.009   5.524  0.8841  1.2654 -0.2919
 3261TIP3   OH231197   3.931   5.264  12.221 -0.4850  0.2093  0.5390
 3261TIP3    H131198   3.980   5.258  12.303 -0.4985  0.3038  0.5541
 3261TIP3    H231199   3.991   5.231  12.154 -1.4995 -2.8227  0.9879
 3262TIP3   OH231200   5.503   3.883  11.310 -0.7954 -0.5506  0.0090
 3262TIP3    H131201   5.511   3.954  11.373  0.4389  0.4786 -1.2238
 3262TIP3    H231202   5.416   3.894  11.272 -1.5218 -1.1406  1.4375
 3263TIP3   OH231203   1.610   0.550   5.387 -0.3493 -0.1816 -0.2688
 3263TIP3    H131204   1.562   0.495   5.326 -0.8510 -0.1936  0.1274
 3263TIP3    H231205   1.617   0.497   5.467 -0.4562  0.1549 -0.0322
 3264TIP3   OH231206   0.536   2.228   0.365  0.0136  0.3981  0.3090
 3264TIP3    H131207   0.535   2.312   0.319 -0.2872 -1.0526 -2.5972
 3264TIP3    H231208   0.580   2.246   0.448  2.0660  2.9542 -1.1780
 3265TIP3   OH231209   4.148   6.546   0.011  0.0366 -0.0811  0.3413
 3265TIP3    H131210   4.162   6.516  -0.079 -0.2537  0.8676 -0.0381
 3265TIP3    H231211   4.123   6.638   0.002  2.9532  0.9467  1.5375
 3266TIP3   OH231212   2.589   3.065   4.887  0.2398  0.3878  0.3391
 3266TIP3    H131213   2.594   2.998   4.955 -0.3723  0.6376  0.6372
 3266TIP3    H231214   2.661   3.044   4.827  0.7420  0.1246  1.0232
 3267TIP3   OH231215   2.048   0.013   2.005  0.0077 -0.4369 -0.6443
 3267TIP3    H131216   1.960  -0.025   2.007  1.0445 -3.0121  0.8281
 3267TIP3    H231217   2.077   0.009   2.096  1.3513  1.1880 -0.9655
 3268TIP3   OH231218   5.132   6.017   2.005  0.5816 -0.0446  0.5460
 3268TIP3    H131219   5.038   6.010   1.992  0.5716 -0.4692  0.8469
 3268TIP3    H231220   5.142   6.085   2.072  0.4950  0.0428  0.4709
 3269TIP3   OH231221   2.940   1.248  11.779 -0.0053 -0.2466 -0.2787
 3269TIP3    H131222   2.864   1.219  11.729 -1.2865 -1.7336  2.3125
 3269TIP3    H231223   2.918   1.336  11.807 -1.1175 -0.8798  0.9555
 3270TIP3   OH231224   0.862   4.386   3.218  0.1564 -0.4809  0.0239
 3270TIP3    H131225   0.919   4.385   3.294 -0.0776 -0.4387  0.2025
 3270TIP3    H231226   0.789   4.329   3.241  0.1652 -0.5979 -0.2307
 3271TIP3   OH231227   2.962   0.533  15.868  0.3162 -0.9260  0.1870
 3271TIP3    H131228   2.978   0.627  15.863 -0.5289 -0.8435 -1.5677
 3271TIP3    H231229   2.943   0.517  15.961  2.3935  0.2635  0.8685
 3272TIP3   OH231230   3.452   3.436   4.702  0.3094  0.0497 -0.2232
 3272TIP3    H131231   3.364   3.418   4.670 -0.3897 -2.9822  2.7881
 3272TIP3    H231232   3.510   3.390   4.641 -0.7002 -2.5632  0.6401
 3273TIP3   OH231233   3.511   0.005   5.790 -0.1141  0.3973  0.1892
 3273TIP3    H131234   3.557  -0.002   5.873 -0.1058  0.1214  0.1624
 3273TIP3    H231235   3.480  -0.084   5.772 -0.1559  0.4651 -0.0790
 3274TIP3   OH231236   4.331   2.847  12.518 -0.7813 -0.1180 -0.3009
 3274TIP3    H131237   4.331   2.914  12.450  1.7090  0.4855  0.2003
 3274TIP3    H231238   4.286   2.772  12.478 -0.6642  0.7142 -2.0745
 3275TIP3   OH231239   6.040   4.489  14.486  0.0184  0.4073 -0.3916
 3275TIP3    H131240   5.976   4.424  14.457 -1.2221  2.3338 -2.2253
 3275TIP3    H231241   6.091   4.509  14.408  1.3904  0.5671  0.5144
 3276TIP3   OH231242   0.651   5.764  15.977  0.4983 -0.3669 -0.0590
 3276TIP3    H131243   0.613   5.849  16.000 -1.2152 -1.0872 -0.1152
 3276TIP3    H231244   0.590   5.726  15.914  1.5999 -1.3609 -0.5703
 3277TIP3   OH231245   1.192   1.099   0.582 -0.2406 -0.4564  0.2067
 3277TIP3    H131246   1.125   1.031   0.570 -0.2200 -0.9272  2.3347
 3277TIP3    H231247   1.147   1.168   0.631 -0.4473  1.4772 -2.4791
 3278TIP3   OH231248   3.757   4.442   2.038  0.3253  0.0127 -0.0584
 3278TIP3    H131249   3.841   4.474   2.004  1.5440 -1.8018  1.0939
 3278TIP3    H231250   3.732   4.506   2.105  0.7131  0.6306 -0.4959
 3279TIP3   OH231251   4.360   5.666   0.864  0.0414  0.5197  0.0853
 3279TIP3    H131252   4.412   5.656   0.943  0.0697 -1.1556 -0.1044
 3279TIP3    H231253   4.280   5.615   0.881  0.6783 -1.1034 -1.4535
 3280TIP3   OH231254   1.492   2.006   1.667  0.5895 -0.3718 -0.3116
 3280TIP3    H131255   1.560   2.040   1.726  0.2273 -1.2706  0.6676
 3280TIP3    H231256   1.411   2.049   1.697  0.7831  1.2153 -1.9051
 3281TIP3   OH231257   1.198   1.878   1.506  0.2093 -0.0780 -0.5323
 3281TIP3    H131258   1.291   1.857   1.511  0.4891  0.3475 -2.6780
 3281TIP3    H231259   1.180   1.883   1.412 -2.0073 -0.2276 -0.1783
 3282TIP3   OH231260   4.015   1.211   3.951  0.4806  0.1107  0.4382
 3282TIP3    H131261   3.926   1.189   3.923  0.2087 -1.5672  2.3562
 3282TIP3    H231262   4.063   1.225   3.870 -0.7745 -2.1815 -0.8156
 3283TIP3   OH231263   0.267   6.486   2.221 -0.4436 -0.2589 -0.2074
 3283TIP3    H131264   0.254   6.541   2.144 -0.7902  0.1877  0.1660
 3283TIP3    H231265   0.268   6.396   2.186 -0.3805 -0.0494 -0.7541
 3284TIP3   OH231266   3.087   6.200  11.568 -1.1579 -0.7822  0.1362
 3284TIP3    H131267   3.072   6.151  11.649 -1.0668 -1.9354 -0.5397
 3284TIP3    H231268   3.181   6.216  11.566 -1.3661  0.7699  1.1052
 3285TIP3   OH231269   1.984   1.934  11.331 -0.2842  0.1987 -0.0352
 3285TIP3    H131270   1.959   1.926  11.239 -1.0942  0.9420  0.1026
 3285TIP3    H231271   1.910   1.979  11.372  1.1381  2.2194  0.4603
 3286TIP3   OH231272   4.821   3.212  15.539 -0.7216 -0.4099  0.1285
 3286TIP3    H131273   4.877   3.210  15.617 -3.0344 -0.0204  1.9002
 3286TIP3    H231274   4.830   3.125  15.501  0.1194 -0.7546  1.0713
 3287TIP3   OH231275   0.420   3.879   4.725  0.0729 -0.3885  0.3376
 3287TIP3    H131276   0.399   3.956   4.671  0.5793 -0.5932 -0.1597
 3287TIP3    H231277   0.497   3.841   4.683  0.1150 -0.8934  0.8671
 3288TIP3   OH231278   1.722   1.408   0.798  0.1037  0.2254 -0.1655
 3288TIP3    H131279   1.701   1.457   0.718  0.6753  1.1756  0.2499
 3288TIP3    H231280   1.650   1.428   0.858 -0.2325 -0.3448 -0.3686
 3289TIP3   OH231281   1.929   5.294   5.336 -0.3328 -0.1306 -0.2963
 3289TIP3    H131282   1.894   5.303   5.247 -1.6988  0.0326  0.2396
 3289TIP3    H231283   1.955   5.202   5.342 -1.8457 -0.5929 -0.3194
 3290TIP3   OH231284   0.531   5.665   3.665 -0.1886  0.0414 -0.1624
 3290TIP3    H131285   0.577   5.624   3.593 -0.8339 -0.8627 -0.0783
 3290TIP3    H231286   0.444   5.686   3.630 -1.6544 -3.1465  1.0533
 3291TIP3   OH231287   3.536   4.626   0.911  0.2817 -0.7586  0.6562
 3291TIP3    H131288   3.605   4.620   0.977  0.6260  0.6101  0.4476
 3291TIP3    H231289   3.513   4.719   0.909  0.0573 -0.8261 -0.9227
 3292TIP3   OH231290   1.346   0.702   1.199  0.0140 -0.4529 -0.4658
 3292TIP3    H131291   1.398   0.754   1.139  0.2946 -1.7778 -1.4096
 3292TIP3    H231292   1.398   0.699   1.280  0.2422  0.2454 -0.5835
 3293TIP3   OH231293   6.412   5.533  14.327 -0.2242  0.2662  0.1191
 3293TIP3    H131294   6.354   5.457  14.333 -0.5666  0.5503  0.4469
 3293TIP3    H231295   6.493   5.505  14.368  0.1424 -0.3818 -0.9896
 3294TIP3   OH231296   5.696   4.504  16.903  0.2969  0.2705  0.3586
 3294TIP3    H131297   5.749   4.441  16.952 -1.9198 -3.6299 -1.7288
 3294TIP3    H231298   5.623   4.524  16.961  1.2261  1.3595  1.1959
 3295TIP3   OH231299   1.698   5.392  15.972 -0.1069  0.5701 -0.4928
 3295TIP3    H131300   1.603   5.401  15.962 -0.7830 -2.2905  1.9393
 3295TIP3    H231301   1.717   5.307  15.932  0.8677 -0.2470  1.5925
 3296TIP3   OH231302   4.032   6.519  15.762 -0.4447  0.2017  0.0866
 3296TIP3    H131303   4.013   6.594  15.705  0.4516 -0.0318 -0.5354
 3296TIP3    H231304   3.956   6.461  15.752 -1.0883  0.9502  0.4756
 3297TIP3   OH231305   3.953   1.181   1.703 -0.7115  0.2097 -0.4332
 3297TIP3    H131306   3.921   1.101   1.745 -0.1472 -0.9750 -2.1653
 3297TIP3    H231307   3.949   1.247   1.772  0.4013 -1.6838  1.5695
 3298TIP3   OH231308   1.127   6.615   4.537 -0.2360  0.4357  0.5815
 3298TIP3    H131309   1.155   6.644   4.451 -0.5784  2.1502  0.9928
 3298TIP3    H231310   1.072   6.538   4.521 -0.3523  0.7815 -0.7334
 3299TIP3   OH231311   0.771   2.061   4.018  0.6429  0.3363 -0.0607
 3299TIP3    H131312   0.776   2.084   3.925  1.9447  0.4733  0.0348
 3299TIP3    H231313   0.793   2.142   4.064  0.5445  0.1212  0.3686
 3300TIP3   OH231314   1.337   4.639  13.785  0.1100  0.2005 -0.6550
 3300TIP3    H131315   1.313   4.696  13.859  0.0622 -2.2833  1.3934
 3300TIP3    H231316   1.432   4.640  13.785  0.1134 -0.0427 -0.3502
 3301TIP3   OH231317   0.971   0.990  17.089 -0.5225  0.0982  0.2567
 3301TIP3    H131318   0.994   1.045  17.014 -2.3337 -0.1224 -0.5238
 3301TIP3    H231319   1.055   0.957  17.121  0.4432  1.6648 -0.5120
 3302TIP3   OH231320   4.762   6.630  13.943  0.4092  0.0689 -0.7386
 3302TIP3    H131321   4.677   6.614  13.902 -0.3863 -1.4055  1.3075
 3302TIP3    H231322   4.815   6.670  13.874 -1.8944  0.9748 -2.0939
 3303TIP3   OH231323   4.120   1.975  16.251  0.3064  0.2224 -0.7304
 3303TIP3    H131324   4.074   1.922  16.185  0.6495 -2.7103  1.1882
 3303TIP3    H231325   4.051   2.030  16.289 -0.4299  0.0469 -1.7695
 3304TIP3   OH231326   4.186   3.970  15.581 -0.4461 -0.1527 -0.0287
 3304TIP3    H131327   4.213   3.879  15.567 -2.7943 -0.9282  0.0308
 3304TIP3    H231328   4.234   3.997  15.660 -0.8921 -1.8830  0.8770
 3305TIP3   OH231329   6.505   2.124  13.930  0.4499  0.0724  0.3323
 3305TIP3    H131330   6.477   2.039  13.965 -1.7921  0.9276  0.8224
 3305TIP3    H231331   6.553   2.165  14.001  1.0015 -0.5338  0.3159
 3306TIP3   OH231332   3.221   1.122   4.169  0.2438  0.6401 -0.0520
 3306TIP3    H131333   3.233   1.132   4.075  0.8685 -0.4202 -0.1014
 3306TIP3    H231334   3.309   1.108   4.203  0.0228  1.0172  0.6962
 3307TIP3   OH231335   3.908   1.989   5.746 -0.5514  0.0139  0.4294
 3307TIP3    H131336   3.913   2.085   5.745  0.4278 -0.0262 -0.2719
 3307TIP3    H231337   3.999   1.961   5.735 -0.7724 -1.0003  1.1215
 3308TIP3   OH231338   6.473   3.215   2.542  0.3903 -0.0754 -0.0715
 3308TIP3    H131339   6.555   3.178   2.509 -0.2855  0.2663 -2.3465
 3308TIP3    H231340   6.499   3.277   2.610  2.0015 -0.0669 -0.6686
 3309TIP3   OH231341   3.268   1.013   4.891  0.0729 -0.3007 -0.4187
 3309TIP3    H131342   3.335   1.061   4.940 -0.3121 -0.7712  0.6048
 3309TIP3    H231343   3.259   0.931   4.939  0.5350 -1.3056 -1.9754
 3310TIP3   OH231344   1.485   5.586  16.019  0.5400 -0.0293 -0.0408
 3310TIP3    H131345   1.486   5.574  15.924  0.6220  1.7848 -0.3062
 3310TIP3    H231346   1.406   5.637  16.036 -0.4684 -1.8705  1.1205
 3311TIP3   OH231347   6.319   3.708  12.605 -0.8454 -0.1299  0.0217
 3311TIP3    H131348   6.346   3.655  12.530  1.6310 -0.1747  0.8533
 3311TIP3    H231349   6.297   3.644  12.673 -2.3316 -0.0831 -0.3948
 3312TIP3   OH231350   4.946   2.099   2.392 -0.7833  0.2622 -0.4320
 3312TIP3    H131351   5.025   2.151   2.407 -0.3301 -0.6679  0.4663
 3312TIP3    H231352   4.905   2.093   2.477 -0.2771 -1.7182 -0.2859
 3313TIP3   OH231353   4.896   3.049  16.894  0.7116 -0.0658 -0.4993
 3313TIP3    H131354   4.919   2.959  16.872 -0.3171 -0.4628  0.0040
 3313TIP3    H231355   4.818   3.067  16.842  1.3155  0.7944 -1.1411
 3314TIP3   OH231356   1.801   5.400   2.919 -0.0368 -0.4638 -0.1962
 3314TIP3    H131357   1.872   5.337   2.926 -0.1728 -0.4903  1.3661
 3314TIP3    H231358   1.828   5.461   2.851  1.9775  0.1335  1.0703
 3315TIP3   OH231359   3.495   0.318  10.880 -0.7015  0.1052 -0.0247
 3315TIP3    H131360   3.585   0.292  10.861 -0.4990  1.2094 -0.6617
 3315TIP3    H231361   3.443   0.273  10.813 -0.5826 -0.2155  0.0959
 3316TIP3   OH231362   5.626   0.173   3.852 -0.0348  0.6380 -0.1592
 3316TIP3    H131363   5.531   0.174   3.852 -0.0919  0.7488 -2.6216
 3316TIP3    H231364   5.649   0.089   3.812  0.8318  1.4206 -1.3771
 3317TIP3   OH231365   3.350   6.003   1.792 -0.2196  0.2898  0.2178
 3317TIP3    H131366   3.373   5.913   1.816 -1.3049  0.2512  1.1418
 3317TIP3    H231367   3.278   6.026   1.849  0.7301  2.1548  0.7471
 3318TIP3   OH231368   0.936   3.947   5.030  0.5676  0.2077 -0.1275
 3318TIP3    H131369   0.986   3.941   4.949 -1.3292  0.1998 -1.3396
 3318TIP3    H231370   0.913   4.039   5.038  0.3727  0.1364  0.1658
 3319TIP3   OH231371   0.071   5.316  14.008  0.4582  0.3393  0.3086
 3319TIP3    H131372   0.116   5.371  13.944  0.8611  0.4974  0.7244
 3319TIP3    H231373   0.064   5.370  14.086  2.8198 -0.8801  1.4823
 3320TIP3   OH231374   6.761   3.539   2.601  0.0741 -0.4745  0.1475
 3320TIP3    H131375   6.728   3.624   2.571  1.1627  0.5405  1.6702
 3320TIP3    H231376   6.760   3.484   2.522 -0.0785  1.1326 -1.0224
 3321TIP3   OH231377   4.688   1.788   0.592 -0.0118 -0.0946  0.3760
 3321TIP3    H131378   4.617   1.844   0.562 -0.0414 -0.4758 -0.2818
 3321TIP3    H231379   4.647   1.703   0.608  0.3781 -0.4651 -0.5142
 3322TIP3   OH231380   3.524   0.826  15.796 -0.1852 -0.3143  0.0657
 3322TIP3    H131381   3.463   0.761  15.831 -0.3668 -0.2375 -0.1078
 3322TIP3    H231382   3.469   0.892  15.755  0.0451 -0.8994 -1.2314
 3323TIP3   OH231383   5.598   0.526  17.154  0.3632  0.7905 -0.0857
 3323TIP3    H131384   5.511   0.535  17.191  1.2212  1.0745  2.0352
 3323TIP3    H231385   5.604   0.436  17.125 -0.7357  0.8577 -0.5357
 3324TIP3   OH231386   0.701   3.206   4.636 -0.1140  0.6188 -0.1459
 3324TIP3    H131387   0.689   3.258   4.557 -0.2788 -0.4440 -0.8443
 3324TIP3    H231388   0.641   3.244   4.700 -0.8951  0.7189 -0.9265
 3325TIP3   OH231389   0.842   2.339   1.559 -0.7790  0.8090 -0.0321
 3325TIP3    H131390   0.847   2.244   1.549  0.0561  0.8711 -0.2757
 3325TIP3    H231391   0.927   2.371   1.528 -0.0425  1.4453  2.4552
 3326TIP3   OH231392   0.546   5.200   1.685 -0.0454 -0.2547 -0.0395
 3326TIP3    H131393   0.552   5.174   1.777 -0.0382  0.4215  0.1566
 3326TIP3    H231394   0.625   5.252   1.669 -0.8382  1.0326  0.0458
 3327TIP3   OH231395   1.162   6.559   1.386  0.6073 -0.3510  0.5069
 3327TIP3    H131396   1.163   6.490   1.451 -0.5594  0.2792  1.2277
 3327TIP3    H231397   1.250   6.596   1.388  1.3703 -2.0471 -0.1801
 3328TIP3   OH231398   1.999   2.101  12.800  0.6712  0.2982 -0.1738
 3328TIP3    H131399   1.952   2.048  12.865  0.2281  1.3561  0.3887
 3328TIP3    H231400   1.997   2.190  12.835  1.8398  0.6156 -0.8553
 3329TIP3   OH231401   2.219   4.159  11.655 -0.0045  0.4664  0.4259
 3329TIP3    H131402   2.299   4.191  11.697  0.4206 -1.5435  1.2736
 3329TIP3    H231403   2.210   4.069  11.686 -2.0435  0.2940 -0.4844
 3330TIP3   OH231404   6.043   2.065  16.120 -0.3056  0.1588  0.7750
 3330TIP3    H131405   6.031   2.102  16.208 -3.6093 -0.1696  0.5881
 3330TIP3    H231406   6.053   1.971  16.135 -0.3145  0.1708  0.8571
 3331TIP3   OH231407   4.217   0.403   3.144 -0.3536  0.0557 -0.5109
 3331TIP3    H131408   4.235   0.427   3.234 -0.5073  0.2136 -0.5228
 3331TIP3    H231409   4.278   0.455   3.092 -0.8067  0.5553 -0.5481
 3332TIP3   OH231410   1.540   3.010  15.845 -0.5528 -0.1931 -0.8922
 3332TIP3    H131411   1.587   3.054  15.916 -2.1843  2.9720 -1.5827
 3332TIP3    H231412   1.605   2.998  15.776  0.4753 -1.0951  0.1827
 3333TIP3   OH231413   1.828   6.335  16.356 -0.3665  0.2400 -0.5618
 3333TIP3    H131414   1.836   6.273  16.428 -0.9559 -0.2076 -0.8638
 3333TIP3    H231415   1.788   6.283  16.285 -1.9248  1.2292 -0.4537
 3334TIP3   OH231416   0.765   1.438  13.669  0.2090 -0.0130  0.3845
 3334TIP3    H131417   0.753   1.359  13.617  1.0180 -0.0009  0.1550
 3334TIP3    H231418   0.824   1.492  13.617  0.4966  0.2908  1.0059
 3335TIP3   OH231419   3.743   3.485   2.961 -0.3008 -0.3587 -0.3471
 3335TIP3    H131420   3.836   3.485   2.986 -0.0774  1.0677 -1.0787
 3335TIP3    H231421   3.727   3.573   2.929 -1.8731 -0.6527 -0.4431
 3336TIP3   OH231422   1.807   2.922  14.929 -0.1318  0.3095 -0.5162
 3336TIP3    H131423   1.809   2.828  14.944 -1.1065  0.3446 -0.1043
 3336TIP3    H231424   1.819   2.932  14.835  2.4866 -0.0910 -0.2968
 3337TIP3   OH231425   2.582   2.076   5.995  0.4495 -0.3061 -0.0500
 3337TIP3    H131426   2.559   2.165   5.968  3.0911 -0.1416 -2.2844
 3337TIP3    H231427   2.650   2.088   6.061  0.3182 -0.6873  0.1600
 3338TIP3   OH231428   2.834   0.262  12.530  0.1067  0.6393  0.0568
 3338TIP3    H131429   2.838   0.172  12.500  0.1043  0.9200 -0.8261
 3338TIP3    H231430   2.741   0.280  12.544  0.0628  0.6506 -0.2428
 3339TIP3   OH231431   0.584   6.047   5.089  0.3099  0.1305 -0.1484
 3339TIP3    H131432   0.611   5.978   5.150  1.9751  0.1180 -0.8446
 3339TIP3    H231433   0.577   6.125   5.143 -1.0401 -0.4394  0.5453
 3340TIP3   OH231434   0.167   4.670   2.083  0.3570 -0.2319 -0.0807
 3340TIP3    H131435   0.111   4.604   2.042  0.1841 -0.3218  0.2982
 3340TIP3    H231436   0.118   4.700   2.159  0.1451  0.8263 -0.6209
 3341TIP3   OH231437   5.719   5.931   2.194 -0.2791 -0.1163 -0.3833
 3341TIP3    H131438   5.683   5.869   2.258  1.2522 -1.5484 -0.8525
 3341TIP3    H231439   5.756   6.001   2.247 -1.7950  0.3232  0.1629
 3342TIP3   OH231440   1.035   4.897  16.371 -0.5805  0.2817 -0.0213
 3342TIP3    H131441   0.960   4.932  16.419 -1.6338  0.1260 -1.4888
 3342TIP3    H231442   1.010   4.807  16.351 -1.1941  0.9874 -2.7853
 3343TIP3   OH231443   3.549   6.254   1.703  0.1670  0.3502 -0.1728
 3343TIP3    H131444   3.631   6.296   1.729  0.4060  0.8706 -1.6360
 3343TIP3    H231445   3.575   6.166   1.675  0.2616  0.5450 -0.7214
 3344TIP3   OH231446   5.942   1.529  16.588  0.0805  0.2765  0.5501
 3344TIP3    H131447   6.023   1.580  16.583  1.1028 -1.3817 -1.8722
 3344TIP3    H231448   5.939   1.498  16.678 -0.0871  3.6400  1.8420
 3345TIP3   OH231449   4.506   1.804   0.163 -0.2941 -0.6184 -0.2432
 3345TIP3    H131450   4.505   1.766   0.075 -1.2730  0.6675 -0.8148
 3345TIP3    H231451   4.595   1.835   0.174 -0.3334 -0.1847 -1.0606
 3346TIP3   OH231452   6.775   4.792   0.292  0.1183 -0.1294  0.3442
 3346TIP3    H131453   6.805   4.794   0.201  3.2205 -2.4103  1.1554
 3346TIP3    H231454   6.837   4.847   0.339 -1.0229  0.4395  1.2385
 3347TIP3   OH231455   2.138   4.984   1.440 -0.1941  0.2763  0.8188
 3347TIP3    H131456   2.174   5.057   1.390  0.5128 -0.7126 -0.1594
 3347TIP3    H231457   2.047   4.979   1.414 -0.1734  0.6372  0.6777
 3348TIP3   OH231458   0.363   5.671  12.002 -0.5046 -0.3491  0.2258
 3348TIP3    H131459   0.272   5.695  12.020 -0.8146 -2.0280  1.1050
 3348TIP3    H231460   0.356   5.591  11.950  0.4690 -0.3958  0.1637
 3349TIP3   OH231461   1.296   2.092   3.358  0.0673 -0.0205  0.0557
 3349TIP3    H131462   1.247   2.058   3.432 -3.4182  0.2758 -1.8849
 3349TIP3    H231463   1.309   2.016   3.301  0.2417  0.2599 -0.2844
 3350TIP3   OH231464   4.134   1.436   4.812  0.3359  0.1272  0.1576
 3350TIP3    H131465   4.160   1.507   4.870  2.5743 -0.2505 -0.3133
 3350TIP3    H231466   4.087   1.375   4.869  1.3879  0.3625  1.3286
 3351TIP3   OH231467   0.599   1.339  14.098 -0.6216 -0.1405  0.2191
 3351TIP3    H131468   0.538   1.315  14.028 -0.5244  0.6508 -0.1565
 3351TIP3    H231469   0.547   1.392  14.158 -0.2676  0.7175 -0.2127
 3352TIP3   OH231470   2.149   2.880  11.792 -0.2008 -0.3222 -0.4436
 3352TIP3    H131471   2.144   2.976  11.786 -4.1919 -0.4440 -2.0032
 3352TIP3    H231472   2.167   2.852  11.702  0.0956 -1.0696 -0.1533
 3353TIP3   OH231473   3.796   2.343  14.212  0.8611  0.2502 -0.7896
 3353TIP3    H131474   3.723   2.395  14.246  0.4223 -1.1681  0.5666
 3353TIP3    H231475   3.822   2.388  14.132 -0.4121  1.7317 -0.4252
 3354TIP3   OH231476   4.225   5.622  14.112  0.0839 -0.0289  0.1012
 3354TIP3    H131477   4.306   5.659  14.146  0.8912  0.3087 -2.0150
 3354TIP3    H231478   4.159   5.688  14.132  0.4822  0.0763  1.1087
 3355TIP3   OH231479   6.096   4.465   4.504  0.8632 -0.3546 -0.8195
 3355TIP3    H131480   6.018   4.512   4.534  0.4930 -1.0206 -0.7182
 3355TIP3    H231481   6.158   4.534   4.480  0.0690  0.1926 -1.3592
 3356TIP3   OH231482   5.136   5.797   6.022 -0.2575  0.0548  0.3454
 3356TIP3    H131483   5.068   5.855   5.988 -1.4426 -1.4212  0.0735
 3356TIP3    H231484   5.100   5.765   6.105  0.0447 -0.8429  0.1381
 3357TIP3   OH231485   2.361   5.455  14.237  0.8529 -0.2076 -0.2251
 3357TIP3    H131486   2.381   5.531  14.183  3.3506 -1.3723 -1.0927
 3357TIP3    H231487   2.393   5.479  14.324 -3.1874  1.6760  0.9990
 3358TIP3   OH231488   5.083   2.721   3.001  0.2189  0.2388 -0.2370
 3358TIP3    H131489   4.994   2.685   3.007 -0.3830  0.9090 -3.4637
 3358TIP3    H231490   5.074   2.812   3.029 -0.0137  0.2037 -0.1940
 3359TIP3   OH231491   0.438   3.939  12.985 -0.2229 -0.1004  0.0314
 3359TIP3    H131492   0.461   3.885  13.060 -1.0604  0.2269  0.5508
 3359TIP3    H231493   0.361   3.988  13.014 -1.3307 -0.8648 -1.4542
 3360TIP3   OH231494   2.079   5.377   3.253 -0.2961 -0.1629  0.2203
 3360TIP3    H131495   2.070   5.471   3.245 -1.1426  0.0140  2.3954
 3360TIP3    H231496   2.004   5.341   3.206  1.4374  0.0415 -2.9031
 3361TIP3   OH231497   1.356   2.872  15.494 -0.5643 -0.3392  0.0335
 3361TIP3    H131498   1.402   2.927  15.557 -0.2226 -1.2544  0.5964
 3361TIP3    H231499   1.308   2.934  15.439 -0.8444  0.4750  1.1646
 3362TIP3   OH231500   2.851   0.916   2.797 -0.5602 -0.4246  0.2838
 3362TIP3    H131501   2.931   0.910   2.744  1.8411  2.8777  3.1327
 3362TIP3    H231502   2.849   0.833   2.846 -1.0302 -2.0956 -2.3522
 3363TIP3   OH231503   1.026   4.021  11.524 -0.6164 -0.4263  0.3701
 3363TIP3    H131504   1.109   4.055  11.492 -0.2819 -1.1720  0.4209
 3363TIP3    H231505   0.961   4.050  11.460 -0.2513 -0.2079  0.1014
 3364TIP3   OH231506   1.853   6.061  16.735  0.5024 -0.2735  0.5069
 3364TIP3    H131507   1.830   6.019  16.818 -1.9744  0.0693  0.0765
 3364TIP3    H231508   1.814   6.004  16.669 -0.2728  1.0746 -0.2405
 3365TIP3   OH231509   0.643   0.817  13.381  0.3362 -0.2997 -0.2537
 3365TIP3    H131510   0.693   0.735  13.380  0.4960 -0.2068 -0.0514
 3365TIP3    H231511   0.551   0.790  13.384  0.4125 -0.4839  1.0310
 3366TIP3   OH231512   2.256   1.861   4.077 -0.2125 -0.0086  0.1826
 3366TIP3    H131513   2.317   1.885   4.147 -0.5739  3.3216 -0.4764
 3366TIP3    H231514   2.313   1.844   4.002  0.0564 -1.3553  0.6607
 3367TIP3   OH231515   2.082   2.606   4.900  0.2696 -0.8362  0.2475
 3367TIP3    H131516   2.035   2.613   4.983 -1.8322 -0.2225 -0.9210
 3367TIP3    H231517   2.014   2.595   4.834  1.7178  0.6017 -1.6321
 3368TIP3   OH231518   1.184   0.416  13.605  0.0886  0.1406  0.0808
 3368TIP3    H131519   1.095   0.433  13.636  1.0601 -0.1984  3.5031
 3368TIP3    H231520   1.172   0.375  13.519 -3.1746 -1.8059  1.2678
 3369TIP3   OH231521   6.033   2.272   0.964  0.1515 -0.4229 -0.0837
 3369TIP3    H131522   6.123   2.245   0.944  1.1320  2.7371 -0.4906
 3369TIP3    H231523   5.994   2.290   0.878  0.0643  0.8488  0.2102
 3370TIP3   OH231524   2.868   4.143   5.241  0.4927 -0.2266 -0.6213
 3370TIP3    H131525   2.780   4.163   5.209  0.2486 -1.1665 -0.5607
 3370TIP3    H231526   2.917   4.225   5.230 -0.1946  0.0993 -1.3087
 3371TIP3   OH231527   6.571   1.242  15.135 -0.0402 -0.0509 -0.3395
 3371TIP3    H131528   6.609   1.306  15.075  0.1849 -0.0568 -0.2067
 3371TIP3    H231529   6.515   1.294  15.193  0.5166  0.0996  0.0736
 3372TIP3   OH231530   2.455   3.793   1.060  0.3234  0.1158 -0.2221
 3372TIP3    H131531   2.490   3.760   1.143 -0.5091 -1.0362 -0.3048
 3372TIP3    H231532   2.494   3.736   0.993  0.1127  0.3174 -0.5184
 3373TIP3   OH231533   1.514   5.510   5.753 -0.0323  0.2078  0.1171
 3373TIP3    H131534   1.489   5.444   5.819  0.4848  1.1404  1.2923
 3373TIP3    H231535   1.586   5.468   5.705 -1.1766 -0.9382 -0.6579
 3374TIP3   OH231536   0.573   4.622   2.602 -0.0860  0.5792  0.3022
 3374TIP3    H131537   0.547   4.642   2.512  0.1636 -1.4817 -0.2809
 3374TIP3    H231538   0.550   4.530   2.613  2.6571 -0.0617  1.3295
 3375TIP3   OH231539   5.081   6.215  14.948 -0.1593 -0.3158  0.0170
 3375TIP3    H131540   5.077   6.176  14.860 -1.7640 -1.0745  0.3748
 3375TIP3    H231541   5.077   6.309  14.932  0.8490 -0.3919 -0.7647
 3376TIP3   OH231542   5.303   6.261   4.955  0.1461  0.4674 -0.2772
 3376TIP3    H131543   5.360   6.335   4.976 -0.4016  0.8183  0.0170
 3376TIP3    H231544   5.219   6.302   4.932 -0.8827 -0.1398  2.1559
 3377TIP3   OH231545   3.521   1.256   0.177  0.3631 -0.1691  0.2405
 3377TIP3    H131546   3.472   1.272   0.097 -0.5783  2.7473  1.2653
 3377TIP3    H231547   3.610   1.238   0.148 -0.0204  0.5198 -1.4672
 3378TIP3   OH231548   5.031   3.183   2.873  0.3015 -0.7982 -0.2102
 3378TIP3    H131549   5.101   3.119   2.890 -1.4346 -3.0242 -0.9587
 3378TIP3    H231550   4.950   3.131   2.875 -1.4927  1.8394  1.6332
 3379TIP3   OH231551   4.636   1.459   3.856  0.2585 -0.4698 -0.1056
 3379TIP3    H131552   4.545   1.466   3.827  0.1927  2.7577  0.5357
 3379TIP3    H231553   4.687   1.469   3.776  0.0510 -0.3882 -0.2286
 3380TIP3   OH231554   2.109   0.981  12.744 -0.2919  0.6223 -0.1505
 3380TIP3    H131555   2.113   0.911  12.809  1.1457 -1.4584 -2.3199
 3380TIP3    H231556   2.158   1.053  12.785  0.8771 -0.7364  0.9810
 3381TIP3   OH231557   1.309   3.159  15.846  0.4784 -0.5863 -0.7489
 3381TIP3    H131558   1.393   3.126  15.815  0.2240  0.4907 -2.8015
 3381TIP3    H231559   1.246   3.092  15.820  0.5516 -0.8218 -0.3238
 3382TIP3   OH231560   0.432   2.733  14.331 -0.1977 -0.6595  0.2782
 3382TIP3    H131561   0.382   2.717  14.411 -0.9535 -0.9414 -0.2398
 3382TIP3    H231562   0.452   2.827  14.333 -2.7685 -0.0238 -0.6215
 3383TIP3   OH231563   1.006   0.844  13.421  0.0495  0.2756  0.9174
 3383TIP3    H131564   1.010   0.940  13.415  1.2592  0.1648 -0.6109
 3383TIP3    H231565   0.980   0.816  13.333  0.1072 -0.8210  1.2361
 3384TIP3   OH231566   0.871   6.087  16.189 -0.7606  0.0543 -0.1339
 3384TIP3    H131567   0.934   6.072  16.119 -1.6039  1.4832 -1.2636
 3384TIP3    H231568   0.892   6.175  16.222 -0.6159 -0.4460  1.1698
 3385TIP3   OH231569   1.390   2.120  13.325 -0.2289  1.0109  0.4580
 3385TIP3    H131570   1.453   2.076  13.383 -0.1748  0.4516 -0.0209
 3385TIP3    H231571   1.385   2.064  13.248 -0.9702  1.2993  0.2912
 3386TIP3   OH231572   5.373   2.837   4.706 -0.1309  0.4132  0.1694
 3386TIP3    H131573   5.304   2.800   4.760  0.7324 -0.6383  0.5727
 3386TIP3    H231574   5.434   2.876   4.768  1.7016 -2.2062  0.1593
 3387TIP3   OH231575   2.350   5.768   4.971  0.1933 -0.4423 -0.4128
 3387TIP3    H131576   2.301   5.847   4.950  2.6310  1.0159 -0.9943
 3387TIP3    H231577   2.345   5.762   5.067 -1.3173 -0.5408 -0.4640
 3388TIP3   OH231578   2.944   3.824  12.227  0.4733  0.3836 -0.2433
 3388TIP3    H131579   3.034   3.839  12.198  0.2773  0.2480 -0.9444
 3388TIP3    H231580   2.904   3.774  12.156 -0.0224  0.0301  0.2756
 3389TIP3   OH231581   2.463   2.787   4.764  0.2268 -0.2156  0.0215
 3389TIP3    H131582   2.532   2.741   4.716  2.5315  2.2402  0.7293
 3389TIP3    H231583   2.438   2.860   4.708 -1.5745 -0.8069 -0.0232
 3390TIP3   OH231584   3.313   5.505   3.250  0.6026  0.1062  0.1026
 3390TIP3    H131585   3.288   5.509   3.157 -0.6171 -0.6443  0.3709
 3390TIP3    H231586   3.265   5.576   3.291  0.2227 -0.2778  0.3369
 3391TIP3   OH231587   5.051   3.662  16.148  0.1985 -0.2502 -0.5805
 3391TIP3    H131588   5.038   3.738  16.091  2.1590 -0.1147 -0.8888
 3391TIP3    H231589   5.037   3.696  16.237  0.4707  0.3347 -0.7566
 3392TIP3   OH231590   1.121   1.040   5.842  0.5912 -0.3817 -0.5092
 3392TIP3    H131591   1.193   1.101   5.824  0.7895 -0.7867 -1.1110
 3392TIP3    H231592   1.045   1.083   5.803  0.2567  0.6010  1.1291
 3393TIP3   OH231593   4.534   3.005  15.440  0.0160 -0.4364  0.1924
 3393TIP3    H131594   4.441   2.991  15.455 -0.1779  0.4251 -0.1072
 3393TIP3    H231595   4.551   3.093  15.476  0.4337 -0.0744 -0.8369
 3394TIP3   OH231596   3.757   5.314  13.777 -0.1737  0.0388  0.3761
 3394TIP3    H131597   3.713   5.235  13.808  0.0898 -0.2759 -0.0269
 3394TIP3    H231598   3.792   5.355  13.856 -0.1845 -0.3296  0.5761
 3395TIP3   OH231599   0.502   5.798  16.821  0.7010 -0.3613  0.0320
 3395TIP3    H131600   0.539   5.857  16.755 -0.9720 -0.0844 -0.7274
 3395TIP3    H231601   0.496   5.713  16.776 -1.6937  0.1282 -0.7276
 3396TIP3   OH231602   4.779   2.745  16.022 -0.0393  0.2660 -0.0591
 3396TIP3    H131603   4.856   2.710  15.977  0.2577  1.9856 -0.9570
 3396TIP3    H231604   4.706   2.722  15.965 -0.1423 -0.7406  0.4419
 3397TIP3   OH231605   3.792   3.870  13.322  0.5775  0.6685 -0.0288
 3397TIP3    H131606   3.855   3.942  13.318 -0.8616  1.9201 -1.4726
 3397TIP3    H231607   3.776   3.846  13.231 -0.6167 -0.0015  0.3290
 3398TIP3   OH231608   4.078   2.237  15.641 -0.3164  0.0119 -0.1813
 3398TIP3    H131609   4.119   2.196  15.716 -0.5850 -1.8899 -1.0124
 3398TIP3    H231610   4.143   2.230  15.571 -0.3581  1.0747 -0.3444
 3399TIP3   OH231611   2.918   6.382   4.904  0.2377 -0.3627 -0.1843
 3399TIP3    H131612   2.873   6.467   4.902  0.5498 -0.1579  0.7827
 3399TIP3    H231613   2.943   6.366   4.813 -1.0937 -0.1088 -0.6055
 3400TIP3   OH231614   6.535   4.635   2.149  0.2386 -0.1219  0.3488
 3400TIP3    H131615   6.526   4.730   2.145  0.2653 -0.1433 -0.3489
 3400TIP3    H231616   6.567   4.610   2.062 -0.3700 -0.8363  0.3193
 3401TIP3   OH231617   0.065   5.203  15.653 -0.4582  0.1016  0.0164
 3401TIP3    H131618   0.105   5.281  15.691 -0.4646  1.0991 -1.9218
 3401TIP3    H231619  -0.016   5.191  15.703 -0.3692  1.2389  0.4602
 3402TIP3   OH231620   3.606   4.038   2.768  0.2680 -0.4068 -0.4315
 3402TIP3    H131621   3.589   4.132   2.779  3.8565  0.3310 -0.1349
 3402TIP3    H231622   3.632   4.029   2.676 -0.0389 -1.1205 -0.4518
 3403TIP3   OH231623   5.521   4.543  14.215  0.4244  0.3309  0.3124
 3403TIP3    H131624   5.536   4.560  14.122  0.4387 -0.0793  0.2393
 3403TIP3    H231625   5.427   4.555  14.227  0.4003  0.2364  0.2144
 3404TIP3   OH231626   3.284   5.728  15.051  0.1351 -0.1194 -0.1439
 3404TIP3    H131627   3.318   5.741  15.139 -0.8244  0.0339  0.2085
 3404TIP3    H231628   3.313   5.806  15.002  0.9705 -0.3729 -0.0757
 3405TIP3   OH231629   5.166   1.566  11.999  0.0678  0.0422 -0.0707
 3405TIP3    H131630   5.124   1.581  11.915 -1.6506 -1.8972  0.3664
 3405TIP3    H231631   5.169   1.470  12.008  1.6416  0.1744  1.3921
 3406TIP3   OH231632   2.153   5.202  13.502 -0.1012  0.2654 -0.2668
 3406TIP3    H131633   2.213   5.203  13.576  1.1210  0.9133 -1.2317
 3406TIP3    H231634   2.073   5.244  13.535  1.1000  2.3363  0.1882
 3407TIP3   OH231635   1.589   2.524   3.734  0.8732  0.8015  0.1325
 3407TIP3    H131636   1.594   2.472   3.654 -0.2582  0.6454  0.1471
 3407TIP3    H231637   1.565   2.461   3.802 -0.6000  1.3275  0.1310
 3408TIP3   OH231638   2.223   1.997  14.148  0.0086 -0.4024 -0.5852
 3408TIP3    H131639   2.191   2.048  14.222 -0.5582  0.9010 -1.6838
 3408TIP3    H231640   2.214   1.906  14.175  0.5893  0.0462  1.2509
 3409TIP3   OH231641   4.379   5.090  16.623  0.4824  0.0632  0.2459
 3409TIP3    H131642   4.295   5.105  16.579 -0.5884  2.1577  2.7210
 3409TIP3    H231643   4.371   5.002  16.660 -0.4303  0.0138 -0.0281
 3410TIP3   OH231644   3.330   6.467   4.641 -0.8629  0.0019 -0.2610
 3410TIP3    H131645   3.322   6.557   4.672 -0.1251 -0.4199  1.2101
 3410TIP3    H231646   3.404   6.469   4.580  2.1226 -0.3510  3.0434
 3411TIP3   OH231647   2.011   3.951   0.998 -0.3165 -0.1177 -0.0024
 3411TIP3    H131648   1.979   3.878   1.052 -0.1986  1.9980  3.1993
 3411TIP3    H231649   1.960   4.027   1.027  1.3020  1.5969 -1.3724
 3412TIP3   OH231650   5.521   3.831   4.977 -0.2471  0.0283 -0.1756
 3412TIP3    H131651   5.461   3.816   4.904  0.3767  0.9991 -0.9101
 3412TIP3    H231652   5.601   3.785   4.953  0.0377  0.5396 -0.2200
 3413TIP3   OH231653   3.042   2.030   4.161  0.1745 -0.1146  0.1112
 3413TIP3    H131654   3.053   2.116   4.121 -0.3980  1.2835  2.7087
 3413TIP3    H231655   3.127   1.987   4.151  0.5585  0.8464 -0.9849
 3414TIP3   OH231656   5.282   1.395  15.404  0.8310 -0.2484 -0.4185
 3414TIP3    H131657   5.305   1.380  15.496 -0.1562 -0.8861 -0.2482
 3414TIP3    H231658   5.359   1.369  15.355  0.7712 -1.6407  0.1527
 3415TIP3   OH231659   0.062   6.461  11.239  0.3164  0.2437 -0.1986
 3415TIP3    H131660   0.008   6.470  11.160  1.7490 -0.8179 -1.3645
 3415TIP3    H231661   0.007   6.411  11.300 -0.5528  0.4386 -0.8006
 3416TIP3   OH231662   2.076   4.161  14.968 -0.7900 -0.0526  0.5623
 3416TIP3    H131663   2.154   4.201  15.007 -0.8624 -1.6628  2.5066
 3416TIP3    H231664   2.027   4.235  14.933  0.3854  1.2705  1.5729
 3417TIP3   OH231665   5.925   5.585  16.367  0.1564  0.2107  0.1611
 3417TIP3    H131666   5.858   5.567  16.434  0.0245 -0.9404 -0.2501
 3417TIP3    H231667   5.906   5.522  16.297  0.7720  0.8703 -0.6184
 3418TIP3   OH231668   5.177   0.283  15.035  0.4375 -0.1204 -0.7877
 3418TIP3    H131669   5.109   0.216  15.030 -0.4701  0.4671  2.0771
 3418TIP3    H231670   5.144   0.355  14.981  0.3382 -1.0734 -2.0211
 3419TIP3   OH231671   6.016   4.003  14.509 -0.4553 -0.4047  0.0920
 3419TIP3    H131672   6.037   4.069  14.575 -1.2661 -0.6350  0.5941
 3419TIP3    H231673   6.032   3.919  14.552 -2.5974 -0.6003  0.6003
 3420TIP3   OH231674   3.741   6.373   2.705  0.8462 -0.1139 -0.2888
 3420TIP3    H131675   3.715   6.433   2.775  0.8477  0.2815 -0.6192
 3420TIP3    H231676   3.684   6.396   2.632  1.5569  0.1924 -0.7491
 3421TIP3   OH231677   4.514   2.503  11.697  0.0458 -0.6620 -0.1280
 3421TIP3    H131678   4.484   2.412  11.696  1.6875 -1.2388 -0.6739
 3421TIP3    H231679   4.606   2.498  11.723  0.1788  0.8386 -0.2023
 3422TIP3   OH231680   3.428   1.581   5.269  0.1997 -0.5789  0.1060
 3422TIP3    H131681   3.493   1.651   5.264  0.4277 -0.6375  1.8050
 3422TIP3    H231682   3.412   1.557   5.178  1.5685  0.3403 -0.4058
 3423TIP3   OH231683   2.413   5.197   5.323  0.2456 -0.0663 -0.3114
 3423TIP3    H131684   2.369   5.138   5.261 -2.2003  2.0706 -0.7797
 3423TIP3    H231685   2.473   5.247   5.268  1.4981 -1.2683 -0.0974
 3424TIP3   OH231686   3.600   6.374   1.296  0.0904 -0.6890 -0.2740
 3424TIP3    H131687   3.677   6.327   1.327 -0.2664 -0.8290  0.4398
 3424TIP3    H231688   3.537   6.365   1.368 -0.8705 -1.2548 -1.1594
 3425TIP3   OH231689   2.226   0.742  12.411  0.0936  0.0767  0.1966
 3425TIP3    H131690   2.238   0.827  12.368  0.4613  0.1987  0.5401
 3425TIP3    H231691   2.285   0.744  12.486 -1.4550  0.3906  1.4811
 3426TIP3   OH231692   1.190   1.373   0.651  0.3931 -0.1697  0.0271
 3426TIP3    H131693   1.184   1.467   0.668  0.1133 -0.3126  0.7506
 3426TIP3    H231694   1.284   1.354   0.647  0.4746  0.3837 -1.5980
 3427TIP3   OH231695   4.090   0.256   2.959 -0.7467  0.0891 -0.0070
 3427TIP3    H131696   4.125   0.318   3.022  0.5988  0.4098 -1.0202
 3427TIP3    H231697   4.141   0.176   2.972 -0.5963  0.0920 -0.5427
 3428TIP3   OH231698   1.530   1.313  15.222 -0.2203  0.1700  0.3967
 3428TIP3    H131699   1.499   1.291  15.135 -0.2104 -0.2393  0.4958
 3428TIP3    H231700   1.611   1.362  15.207  0.9264 -1.6701  0.2034
 3429TIP3   OH231701   6.113   4.953   1.001 -0.3121  0.0188  0.0280
 3429TIP3    H131702   6.205   4.932   1.016 -0.3693 -0.4714 -0.2905
 3429TIP3    H231703   6.107   5.047   1.019  0.4186  0.2315 -0.7593
 3430TIP3   OH231704   4.944   5.596   2.516 -0.0480 -0.1928 -0.0474
 3430TIP3    H131705   4.987   5.510   2.507  0.0523 -0.1188 -0.2910
 3430TIP3    H231706   4.878   5.597   2.447 -1.7058 -1.0319  1.4288
 3431TIP3   OH231707   6.543   1.628  13.695  0.1121  0.5310 -0.3807
 3431TIP3    H131708   6.585   1.674  13.768  0.6906  1.1740 -1.1047
 3431TIP3    H231709   6.511   1.546  13.733  2.8636 -0.4542 -0.0074
 3432TIP3   OH231710   4.864   4.651  15.282 -0.2829  0.3248 -0.1050
 3432TIP3    H131711   4.895   4.718  15.220  1.4625 -0.1057  0.2637
 3432TIP3    H231712   4.787   4.613  15.239 -3.0318  4.2220  0.7478
 3433TIP3   OH231713   1.631   1.898  10.449 -0.3617 -0.0414  0.3626
 3433TIP3    H131714   1.594   1.986  10.445 -1.8227 -0.6350  0.0433
 3433TIP3    H231715   1.723   1.910  10.428 -0.4787  1.4365  0.5608
 3434TIP3   OH231716   6.541   6.483   5.531  0.0944  0.4087 -0.0498
 3434TIP3    H131717   6.613   6.518   5.478 -0.2969  0.7141 -0.3852
 3434TIP3    H231718   6.559   6.514   5.620 -0.6523  2.1429 -0.4653
 3435TIP3   OH231719   2.379   2.117  11.601  0.5032  0.1222  0.3142
 3435TIP3    H131720   2.302   2.134  11.546  0.8502  0.1385 -0.1727
 3435TIP3    H231721   2.343   2.075  11.679 -0.1485  1.2910  0.6683
 3436TIP3   OH231722   1.468   1.256   4.013 -0.0500 -0.7834  0.1839
 3436TIP3    H131723   1.537   1.321   4.025 -0.5194 -0.2950  0.2309
 3436TIP3    H231724   1.493   1.209   3.934  0.0853 -0.2940 -0.0661
 3437TIP3   OH231725   5.712   3.123  15.057 -0.1557  0.2459  0.4562
 3437TIP3    H131726   5.622   3.117  15.090  0.5013 -0.4308  2.3087
 3437TIP3    H231727   5.725   3.215  15.037 -1.0806  0.4467  0.7420
 3438TIP3   OH231728   3.083   6.299   2.671  0.2648 -0.2450  0.4399
 3438TIP3    H131729   3.056   6.262   2.586 -0.8634 -0.9376  1.0622
 3438TIP3    H231730   3.177   6.312   2.663  0.0280  0.6901 -1.2800
 3439TIP3   OH231731   2.837   1.230  14.852  0.4727 -0.2056  0.5467
 3439TIP3    H131732   2.918   1.264  14.814  0.9307 -1.5944  0.2113
 3439TIP3    H231733   2.813   1.294  14.920  1.1328  0.8857 -0.2189
 3440TIP3   OH231734   2.053   4.459   5.137 -0.3747 -0.0288  0.4714
 3440TIP3    H131735   1.969   4.429   5.174  0.9541 -2.0377  2.0947
 3440TIP3    H231736   2.068   4.401   5.062 -0.3122  0.1496  0.3462
 3441TIP3   OH231737   1.590   0.690  13.943 -0.2633  0.2762 -0.0982
 3441TIP3    H131738   1.500   0.659  13.959  0.5092 -2.0912  0.0932
 3441TIP3    H231739   1.605   0.671  13.850  0.4786 -0.6323  0.1959
 3442TIP3   OH231740   4.781   5.447  10.758  0.0822  0.0184 -0.5138
 3442TIP3    H131741   4.771   5.354  10.778 -0.8629  0.1947 -0.1114
 3442TIP3    H231742   4.843   5.479  10.824  0.5634 -0.3533 -0.7751
 3443TIP3   OH231743   1.129   4.071   1.972  0.0643  0.0572 -0.0515
 3443TIP3    H131744   1.189   4.005   2.008 -1.6690 -0.2342  2.5845
 3443TIP3    H231745   1.076   4.023   1.909  0.2641 -0.5477  0.2239
 3444TIP3   OH231746   2.746   4.741  14.855  0.3077 -0.1093  0.0198
 3444TIP3    H131747   2.701   4.822  14.832  0.5256 -0.0784 -0.3054
 3444TIP3    H231748   2.832   4.749  14.815  0.5553 -0.2249  0.5321
 3445TIP3   OH231749   4.178   0.073  15.428  0.2918  0.1235  0.5565
 3445TIP3    H131750   4.271   0.056  15.440  0.5279  1.4971  0.8832
 3445TIP3    H231751   4.159   0.144  15.490 -1.1519 -0.6853  1.0798
 3446TIP3   OH231752   3.442   3.197   4.341  0.1634  0.7812  0.3396
 3446TIP3    H131753   3.494   3.190   4.421  0.6443 -0.2294 -0.0540
 3446TIP3    H231754   3.367   3.252   4.367  1.2420  2.0024  0.9870
 3447TIP3   OH231755   1.104   5.782  11.353  0.3311  0.5554 -0.3724
 3447TIP3    H131756   1.043   5.825  11.293  0.9785  1.3493 -0.4828
 3447TIP3    H231757   1.171   5.744  11.297  1.5862  2.3107 -0.1587
 3448TIP3   OH231758   4.398   1.108   1.058 -0.2364  0.3104 -0.4662
 3448TIP3    H131759   4.435   1.190   1.091 -0.3860 -0.3007  1.2960
 3448TIP3    H231760   4.471   1.064   1.015  1.4056 -1.0726  3.2963
 3449TIP3   OH231761   5.537   0.805   5.140  0.1353  0.2507  0.1803
 3449TIP3    H131762   5.575   0.841   5.060  1.6728  0.5521  1.0140
 3449TIP3    H231763   5.450   0.774   5.113  0.8692 -0.2832 -1.7453
 3450TIP3   OH231764   4.995   0.751  16.956 -0.4855 -0.9383  0.2789
 3450TIP3    H131765   5.009   0.783  17.045  4.1568  0.9462 -0.8201
 3450TIP3    H231766   5.025   0.660  16.958  0.4666 -0.6352  0.5430
 3451TIP3   OH231767   4.885   3.795   4.852 -0.2195  0.3676  0.8991
 3451TIP3    H131768   4.878   3.810   4.946  0.0286 -0.1939  1.0122
 3451TIP3    H231769   4.811   3.737   4.832 -2.2537  3.0415  0.1508
 3452TIP3   OH231770   2.845   2.187   6.736 -0.3774 -0.3581  0.0765
 3452TIP3    H131771   2.848   2.256   6.669 -0.3930  0.4403  0.8670
 3452TIP3    H231772   2.863   2.106   6.689  0.4818  0.2948 -0.7449
 3453TIP3   OH231773   2.787   5.671   0.927  0.1471 -0.4309 -0.7442
 3453TIP3    H131774   2.710   5.723   0.952  0.7783  0.6869 -1.0649
 3453TIP3    H231775   2.826   5.646   1.011 -1.5660 -2.6536 -0.4988
 3454TIP3   OH231776   6.294   3.285  16.901  0.4615  0.3130 -0.0100
 3454TIP3    H131777   6.222   3.340  16.932 -0.1438 -0.9919  0.9676
 3454TIP3    H231778   6.350   3.345  16.850  1.3107  2.5218  3.2120
 3455TIP3   OH231779   1.533   3.984   6.441 -0.3091 -0.2583 -0.1211
 3455TIP3    H131780   1.573   3.899   6.458 -0.8105 -0.6084 -0.6534
 3455TIP3    H231781   1.479   3.970   6.363 -0.4333  0.5354 -0.1864
 3456TIP3   OH231782   3.037   4.336   5.787  0.3752 -0.2265  0.3364
 3456TIP3    H131783   3.099   4.408   5.784  1.2315 -0.8612  1.5007
 3456TIP3    H231784   2.962   4.365   5.736  1.4724  0.7183 -0.7962
 3457TIP3   OH231785   1.565   0.880   2.235 -0.3305 -0.3192  0.3566
 3457TIP3    H131786   1.641   0.822   2.237 -0.9974 -1.2500 -0.5270
 3457TIP3    H231787   1.499   0.832   2.185 -1.2819  0.7453  0.5472
 3458TIP3   OH231788   1.057   4.863  13.275  0.9380  0.9092 -0.5939
 3458TIP3    H131789   1.124   4.802  13.305 -1.3956 -0.9402  1.2196
 3458TIP3    H231790   0.988   4.807  13.237 -0.9538  2.4187  0.4118
 3459TIP3   OH231791   2.886   5.924  10.592 -0.1531 -0.0015  0.2459
 3459TIP3    H131792   2.821   5.928  10.662  1.6418 -1.6476  2.1688
 3459TIP3    H231793   2.877   5.836  10.556  2.3661 -1.1657  2.1268
 3460TIP3   OH231794   6.491   6.384   4.355 -0.3515  0.3574  0.7266
 3460TIP3    H131795   6.399   6.375   4.331 -0.2682 -0.0816  0.5522
 3460TIP3    H231796   6.521   6.294   4.367 -0.0749  0.5214  1.2830
 3461TIP3   OH231797   2.654   2.021  14.507 -0.0143  0.0106  0.1948
 3461TIP3    H131798   2.634   1.936  14.545 -0.3123  0.1440  0.3389
 3461TIP3    H231799   2.748   2.018  14.490  0.3311  0.3011  1.8618
 3462TIP3   OH231800   2.461   3.747   2.115  0.6072 -0.4177 -0.0697
 3462TIP3    H131801   2.372   3.734   2.150  0.2614  0.8009 -0.4452
 3462TIP3    H231802   2.490   3.659   2.092  0.0698 -1.0256  1.3923
 3463TIP3   OH231803   4.241   0.336   5.109  0.2807  0.1001 -0.1983
 3463TIP3    H131804   4.336   0.328   5.099  0.3174  1.0417 -0.7067
 3463TIP3    H231805   4.217   0.412   5.056 -0.8536 -0.5151 -0.6109
 3464TIP3   OH231806   6.411   6.382   0.041  0.1079 -0.2367 -0.0867
 3464TIP3    H131807   6.392   6.474   0.020  0.3112 -0.1236  0.2219
 3464TIP3    H231808   6.368   6.333  -0.029  0.2200  0.1062 -0.4064
 3465TIP3   OH231809   2.851   2.274  17.047 -0.4939  0.3361 -0.1567
 3465TIP3    H131810   2.875   2.227  16.968 -2.0660  1.1849 -1.1809
 3465TIP3    H231811   2.934   2.306  17.082  0.3902 -1.4263 -0.5337
 3466TIP3   OH231812   4.382   5.885   1.944  0.7746 -0.3212 -0.3608
 3466TIP3    H131813   4.364   5.801   1.903  1.9039 -1.4327  1.3145
 3466TIP3    H231814   4.347   5.878   2.032 -0.3652  1.5132 -0.6122
 3467TIP3   OH231815   5.919   2.126  17.191 -0.1590  0.9515  0.3913
 3467TIP3    H131816   5.947   2.211  17.225 -0.6229  1.4094 -0.3630
 3467TIP3    H231817   5.873   2.145  17.110  3.0912 -0.2698 -1.9744
 3468TIP3   OH231818   6.564   6.295  12.384  0.1462  0.0523 -0.2053
 3468TIP3    H131819   6.583   6.346  12.464  0.7552  0.2923 -0.4952
 3468TIP3    H231820   6.640   6.238  12.374  0.3742  0.4723 -0.9616
 3469TIP3   OH231821   0.053   2.117   3.482 -0.3374 -0.6434  0.2918
 3469TIP3    H131822  -0.007   2.192   3.487 -0.9148 -1.1058  0.4188
 3469TIP3    H231823  -0.005   2.041   3.470  0.2731 -1.0063 -0.4269
 3470TIP3   OH231824   0.011   2.833  16.689 -0.4943 -0.3365 -0.1719
 3470TIP3    H131825   0.051   2.831  16.776  0.6426  0.6491 -0.6325
 3470TIP3    H231826   0.081   2.806  16.630 -1.4190 -1.5679 -0.7488
 3471TIP3   OH231827   0.676   4.414  10.968  0.2646  0.2563 -0.2171
 3471TIP3    H131828   0.624   4.335  10.962 -2.1018  1.7314 -0.4382
 3471TIP3    H231829   0.693   4.439  10.877 -1.5572  1.5154 -0.2653
 3472TIP3   OH231830   5.913   4.406   3.882  0.3675  0.3643 -0.0796
 3472TIP3    H131831   5.933   4.491   3.842  1.0823  0.2560  0.0220
 3472TIP3    H231832   5.900   4.426   3.975 -2.4765  0.7967 -0.4786
 3473TIP3   OH231833   2.910   5.813  11.642  0.1935 -0.1040 -0.4777
 3473TIP3    H131834   2.956   5.764  11.711 -1.1098 -0.8288 -0.0814
 3473TIP3    H231835   2.910   5.903  11.673 -1.1284 -0.5379  0.9740
 3474TIP3   OH231836   5.244   0.956  15.355 -0.1752  0.0489  0.1097
 3474TIP3    H131837   5.191   1.012  15.298 -0.8656 -1.9004 -1.2490
 3474TIP3    H231838   5.215   0.867  15.335  2.9718 -1.0670 -0.0155
 3475TIP3   OH231839   2.914   3.918   3.555 -0.2348  0.0726  0.0478
 3475TIP3    H131840   2.892   4.001   3.596  0.0304  0.2057 -0.0834
 3475TIP3    H231841   3.000   3.895   3.590  1.5317  1.7677 -2.8179
 3476TIP3   OH231842   4.554   3.156  12.479 -0.0926 -0.1508  0.5344
 3476TIP3    H131843   4.553   3.062  12.496 -0.9776 -0.4152 -0.8646
 3476TIP3    H231844   4.515   3.195  12.558  1.2286 -0.8507  1.5660
 3477TIP3   OH231845   4.586   2.106   1.192  0.1123  0.2200  0.1321
 3477TIP3    H131846   4.503   2.125   1.147 -0.7944 -1.6770  0.8821
 3477TIP3    H231847   4.619   2.028   1.148  0.4878 -0.1885  1.1173
 3478TIP3   OH231848   2.596   5.627  14.027  0.1955  0.7569 -0.1654
 3478TIP3    H131849   2.502   5.642  14.024  0.1606  0.5542 -0.0316
 3478TIP3    H231850   2.610   5.546  13.978  0.1792  0.1845  0.7547
 3479TIP3   OH231851   0.665   3.104   1.725  0.4377  0.0949 -0.0767
 3479TIP3    H131852   0.692   3.134   1.638 -2.3897 -1.3051 -1.5631
 3479TIP3    H231853   0.606   3.172   1.757  1.0015  0.3166  0.5316
 3480TIP3   OH231854   3.454   0.511  12.437  0.2919 -0.2802  0.2896
 3480TIP3    H131855   3.360   0.496  12.443  0.2017  0.1082 -0.1538
 3480TIP3    H231856   3.479   0.541  12.524  0.4187 -2.5717  1.1241
 3481TIP3   OH231857   0.764   3.314   4.109 -0.3618  0.4141  0.5685
 3481TIP3    H131858   0.783   3.403   4.078 -2.4056  1.4488  1.9957
 3481TIP3    H231859   0.693   3.326   4.173  0.3268 -2.1046  1.9330
 3482TIP3   OH231860   2.886   1.561  17.150  0.1337 -0.9573  0.6473
 3482TIP3    H131861   2.805   1.510  17.141 -1.2611  1.2257 -0.0498
 3482TIP3    H231862   2.862   1.634  17.207  1.1169  0.6291 -0.8850
 3483TIP3   OH231863   1.732   5.732  16.075  0.3824  0.7662  0.5069
 3483TIP3    H131864   1.759   5.682  16.153 -0.4961  1.0615  1.0135
 3483TIP3    H231865   1.667   5.676  16.033 -0.2292  1.2503  0.7983
 3484TIP3   OH231866   3.492   5.169   2.503  0.3458  0.1495 -0.7663
 3484TIP3    H131867   3.506   5.235   2.436  0.5291  1.1379  0.2151
 3484TIP3    H231868   3.438   5.212   2.569 -0.3808 -1.0068 -0.5712
 3485TIP3   OH231869   4.809   4.409   3.744  0.0275  1.2103 -0.3849
 3485TIP3    H131870   4.860   4.465   3.685 -0.1125  1.3769 -0.3482
 3485TIP3    H231871   4.783   4.335   3.689  0.4632  1.0289 -0.3568
 3486TIP3   OH231872   3.669   6.635   4.438 -0.1169 -0.2863 -0.3599
 3486TIP3    H131873   3.750   6.623   4.487  2.1796  1.8607 -3.2970
 3486TIP3    H231874   3.661   6.730   4.427  0.2325 -0.5921 -4.9699
 3487TIP3   OH231875   4.931   5.443  13.039  0.2617  0.1748 -0.3805
 3487TIP3    H131876   4.993   5.401  13.099  0.5305 -1.2632 -1.6091
 3487TIP3    H231877   4.973   5.525  13.014 -0.2702  1.2957  2.0822
 3488TIP3   OH231878   6.051   0.643  14.807  0.1327 -0.1578  0.2190
 3488TIP3    H131879   5.991   0.570  14.821  0.4532 -0.7492 -1.2929
 3488TIP3    H231880   6.136   0.610  14.836 -0.1064  0.4171  1.6438
 3489TIP3   OH231881   2.957   6.047   4.839  0.3830 -0.0666 -0.2910
 3489TIP3    H131882   2.997   5.965   4.809  0.2451  0.1438 -1.0570
 3489TIP3    H231883   3.014   6.076   4.910  0.4624 -0.7999 -0.0437
 3490TIP3   OH231884   2.743   2.168  15.580 -0.2729 -0.0082 -0.1473
 3490TIP3    H131885   2.742   2.092  15.521 -0.1414  0.2023 -0.4225
 3490TIP3    H231886   2.778   2.134  15.662 -0.7575 -0.3765 -0.0883
 3491TIP3   OH231887   2.162   5.126   4.101 -0.0188  0.1609 -0.0721
 3491TIP3    H131888   2.104   5.114   4.026 -0.9620  0.9641  0.5239
 3491TIP3    H231889   2.169   5.038   4.139  2.6912 -0.9149 -2.6349
 3492TIP3   OH231890   3.627   5.477  16.891  0.5517  0.3236 -0.6859
 3492TIP3    H131891   3.569   5.423  16.945 -0.7535  1.4275 -0.9237
 3492TIP3    H231892   3.676   5.530  16.954 -1.1835  1.8260 -0.5422
 3493TIP3   OH231893   2.785   6.396  14.141  0.3325 -0.0393 -0.1894
 3493TIP3    H131894   2.771   6.322  14.200 -1.4432 -0.3101 -0.8817
 3493TIP3    H231895   2.710   6.394  14.082  0.1294  2.4271 -0.1251
 3494TIP3   OH231896   4.512   4.749  15.384  0.0137 -0.4740  0.0252
 3494TIP3    H131897   4.518   4.668  15.334  1.5761 -0.1410 -0.4016
 3494TIP3    H231898   4.594   4.752  15.434 -0.5614  0.2574  0.9541
 3495TIP3   OH231899   6.611   4.314   5.497  0.0423  0.4637  0.0305
 3495TIP3    H131900   6.671   4.346   5.565 -0.7416  0.9526  0.5031
 3495TIP3    H231901   6.528   4.300   5.542 -0.1172 -0.5369 -0.5491
 3496TIP3   OH231902   1.089   3.688   1.661 -0.2881 -0.1234 -0.1088
 3496TIP3    H131903   1.007   3.738   1.659  0.5229  1.2619 -0.2922
 3496TIP3    H231904   1.153   3.750   1.695  0.8157 -0.9861 -0.5651
 3497TIP3   OH231905   0.232   1.805  16.033 -0.0599  0.5401 -0.2815
 3497TIP3    H131906   0.321   1.786  16.003  0.4733  1.6535  0.5523
 3497TIP3    H231907   0.242   1.876  16.097 -1.3938 -0.2053  0.8213
 3498TIP3   OH231908   1.563   1.542   1.289 -0.2118 -0.0653  0.1978
 3498TIP3    H131909   1.473   1.565   1.268 -0.2286  0.0889  0.4267
 3498TIP3    H231910   1.561   1.520   1.382 -0.1823 -0.9654 -0.0135
 3499TIP3   OH231911   5.954   6.578   6.708  0.1276 -0.5371  0.1676
 3499TIP3    H131912   5.875   6.563   6.759  0.2509  0.1080  0.5671
 3499TIP3    H231913   5.922   6.598   6.619 -0.2456  0.8780  0.5873
 3500TIP3   OH231914   5.894   3.274  15.560  0.6851  0.0921  0.1901
 3500TIP3    H131915   5.959   3.255  15.492 -0.5118 -1.6452 -0.5525
 3500TIP3    H231916   5.919   3.217  15.633  0.7583  0.4122  0.4167
 3501TIP3   OH231917   5.015   3.070   1.417 -0.0606 -0.0383  0.8179
 3501TIP3    H131918   5.069   3.050   1.493  1.6513 -3.2394 -1.0394
 3501TIP3    H231919   4.927   3.040   1.441  0.1392  0.2769  1.9807
 3502TIP3   OH231920   0.143   6.217  16.472  0.0173  0.3192  0.0228
 3502TIP3    H131921   0.205   6.267  16.525 -1.7998  0.1364  2.4818
 3502TIP3    H231922   0.173   6.229  16.382  1.0794  3.7874  0.7144
 3503TIP3   OH231923   2.241   3.828   4.724  0.0446  0.0585 -0.5771
 3503TIP3    H131924   2.257   3.818   4.630 -1.5498 -0.9548 -0.7984
 3503TIP3    H231925   2.221   3.921   4.735  2.2680  0.6185 -0.8454
 3504TIP3   OH231926   6.278   4.515   2.729 -0.2810  0.1394 -0.4037
 3504TIP3    H131927   6.333   4.510   2.807  1.2864 -0.5617 -1.5186
 3504TIP3    H231928   6.203   4.459   2.750  1.0482 -1.6020 -0.1037
 3505TIP3   OH231929   4.625   0.829   2.895 -0.2374  0.2853 -0.7043
 3505TIP3    H131930   4.646   0.743   2.858 -0.9105  0.5183 -1.6481
 3505TIP3    H231931   4.537   0.848   2.864 -1.2749  0.0594  1.8210
 3506TIP3   OH231932   2.106   2.879  11.308 -0.0868  1.0754  0.1556
 3506TIP3    H131933   2.134   2.879  11.216  0.5778  1.9697  0.3410
 3506TIP3    H231934   2.014   2.852  11.306 -0.0324  0.9441 -0.7567
 3507TIP3   OH231935   1.290   1.039  11.334  0.0235 -0.3879  0.2746
 3507TIP3    H131936   1.234   0.966  11.360 -2.1208  1.0858  0.1578
 3507TIP3    H231937   1.377   1.016  11.365 -0.8320 -2.3920  1.3533
 3508TIP3   OH231938   0.088   1.135  13.535  0.2781  0.0053 -0.0490
 3508TIP3    H131939   0.071   1.077  13.609  0.8085  1.1157  0.9836
 3508TIP3    H231940   0.014   1.120  13.476  0.3034 -1.5503  0.2666
 3509TIP3   OH231941   0.741   1.664  12.933  0.0856  0.1348  0.0817
 3509TIP3    H131942   0.648   1.685  12.925 -0.0310  0.1225  1.1626
 3509TIP3    H231943   0.764   1.622  12.850 -0.8002  0.3944 -0.3080
 3510TIP3   OH231944   4.575   5.884  16.913  0.2042  0.2808  0.2808
 3510TIP3    H131945   4.495   5.920  16.951 -1.3689 -3.1264  0.5237
 3510TIP3    H231946   4.550   5.859  16.824  1.8513  1.6054 -0.6234
 3511TIP3   OH231947   1.032   4.721  15.302  0.5362 -0.3938  0.8490
 3511TIP3    H131948   1.055   4.636  15.264 -0.6031 -0.4202  0.1709
 3511TIP3    H231949   1.061   4.785  15.237 -0.6883 -0.3998  0.2650
 3512TIP3   OH231950   2.882   2.541  15.702  0.6961  0.6005 -0.4612
 3512TIP3    H131951   2.917   2.517  15.788 -0.0329 -1.6783 -0.7311
 3512TIP3    H231952   2.932   2.619  15.677  4.2882 -1.3714 -0.0288
 3513TIP3   OH231953   2.387   4.107   5.109  0.0271  0.3251 -0.5452
 3513TIP3    H131954   2.459   4.064   5.063  1.0889  2.0306 -0.5683
 3513TIP3    H231955   2.348   4.166   5.044 -2.6384 -1.8449 -1.0983
 3514TIP3   OH231956   6.762   5.209  16.918  0.1149 -0.1760  0.1310
 3514TIP3    H131957   6.713   5.133  16.886 -0.7085 -0.1639  1.2855
 3514TIP3    H231958   6.830   5.172  16.975  1.4852 -0.1903 -1.4443
 3515TIP3   OH231959   0.595   0.663   2.786  0.1703  0.5887 -0.6622
 3515TIP3    H131960   0.590   0.617   2.870  0.5118 -0.8041 -1.3752
 3515TIP3    H231961   0.520   0.632   2.736 -0.7462  2.3373 -0.4748
 3516TIP3   OH231962   3.749   4.821   3.535  0.0454 -0.0404  0.4263
 3516TIP3    H131963   3.704   4.889   3.584 -1.1353  0.7994 -1.6636
 3516TIP3    H231964   3.736   4.741   3.585  3.5966  1.4709  4.3230
 3517TIP3   OH231965   5.014   1.233  15.595  0.6469  0.3755  0.8109
 3517TIP3    H131966   4.952   1.265  15.529 -0.4726 -1.9534  0.6321
 3517TIP3    H231967   5.098   1.274  15.571 -0.5715  2.8451  0.4863
 3518TIP3   OH231968   0.027   3.355  11.199  0.1028  0.1124  0.0075
 3518TIP3    H131969  -0.037   3.293  11.234 -0.2756  1.0252  0.9800
 3518TIP3    H231970   0.086   3.374  11.273  0.1011  1.0431 -0.2141
 3519TIP3   OH231971   5.072   2.606   1.366  0.1814  0.6770 -0.3130
 3519TIP3    H131972   5.141   2.540   1.364 -1.4729 -1.2100  0.8032
 3519TIP3    H231973   5.062   2.628   1.459 -0.7401  0.8435 -0.4383
 3520TIP3   OH231974   0.847   5.091   5.764  0.1757 -0.4423  0.5085
 3520TIP3    H131975   0.829   5.063   5.674 -0.7250  0.0274  0.5297
 3520TIP3    H231976   0.904   5.168   5.754 -1.8303  1.0807  0.2100
 3521TIP3   OH231977   5.341   4.292   4.142 -0.4060  0.2846 -0.3601
 3521TIP3    H131978   5.282   4.286   4.217  0.0675  0.1188  0.0058
 3521TIP3    H231979   5.329   4.380   4.108 -0.0480  0.6368  0.4019
 3522TIP3   OH231980   2.569   5.765  12.631 -0.5351  0.1897 -0.1400
 3522TIP3    H131981   2.633   5.833  12.613 -1.3127  1.1489  0.5668
 3522TIP3    H231982   2.609   5.684  12.600  0.5480  0.9229 -0.6913
 3523TIP3   OH231983   2.460   3.191  15.157  0.0176  0.3848  0.1257
 3523TIP3    H131984   2.451   3.268  15.213 -0.0416 -1.0904  2.2561
 3523TIP3    H231985   2.385   3.136  15.179 -0.3633  0.0114 -1.9155
 3524TIP3   OH231986   2.408   1.018  14.116  0.6707  1.0092 -0.4991
 3524TIP3    H131987   2.342   0.994  14.181  1.4522  0.0298 -0.0309
 3524TIP3    H231988   2.374   0.983  14.034  0.0687  1.5258 -0.4777
 3525TIP3   OH231989   5.801   2.786   6.625  0.0513 -0.6129  0.0900
 3525TIP3    H131990   5.844   2.774   6.541 -2.4929  0.1903 -1.4375
 3525TIP3    H231991   5.746   2.709   6.635 -2.5553  0.9835 -0.9447
 3526TIP3   OH231992   5.062   2.924  14.022 -0.2865  0.4132 -0.1158
 3526TIP3    H131993   5.030   3.004  13.980 -0.6133  1.2863  1.7318
 3526TIP3    H231994   5.148   2.909  13.981 -0.3692  1.5173 -0.7321
 3527TIP3   OH231995   4.684   2.673  13.138 -0.3399 -0.2107  0.3074
 3527TIP3    H131996   4.762   2.635  13.099 -0.5640  1.3076 -1.7829
 3527TIP3    H231997   4.715   2.753  13.180 -0.7615  0.5260 -0.7409
 3528TIP3   OH231998   4.681   4.778   4.378 -0.0821 -0.4087  0.2759
 3528TIP3    H131999   4.678   4.825   4.461 -0.4924  0.7525 -0.3687
 3528TIP3    H232000   4.760   4.811   4.335 -0.3873 -0.2846 -0.1930
 3529TIP3   OH232001   6.353   5.384   3.479 -0.3040  0.4765  0.1526
 3529TIP3    H132002   6.298   5.436   3.538  0.1461 -1.6693  2.6449
 3529TIP3    H232003   6.436   5.375   3.525  0.9045  0.5756 -1.8844
 3530TIP3   OH232004   3.583   6.005   5.220  0.0733  0.6264  0.1090
 3530TIP3    H132005   3.520   5.994   5.291 -0.0919  2.8208  0.3699
 3530TIP3    H232006   3.529   6.011   5.141  0.1954 -0.8003 -0.1033
 3531TIP3   OH232007   6.562   4.805  14.111 -0.0782 -0.2855  0.4070
 3531TIP3    H132008   6.598   4.804  14.022  2.2895  0.8184  1.2665
 3531TIP3    H232009   6.501   4.879  14.111  2.4137  1.9263  0.4943
 3532TIP3   OH232010   3.561   5.274  12.670 -0.0041  0.2405  0.0864
 3532TIP3    H132011   3.491   5.305  12.728  0.3792  3.5514 -0.9773
 3532TIP3    H232012   3.635   5.332  12.688  1.4411 -1.1830 -0.9853
 3533TIP3   OH232013   4.591   6.270   0.165  0.0652 -0.7617  0.0169
 3533TIP3    H132014   4.596   6.350   0.111 -1.8662  0.0424  0.9540
 3533TIP3    H232015   4.613   6.200   0.104  0.0372  0.3140 -1.3009
 3534TIP3   OH232016   5.458   4.095   0.256 -0.1385  0.3950  0.6600
 3534TIP3    H132017   5.417   4.091   0.170  0.4453  1.2067  0.3368
 3534TIP3    H232018   5.387   4.117   0.316 -0.1549  2.0778  0.0719
 3535TIP3   OH232019   1.313   3.539   1.955  0.1496 -0.5083  0.0990
 3535TIP3    H132020   1.404   3.564   1.939 -0.0449 -0.7380 -1.5561
 3535TIP3    H232021   1.318   3.475   2.026  1.2567 -0.3544  0.1804
 3536TIP3   OH232022   1.184   5.381   1.546 -0.8094 -0.1108  0.0735
 3536TIP3    H132023   1.171   5.291   1.575 -2.5332  0.4663  1.2160
 3536TIP3    H232024   1.269   5.406   1.581 -0.5520 -1.1163  0.1856
 3537TIP3   OH232025   3.225   2.650   5.450 -0.3291 -0.4998 -0.2309
 3537TIP3    H132026   3.310   2.637   5.408 -1.1873  0.4685 -2.3819
 3537TIP3    H232027   3.195   2.562   5.471  0.1373 -1.0295 -1.6672
 3538TIP3   OH232028   0.950   6.191   4.349 -0.0320  0.4820 -0.6677
 3538TIP3    H132029   0.949   6.141   4.267 -1.0140 -1.5104  0.5081
 3538TIP3    H232030   0.868   6.239   4.349  0.3979  1.2421 -1.2647
 3539TIP3   OH232031   1.164   3.742   0.322 -0.1361  0.2764 -0.2559
 3539TIP3    H132032   1.179   3.830   0.288 -0.0241  0.8209  1.1258
 3539TIP3    H232033   1.244   3.722   0.371 -0.3472 -0.4186 -0.1880
 3540TIP3   OH232034   6.515   4.371  15.729  0.0284  0.1110  0.3542
 3540TIP3    H132035   6.518   4.428  15.653 -0.0818 -0.0843  0.1989
 3540TIP3    H232036   6.438   4.316  15.714  1.5541 -1.8577 -0.7967
 3541TIP3   OH232037   4.103   6.496  11.812 -0.0135 -0.0839  0.5464
 3541TIP3    H132038   4.131   6.448  11.890  3.5655  0.4696 -0.2233
 3541TIP3    H232039   4.032   6.553  11.843  0.5963 -0.5878  3.1307
 3542TIP3   OH232040   0.389   2.499   2.728  0.0903  0.2949  0.2980
 3542TIP3    H132041   0.462   2.455   2.771  0.0275 -0.9180 -0.7875
 3542TIP3    H232042   0.312   2.452   2.758 -0.2281  1.2665  1.0602
 3543TIP3   OH232043   3.432   5.433   4.069  0.0857 -0.0334  0.3452
 3543TIP3    H132044   3.408   5.403   3.981  1.3422  0.7146 -0.2758
 3543TIP3    H232045   3.413   5.358   4.125  0.3001 -0.9231 -0.7316
 3544TIP3   OH232046   1.995   4.593  16.824 -0.3076  0.2136  0.3486
 3544TIP3    H132047   1.959   4.643  16.750  0.6029  2.1224  1.1302
 3544TIP3    H232048   2.050   4.527  16.783  0.4544  1.4547 -0.7128
 3545TIP3   OH232049   1.647   4.331   3.623  1.0684  0.4838  0.1607
 3545TIP3    H132050   1.664   4.269   3.694  0.0051  0.8059  0.7296
 3545TIP3    H232051   1.732   4.371   3.605  1.3519  0.4451  1.3152
 3546TIP3   OH232052   3.572   1.903  11.148  0.0686  0.8950 -0.3913
 3546TIP3    H132053   3.612   1.989  11.160 -0.6676  1.1971 -0.0605
 3546TIP3    H232054   3.592   1.881  11.057  1.6698  0.6648 -0.0222
 3547TIP3   OH232055   1.003   4.323   2.312  0.6188 -0.2366 -0.1787
 3547TIP3    H132056   1.077   4.349   2.257 -0.3865  0.2755 -1.3299
 3547TIP3    H232057   1.042   4.267   2.379  1.9182 -0.7308 -1.2976
 3548TIP3   OH232058   2.868   6.754   3.431 -0.1552 -0.0474 -0.1059
 3548TIP3    H132059   2.892   6.661   3.433  0.3927  0.0796 -0.5186
 3548TIP3    H232060   2.802   6.759   3.362 -1.3209 -0.3758  0.9510
 3549TIP3   OH232061   5.453   5.661  12.909 -0.4626  0.2977 -0.4447
 3549TIP3    H132062   5.394   5.588  12.931  0.4419 -1.0118 -2.0968
 3549TIP3    H232063   5.541   5.622  12.912  0.1481  1.6643 -0.1165
 3550TIP3   OH232064   5.098   1.753   3.027 -0.1722 -0.5360  0.0264
 3550TIP3    H132065   5.174   1.768   2.971 -0.7245 -0.3921 -0.6986
 3550TIP3    H232066   5.029   1.806   2.988 -1.3580 -2.6522 -0.8731
 3551TIP3   OH232067   3.498   5.012  11.177 -0.1262  0.6315  0.9034
 3551TIP3    H132068   3.449   5.043  11.254  0.8777  1.4029  1.2552
 3551TIP3    H232069   3.470   5.070  11.106 -2.6630 -1.3912  0.0937
 3552TIP3   OH232070   0.135   3.175   5.124 -0.8088 -0.1449  0.1836
 3552TIP3    H132071   0.068   3.141   5.064 -1.2943  2.2278 -0.7299
 3552TIP3    H232072   0.170   3.252   5.079 -0.7368  1.3579  2.6591
 3553TIP3   OH232073   6.751   1.801   3.705  0.0744 -0.0247 -0.3705
 3553TIP3    H132074   6.845   1.784   3.717 -0.1772 -1.5060 -0.3349
 3553TIP3    H232075   6.716   1.811   3.793 -0.0823 -1.1679 -0.2920
 3554TIP3   OH232076   3.827   2.562   3.635  0.0002 -0.3748 -0.5805
 3554TIP3    H132077   3.774   2.511   3.574 -2.5807 -0.2396  1.3535
 3554TIP3    H232078   3.780   2.555   3.718  2.2417  1.1186  0.9225
 3555TIP3   OH232079   1.210   0.457  14.783 -0.2757 -0.3707 -0.5378
 3555TIP3    H132080   1.271   0.424  14.849 -1.0190 -1.2804 -0.2795
 3555TIP3    H232081   1.159   0.524  14.829 -0.3685 -0.5513 -0.3798
 3556TIP3   OH232082   5.450   1.064   1.942  0.1680 -0.5261 -0.0405
 3556TIP3    H132083   5.405   1.076   1.859 -1.6049 -0.0442  0.9344
 3556TIP3    H232084   5.468   1.153   1.973  0.2769 -0.6819  0.3544
 3557TIP3   OH232085   3.938   6.770  15.092 -0.0327 -0.3831  0.5316
 3557TIP3    H132086   3.901   6.858  15.098 -2.6482 -1.2883 -0.4164
 3557TIP3    H232087   3.970   6.763  15.002 -0.5599 -0.6303  0.3577
 3558TIP3   OH232088   3.282   3.143   5.785 -0.1808 -0.7517 -0.1437
 3558TIP3    H132089   3.348   3.104   5.841  1.5301  1.6957 -0.2828
 3558TIP3    H232090   3.205   3.153   5.841  0.2506 -1.7430  0.6415
 3559TIP3   OH232091   1.342   2.801   0.973  0.0950 -0.0770 -0.1972
 3559TIP3    H132092   1.364   2.802   0.880  1.1516 -2.1969 -0.0386
 3559TIP3    H232093   1.247   2.788   0.974  0.3812 -3.0282 -1.1007
 3560TIP3   OH232094   3.734   6.210  10.993 -0.0333  0.7250  0.2816
 3560TIP3    H132095   3.742   6.161  11.075 -0.4736 -0.5557 -0.4266
 3560TIP3    H232096   3.823   6.219  10.962  0.0939  0.7992  0.6601
 3561TIP3   OH232097   3.160   2.287  12.232 -0.0571 -0.2094 -0.2754
 3561TIP3    H132098   3.096   2.358  12.235 -0.5418 -0.6644  0.5039
 3561TIP3    H232099   3.244   2.330  12.245 -0.4151  0.1543  1.0052
 3562TIP3   OH232100   3.528   4.338  16.802 -0.1224  0.3418 -0.4730
 3562TIP3    H132101   3.476   4.282  16.860  0.0583  0.8067  0.1462
 3562TIP3    H232102   3.614   4.295  16.800 -0.4012 -0.1958 -1.1595
 3563TIP3   OH232103   5.632   3.791  12.685  0.3019 -0.4027  0.8709
 3563TIP3    H132104   5.592   3.830  12.763  2.7079  2.1480  0.9982
 3563TIP3    H232105   5.604   3.847  12.613  1.7520  0.0727  0.6463
 3564TIP3   OH232106   4.712   3.159   2.867 -0.2600  0.6223 -0.5353
 3564TIP3    H132107   4.751   3.086   2.819 -0.6896 -0.1712  0.2946
 3564TIP3    H232108   4.623   3.131   2.886 -0.0871  0.8743  0.7821
 3565TIP3   OH232109   3.091   6.167   1.880 -0.5534 -0.3495  0.2435
 3565TIP3    H132110   3.141   6.248   1.869 -0.2081 -0.3816  1.4317
 3565TIP3    H232111   3.030   6.167   1.807  0.1163  0.4821 -0.3445
 3566TIP3   OH232112   1.269   2.031   4.862 -0.1461  0.3237  0.1051
 3566TIP3    H132113   1.305   1.977   4.933 -0.2775 -0.3622 -0.3487
 3566TIP3    H232114   1.323   2.009   4.786 -0.7612  0.1893 -0.2907
 3567TIP3   OH232115   5.934   3.157  12.114 -0.0522  0.5708  0.1523
 3567TIP3    H132116   5.988   3.236  12.122 -2.0804  1.9946  0.5374
 3567TIP3    H232117   5.868   3.166  12.182 -2.2708  0.1977 -1.8220
 3568TIP3   OH232118   1.513   4.654  12.735 -0.1319  0.0568 -0.1162
 3568TIP3    H132119   1.453   4.706  12.788 -0.1034 -0.6810  0.6567
 3568TIP3    H232120   1.554   4.594  12.796  0.4354 -0.3347 -0.8573
 3569TIP3   OH232121   5.424   6.674   5.476  0.3685 -0.2307  0.1670
 3569TIP3    H132122   5.482   6.691   5.550 -0.4969  2.2590  0.3861
 3569TIP3    H232123   5.336   6.674   5.514 -0.1995  2.3958 -0.9362
 3570TIP3   OH232124   0.916   4.070   4.134 -0.7312  0.4404  0.3818
 3570TIP3    H132125   0.950   4.085   4.222 -1.2769 -0.0541  0.6915
 3570TIP3    H232126   0.975   4.117   4.076  0.7563 -0.7660  0.8459
 3571TIP3   OH232127   6.672   4.332  15.940  0.1312 -0.2482 -0.3718
 3571TIP3    H132128   6.670   4.422  15.973 -1.3953 -0.9781  1.7241
 3571TIP3    H232129   6.606   4.330  15.872 -2.0841 -0.4315  1.6560
 3572TIP3   OH232130   3.088   1.025  15.124  0.0780 -0.6183  0.3692
 3572TIP3    H132131   3.106   0.948  15.178 -0.5399 -0.8656  0.2288
 3572TIP3    H232132   3.174   1.053  15.093  0.1175 -2.8351 -1.7770
 3573TIP3   OH232133   1.171   4.256  10.925  0.2787  0.7629  0.1914
 3573TIP3    H132134   1.247   4.264  10.984  0.0573 -1.4742  0.8594
 3573TIP3    H232135   1.202   4.203  10.852  0.1796  2.4417 -1.1191
 3574TIP3   OH232136   0.768   2.137  11.858 -0.3187 -0.0640  0.2552
 3574TIP3    H132137   0.828   2.138  11.932  0.1760  1.0011 -0.1351
 3574TIP3    H232138   0.809   2.194  11.793 -1.0894 -0.4124 -0.5626
 3575TIP3   OH232139   3.693   2.963  16.931 -0.5349  0.4839  0.0219
 3575TIP3    H132140   3.762   2.911  16.972  0.4293  0.9820 -0.9056
 3575TIP3    H232141   3.650   3.007  17.004  0.1051  0.1144  0.6352
 3576TIP3   OH232142   5.549   1.562  14.173  0.2778  0.1062  0.4154
 3576TIP3    H132143   5.598   1.547  14.091 -1.8581 -1.3732 -0.6743
 3576TIP3    H232144   5.548   1.477  14.216 -1.6420 -0.0280  0.1868
 3577TIP3   OH232145   1.573   2.818   2.861 -0.2136 -0.3684 -0.2525
 3577TIP3    H132146   1.669   2.826   2.865 -0.2939  0.3495  0.4587
 3577TIP3    H232147   1.541   2.906   2.882 -1.0459 -0.9782  1.2070
 3578TIP3   OH232148   4.679   4.811   1.338 -0.2991  0.0848 -0.4765
 3578TIP3    H132149   4.668   4.775   1.426  1.2637  0.6054 -0.0486
 3578TIP3    H232150   4.639   4.898   1.342  0.0930  0.2516 -0.1779
 3579TIP3   OH232151   5.829   2.052   4.686 -0.0043  0.1200  0.1609
 3579TIP3    H132152   5.818   1.958   4.667 -1.7473  0.4147 -0.4609
 3579TIP3    H232153   5.764   2.095   4.631  1.4147  1.7944 -0.2761
 3580TIP3   OH232154   2.544   3.523   4.560 -0.3113 -0.0089  0.2843
 3580TIP3    H132155   2.525   3.439   4.603  0.3262  0.0325  0.6550
 3580TIP3    H232156   2.630   3.548   4.593 -0.3473  0.6271 -0.0907
 3581TIP3   OH232157   6.782   5.475  12.171 -0.3807 -0.4567  0.7259
 3581TIP3    H132158   6.847   5.405  12.175 -0.2479 -0.2905  1.8740
 3581TIP3    H232159   6.703   5.433  12.137  0.4637 -0.5264 -1.2613
 3582TIP3   OH232160   0.840   1.493   0.827 -0.0656  0.0498  0.1900
 3582TIP3    H132161   0.744   1.488   0.820 -0.0292  0.5538 -0.7925
 3582TIP3    H232162   0.870   1.404   0.810 -0.3059  0.1160 -0.6170
 3583TIP3   OH232163   4.356   4.898  12.942 -0.0474 -0.8624 -0.1493
 3583TIP3    H132164   4.405   4.980  12.930 -0.2615 -0.6768  0.2314
 3583TIP3    H232165   4.356   4.857  12.855 -1.5872  0.4599 -0.8225
 3584TIP3   OH232166   4.153   4.394   2.176  0.5874 -0.2108 -0.0544
 3584TIP3    H132167   4.126   4.411   2.267 -0.8144 -0.4391 -0.4092
 3584TIP3    H232168   4.190   4.306   2.179 -0.6327 -0.7357  0.0754
 3585TIP3   OH232169   3.655   4.228  14.795 -0.5071 -0.2664 -0.1009
 3585TIP3    H132170   3.743   4.197  14.774  0.1449 -0.5002  2.6036
 3585TIP3    H232171   3.664   4.322  14.806 -0.6176 -0.2782  0.0954
 3586TIP3   OH232172   1.145   5.971  13.178 -0.2963 -0.5526 -0.0872
 3586TIP3    H132173   1.211   5.902  13.179  0.7949  0.4221 -1.4292
 3586TIP3    H232174   1.086   5.948  13.106 -0.2305 -0.3530 -0.2050
 3587TIP3   OH232175   0.727   1.036  13.229  0.3655  0.7513 -0.2211
 3587TIP3    H132176   0.800   0.984  13.197 -0.9663 -0.5998 -1.1559
 3587TIP3    H232177   0.679   0.977  13.287 -0.4572  1.3423 -0.2848
 3588TIP3   OH232178   1.341   5.079  13.007 -0.3905  0.1994  0.3982
 3588TIP3    H132179   1.253   5.084  13.044 -0.8289 -2.8756  0.0179
 3588TIP3    H232180   1.399   5.085  13.084 -1.1218 -1.3743  1.1247
 3589TIP3   OH232181   0.994   3.934  16.269 -0.5504 -0.3487  0.3753
 3589TIP3    H132182   0.967   3.851  16.308 -1.3427  0.4591  1.5847
 3589TIP3    H232183   1.090   3.930  16.269 -0.5765 -1.1778  0.5832
 3590TIP3   OH232184   2.000   5.043   3.883  0.1429  0.4360 -0.1637
 3590TIP3    H132185   2.021   5.040   3.790  2.2639  2.8090  0.1324
 3590TIP3    H232186   1.909   5.072   3.887 -0.0296  0.1200 -1.4947
 3591TIP3   OH232187   0.667   1.591   3.699  0.0650 -0.0202 -0.1204
 3591TIP3    H132188   0.614   1.514   3.718  0.8261 -0.7087 -0.6893
 3591TIP3    H232189   0.745   1.557   3.654  0.3558  1.0884 -0.5171
 3592TIP3   OH232190   2.708   6.584  13.884  0.5785 -0.2690 -0.1726
 3592TIP3    H132191   2.799   6.613  13.878  1.1301 -2.1087 -1.8646
 3592TIP3    H232192   2.707   6.500  13.838 -1.7750 -0.8104  0.7415
 3593TIP3   OH232193   3.838   1.751  15.420  0.1618  0.0581  0.0724
 3593TIP3    H132194   3.840   1.813  15.492 -2.0475 -1.1195  1.2675
 3593TIP3    H232195   3.802   1.801  15.346 -2.3170  0.1111  1.2230
 3594TIP3   OH232196   2.684   3.280   6.316 -0.3463 -0.3468 -0.3369
 3594TIP3    H132197   2.757   3.221   6.335  0.4346  0.5070 -0.6394
 3594TIP3    H232198   2.716   3.367   6.339 -1.2690  0.0431 -0.4759
 3595TIP3   OH232199   5.864   2.310  14.647  0.0296 -0.4223  0.4618
 3595TIP3    H132200   5.929   2.360  14.696  2.2531 -2.4231 -0.2342
 3595TIP3    H232201   5.887   2.218  14.663 -0.5693 -1.1857 -2.4577
 3596TIP3   OH232202   2.859   0.856  11.868 -0.0909  0.2246 -0.2329
 3596TIP3    H132203   2.766   0.836  11.859 -0.5742  2.1651  0.0273
 3596TIP3    H232204   2.903   0.790  11.813 -1.4262 -1.9107  1.1098
 3597TIP3   OH232205   0.218   1.792  11.525  0.3686  0.0326 -0.1785
 3597TIP3    H132206   0.314   1.787  11.521  0.2826 -1.7523 -0.9567
 3597TIP3    H232207   0.191   1.710  11.566 -0.8801 -0.1649 -1.3214
 3598TIP3   OH232208   2.349   3.584  14.320  0.0200  0.3653 -0.0647
 3598TIP3    H132209   2.427   3.580  14.265  0.2378 -1.5805  0.3070
 3598TIP3    H232210   2.380   3.559  14.407 -1.1599 -1.6955 -0.1536
 3599TIP3   OH232211   2.044   5.453  13.078  0.2188 -0.0592  0.1576
 3599TIP3    H132212   2.024   5.543  13.102 -0.2052 -0.5383  1.6597
 3599TIP3    H232213   2.139   5.453  13.061  0.0719  0.8382 -0.7550
 3600TIP3   OH232214   6.704   1.683  12.358  0.1455 -0.1949 -0.1666
 3600TIP3    H132215   6.763   1.721  12.293 -0.7391  0.2743 -0.7175
 3600TIP3    H232216   6.707   1.743  12.432 -1.0665  0.8575 -0.9407
 3601TIP3   OH232217   2.559   6.605   3.994 -0.2697  0.8705  0.4125
 3601TIP3    H132218   2.630   6.598   3.930 -0.7271  1.6157 -0.1873
 3601TIP3    H232219   2.561   6.521   4.040 -0.7393 -0.2308 -1.4305
 3602TIP3   OH232220   0.929   5.894   0.306  0.1929 -0.2729  0.3772
 3602TIP3    H132221   1.013   5.899   0.350  0.8942 -0.2445 -0.9164
 3602TIP3    H232222   0.951   5.878   0.214 -1.1567  0.9828 -0.2033
 3603TIP3   OH232223   2.747   3.001   5.198  0.2760 -0.6943  0.3806
 3603TIP3    H132224   2.831   3.010   5.244  2.7114  1.2867 -3.9070
 3603TIP3    H232225   2.749   2.914   5.160  1.0119 -0.2473 -0.6526
 3604TIP3   OH232226   3.724   1.373  12.550 -0.6147 -0.1267  0.4326
 3604TIP3    H132227   3.759   1.361  12.461 -0.4221 -2.1146  0.7335
 3604TIP3    H232228   3.795   1.418  12.596 -0.6841  0.8622 -0.3822
 3605TIP3   OH232229   0.076   2.692   4.797 -0.2456  0.1196 -0.2109
 3605TIP3    H132230   0.135   2.631   4.753  1.6154  1.2413  0.6129
 3605TIP3    H232231   0.068   2.765   4.736 -0.4857  0.1400 -0.1547
 3606TIP3   OH232232   1.093   1.878  12.807  0.5578  0.3091 -0.0079
 3606TIP3    H132233   1.078   1.810  12.873  1.2608  0.0113 -0.1426
 3606TIP3    H232234   1.019   1.938  12.817 -0.5812 -0.9643 -0.5022
 3607TIP3   OH232235   0.599   0.345   2.345  0.1307 -0.1040  0.4863
 3607TIP3    H132236   0.576   0.342   2.252  0.9765 -0.9427  0.2808
 3607TIP3    H232237   0.515   0.342   2.391 -0.2872  0.0937 -0.2441
 3608TIP3   OH232238   1.869   2.765  11.609 -0.1973 -0.2027  0.2148
 3608TIP3    H132239   1.961   2.741  11.596 -0.3924 -0.3798 -0.8962
 3608TIP3    H232240   1.819   2.690  11.577 -0.8133  1.3619 -2.9351
 3609TIP3   OH232241   4.279   1.918  14.870 -0.3515  0.3057  0.3184
 3609TIP3    H132242   4.330   1.912  14.950  0.2362  0.6937 -0.0203
 3609TIP3    H232243   4.233   2.002  14.877 -1.4023 -0.2944  0.8799
 3610TIP3   OH232244   1.034   0.057   3.709  0.3020  0.8349 -0.1984
 3610TIP3    H132245   1.005   0.124   3.647 -1.4003 -0.0556 -0.4339
 3610TIP3    H232246   0.960   0.049   3.770  0.6343 -0.5371  0.0443
 3611TIP3   OH232247   3.928   5.157   5.979 -0.0324  0.4430  0.0717
 3611TIP3    H132248   3.911   5.099   6.053 -0.8424  0.3234 -0.1996
 3611TIP3    H232249   3.994   5.219   6.011  1.5961 -1.2043  0.0817
 3612TIP3   OH232250   1.832   2.082   6.045  0.1415  0.3035  0.0249
 3612TIP3    H132251   1.762   2.039   5.996 -0.4221  1.8445 -0.5672
 3612TIP3    H232252   1.829   2.174   6.017  3.0391  0.2523 -0.7666
 3613TIP3   OH232253   3.137   3.589   4.444 -0.3540 -0.0347 -0.3920
 3613TIP3    H132254   3.077   3.650   4.486  1.1076  1.0529  0.1846
 3613TIP3    H232255   3.213   3.642   4.420  0.9002 -1.5821 -0.0065
 3614TIP3   OH232256   2.227   3.664   3.605 -0.4149  0.0977  0.6045
 3614TIP3    H132257   2.282   3.586   3.604 -1.8727 -0.9703 -0.5884
 3614TIP3    H232258   2.247   3.709   3.523 -1.6742 -0.5890 -0.1031
 3615TIP3   OH232259   3.695   6.325   4.180  0.2053  0.2847  0.0245
 3615TIP3    H132260   3.781   6.283   4.167  1.1981  1.5144  2.0769
 3615TIP3    H232261   3.712   6.418   4.164 -0.3356  0.7506  1.9230
 3616TIP3   OH232262   5.196   3.665   1.632 -0.7346 -0.0015 -0.1717
 3616TIP3    H132263   5.197   3.588   1.688 -1.4460  0.5723  0.6415
 3616TIP3    H232264   5.288   3.679   1.609 -0.6047 -1.1060 -0.3671
 3617TIP3   OH232265   5.173   6.748  13.276  0.0991  0.6444  0.2554
 3617TIP3    H132266   5.181   6.765  13.183  0.5313 -1.7671 -0.2074
 3617TIP3    H232267   5.228   6.672  13.292 -0.1333  0.8680  2.4475
 3618TIP3   OH232268   5.799   5.160  12.830  0.4450  0.2013  0.4267
 3618TIP3    H132269   5.778   5.166  12.924 -2.6089 -0.3265 -0.1296
 3618TIP3    H232270   5.797   5.066  12.811  0.6759  0.3289 -0.2568
 3619TIP3   OH232271   5.042   3.996  10.727  0.4325 -0.2242  0.1280
 3619TIP3    H132272   4.980   3.934  10.765  1.5970 -1.2119  0.4723
 3619TIP3    H232273   5.002   4.082  10.740 -1.2275 -0.8867 -0.3864
 3620TIP3   OH232274   3.912   5.297   4.300 -0.0042 -0.0385  0.2101
 3620TIP3    H132275   3.903   5.392   4.291 -0.5245 -0.0389  0.7208
 3620TIP3    H232276   3.991   5.285   4.353  0.6837  0.0744 -0.7687
 3621TIP3   OH232277   4.726   0.999  12.389  0.1692  0.6205  0.1201
 3621TIP3    H132278   4.688   0.955  12.465  0.9702  0.4921  0.4598
 3621TIP3    H232279   4.708   0.939  12.316  2.1182 -0.8389  0.7335
 3622TIP3   OH232280   5.685   1.595  11.729  0.1073  0.0686 -0.2056
 3622TIP3    H132281   5.614   1.651  11.697 -0.2278 -0.2969 -0.1217
 3622TIP3    H232282   5.649   1.506  11.723  0.3476 -0.0727  0.3847
 3623TIP3   OH232283   2.706   2.969   2.036  0.4014  0.1789  0.2847
 3623TIP3    H132284   2.622   2.981   1.990 -0.2938 -1.3498  1.0804
 3623TIP3    H232285   2.757   2.914   1.976 -1.2795 -3.6436  1.9984
 3624TIP3   OH232286   3.725   3.994   4.215  0.3823 -0.5090 -0.6416
 3624TIP3    H132287   3.720   3.924   4.150 -0.0358 -0.7601 -0.3439
 3624TIP3    H232288   3.818   4.001   4.236  0.3821 -1.2897 -0.3436
 3625TIP3   OH232289   4.650   6.642  15.983 -0.6229  0.3666 -0.1368
 3625TIP3    H132290   4.677   6.715  15.929  2.2754  0.3239  1.1028
 3625TIP3    H232291   4.592   6.680  16.048  1.2499  1.7447  0.8081
 3626TIP3   OH232292   5.812   6.467   2.160  0.5980 -0.1744  0.1328
 3626TIP3    H132293   5.792   6.526   2.234 -0.3670 -0.0896 -0.1822
 3626TIP3    H232294   5.883   6.511   2.113 -0.8737  1.3617 -0.7594
 3627TIP3   OH232295   5.155   0.089   0.997  0.8340 -0.2812  0.3677
 3627TIP3    H132296   5.088   0.063   0.934  0.9428  1.6292 -0.6249
 3627TIP3    H232297   5.154   0.185   0.994  2.6024 -0.1894  1.4141
 3628TIP3   OH232298   5.640   0.916  15.733  0.0333  0.3578  0.6905
 3628TIP3    H132299   5.626   0.909  15.827  0.5418  0.2381  0.7598
 3628TIP3    H232300   5.668   0.828  15.706 -2.0682 -0.1862  0.0808
 3629TIP3   OH232301   6.377   1.359  16.130  0.0778  0.2607  0.2299
 3629TIP3    H132302   6.349   1.323  16.046 -0.1225 -0.5601  0.6327
 3629TIP3    H232303   6.353   1.291  16.193 -0.1381  1.0448  0.9965
 3630TIP3   OH232304   6.140   1.741   1.176 -0.3510 -0.1672 -0.2440
 3630TIP3    H132305   6.179   1.822   1.141  0.1776 -0.8828 -1.3774
 3630TIP3    H232306   6.214   1.692   1.210 -0.1369 -1.5904 -2.5167
 3631TIP3   OH232307   2.934   0.239   4.358 -0.2178  0.1703  0.6429
 3631TIP3    H132308   3.007   0.283   4.314  0.1855 -1.2609 -0.2089
 3631TIP3    H232309   2.922   0.288   4.440  1.5581  0.5739  0.7091
 3632TIP3   OH232310   4.003   0.685   2.405  0.0924 -0.5046  0.0714
 3632TIP3    H132311   4.040   0.608   2.449  0.9461 -1.5339 -2.2956
 3632TIP3    H232312   4.069   0.709   2.340 -1.4992  0.3916 -1.2723
 3633TIP3   OH232313   1.184   1.823  14.706 -0.0989 -0.6994 -0.0956
 3633TIP3    H132314   1.101   1.781  14.731  0.8555 -2.0892  0.8579
 3633TIP3    H232315   1.243   1.750  14.689  1.7094  0.2041  1.8883
 3634TIP3   OH232316   1.955   6.514  16.589  0.5144 -0.5127  0.1896
 3634TIP3    H132317   2.044   6.518  16.625  0.9865 -1.4166 -0.8200
 3634TIP3    H232318   1.956   6.437  16.532 -0.6702 -0.0294 -0.5110
 3635TIP3   OH232319   1.912   4.606  12.700  0.5222 -0.2218  0.4343
 3635TIP3    H132320   1.992   4.613  12.751  0.6768  3.2392 -0.0624
 3635TIP3    H232321   1.842   4.623  12.762  0.6663  3.1699 -0.1470
 3636TIP3   OH232322   2.974   6.043  13.091 -0.2591 -0.2378 -0.8390
 3636TIP3    H132323   3.056   6.061  13.138 -0.2900 -0.2798 -0.7700
 3636TIP3    H232324   2.994   6.066  13.000 -0.3512  0.3024 -0.7234
 3637TIP3   OH232325   4.496   2.118  14.466  0.0434  0.0832 -0.5230
 3637TIP3    H132326   4.410   2.078  14.481 -0.2186  0.3882 -1.1643
 3637TIP3    H232327   4.546   2.050  14.422  0.5389 -0.5189  0.9069
 3638TIP3   OH232328   3.383   6.538   3.095 -0.1499 -0.0146  0.0329
 3638TIP3    H132329   3.402   6.542   3.188 -1.0399  0.2263  0.2143
 3638TIP3    H232330   3.319   6.467   3.086  0.2227 -0.3007 -0.4506
 3639TIP3   OH232331   6.661   4.117   5.293  1.0843  0.6049  0.1190
 3639TIP3    H132332   6.665   4.173   5.371  0.1981  0.6690  0.1310
 3639TIP3    H232333   6.572   4.130   5.259  0.5338 -1.4349  0.6122
 3640TIP3   OH232334   5.435   5.400  12.584 -0.8685  0.5171  0.4054
 3640TIP3    H132335   5.413   5.476  12.529 -1.4576  0.2754  0.3046
 3640TIP3    H232336   5.352   5.354  12.595 -0.0708 -1.7550 -1.9938
 3641TIP3   OH232337   5.248   2.885  11.120  0.0924  0.1363 -0.0617
 3641TIP3    H132338   5.204   2.812  11.075  1.0184 -0.1422 -0.5282
 3641TIP3    H232339   5.228   2.962  11.067  1.6770 -0.2846 -1.3191
 3642TIP3   OH232340   2.828   4.454  15.614 -0.0738  0.0849 -0.7220
 3642TIP3    H132341   2.775   4.498  15.680 -1.8405 -1.5248 -0.9865
 3642TIP3    H232342   2.916   4.451  15.651 -0.2849  2.1639  0.0642
 3643TIP3   OH232343   4.430   5.388  14.011  0.0704  0.5471 -0.2940
 3643TIP3    H132344   4.509   5.422  14.052 -0.0457 -0.3013  0.6816
 3643TIP3    H232345   4.394   5.462  13.962  0.4433  1.4963  0.8187
 3644TIP3   OH232346   4.452   1.942  14.209 -0.7751  0.7673  0.9177
 3644TIP3    H132347   4.501   1.909  14.134  0.4277 -0.6000  2.2528
 3644TIP3    H232348   4.374   1.982  14.170 -1.8524 -2.7221 -0.9045
 3645TIP3   OH232349   5.922   5.986   4.767  0.0933  0.4027 -0.0766
 3645TIP3    H132350   5.955   5.896   4.773 -2.9903 -0.9385 -0.6713
 3645TIP3    H232351   5.861   5.994   4.841 -0.7044  1.4750 -0.8142
 3646TIP3   OH232352   1.749   6.078   1.482  0.9097 -0.0780  0.2591
 3646TIP3    H132353   1.720   6.060   1.392  1.9931  1.4989 -0.4572
 3646TIP3    H232354   1.779   5.994   1.515  1.4800 -0.5065 -1.2499
 3647TIP3   OH232355   2.076   5.647   3.339 -0.4721 -0.4601  0.7428
 3647TIP3    H132356   2.020   5.664   3.415  0.1441  2.8408  0.6086
 3647TIP3    H232357   2.154   5.701   3.354 -0.1554 -0.0013 -1.9974
 3648TIP3   OH232358   2.690   1.639   6.014 -0.8962 -0.2547  0.0661
 3648TIP3    H132359   2.618   1.584   6.043 -0.5690 -0.1978  1.0409
 3648TIP3    H232360   2.714   1.605   5.928 -2.1830 -0.1566 -0.3488
 3649TIP3   OH232361   0.489   6.023  12.226 -0.8978  0.1370  0.3057
 3649TIP3    H132362   0.487   6.047  12.134 -1.7412 -0.7423  0.0855
 3649TIP3    H232363   0.571   5.976  12.237 -1.8046 -1.7100 -0.5143
 3650TIP3   OH232364   3.241   2.996   4.203  0.2097 -0.3924  0.1395
 3650TIP3    H132365   3.268   3.068   4.260  1.6622 -0.5930 -0.2534
 3650TIP3    H232366   3.322   2.946   4.188 -0.9502 -2.7763  1.3166
 3651TIP3   OH232367   2.098   0.267  15.278  0.7356 -0.0702  0.1863
 3651TIP3    H132368   2.138   0.288  15.194 -1.7547  0.9219 -0.8384
 3651TIP3    H232369   2.134   0.331  15.339  0.9125  0.6211 -0.6331
 3652TIP3   OH232370   6.024   3.260   1.515 -0.4116 -0.4122 -0.5488
 3652TIP3    H132371   6.051   3.170   1.495  2.0042  0.1488 -0.0276
 3652TIP3    H232372   6.093   3.294   1.571 -2.1236  1.2642  0.6719
 3653TIP3   OH232373   5.594   3.490   4.757 -0.5376  0.2896 -0.2977
 3653TIP3    H132374   5.500   3.505   4.759 -0.5911 -0.0668 -0.1442
 3653TIP3    H232375   5.605   3.410   4.707 -0.2703  0.6656 -0.8437
 3654TIP3   OH232376   4.306   6.562   2.862  0.0635  0.9391 -0.1307
 3654TIP3    H132377   4.286   6.469   2.858 -1.2292  1.2303 -0.8365
 3654TIP3    H232378   4.351   6.581   2.779 -1.7921  1.3788 -1.1003
 3655TIP3   OH232379   3.713   1.445  16.947  0.0726  0.3057  0.0756
 3655TIP3    H132380   3.802   1.422  16.921  0.8134  0.7149  2.0332
 3655TIP3    H232381   3.694   1.525  16.897  1.4919  1.1828  0.8521
 3656TIP3   OH232382   5.580   5.434   3.495  0.2834  0.2893  0.0786
 3656TIP3    H132383   5.575   5.525   3.522  0.3267 -0.3349  2.4504
 3656TIP3    H232384   5.490   5.409   3.475  0.3011  0.8854 -0.7899
 3657TIP3   OH232385   3.750   5.388  16.645  0.2484 -0.5111 -0.2350
 3657TIP3    H132386   3.671   5.370  16.593  0.9433 -1.1167 -1.1064
 3657TIP3    H232387   3.717   5.430  16.724 -0.8740  0.2051 -1.0478
 3658TIP3   OH232388   2.680   1.636  11.636 -0.4733 -0.0270  0.8736
 3658TIP3    H132389   2.770   1.669  11.631  0.7626 -3.0259  0.6440
 3658TIP3    H232390   2.654   1.625  11.544 -1.1997  1.0469  0.9375
 3659TIP3   OH232391   3.024   4.003   4.758 -0.1055  0.6409  0.8761
 3659TIP3    H132392   3.117   4.019   4.744 -0.2610  1.0560  0.2952
 3659TIP3    H232393   3.004   3.927   4.703  0.0478  0.0667  1.5891
 3660TIP3   OH232394   4.744   2.737  13.620 -0.8135 -0.4701  0.4167
 3660TIP3    H132395   4.684   2.700  13.685  0.9876 -0.8416  1.9463
 3660TIP3    H232396   4.814   2.672  13.613  0.2843  0.7168 -0.0019
 3661TIP3   OH232397   5.054   6.610   5.751  0.2347  0.1958  0.0366
 3661TIP3    H132398   5.080   6.566   5.831 -2.7393 -1.4411  0.2538
 3661TIP3    H232399   5.071   6.546   5.681 -1.4387 -0.2639  0.0002
 3662TIP3   OH232400   6.478   6.698   0.225 -0.2752 -0.1864  0.1692
 3662TIP3    H132401   6.525   6.772   0.264  0.2594 -0.1670 -0.4940
 3662TIP3    H232402   6.535   6.623   0.237 -1.3242 -0.7635  1.8924
 3663TIP3   OH232403   4.016   1.950   3.653  0.1819  0.4084 -0.3223
 3663TIP3    H132404   3.939   2.003   3.633  0.5926  0.8914 -0.6293
 3663TIP3    H232405   4.024   1.955   3.748 -1.2044 -1.1076 -0.0789
 3664TIP3   OH232406   6.060   3.443  15.908 -0.4095 -0.0736  0.1953
 3664TIP3    H132407   6.115   3.420  15.983  1.5901  0.4510 -1.0405
 3664TIP3    H232408   6.061   3.365  15.853  0.8753  0.6311 -0.8254
 3665TIP3   OH232409   6.663   2.657  15.138 -0.0273 -0.3107  0.3324
 3665TIP3    H132410   6.658   2.712  15.060  0.1345 -0.0088  0.5317
 3665TIP3    H232411   6.579   2.672  15.183 -0.0044 -0.2654  0.3598
 3666TIP3   OH232412   4.823   3.748  15.751  0.4005  0.6482  0.5709
 3666TIP3    H132413   4.736   3.708  15.751  0.6069  0.1488 -0.5570
 3666TIP3    H232414   4.813   3.827  15.698  0.2960  1.4349  1.7228
 3667TIP3   OH232415   2.639   0.211   1.561  0.1383  0.2505  0.0414
 3667TIP3    H132416   2.662   0.121   1.537  0.0369  0.3182 -0.3170
 3667TIP3    H232417   2.543   0.211   1.560  0.1358  0.7472 -1.4396
 3668TIP3   OH232418   4.731   4.622  14.276 -0.0375  0.2941 -0.3606
 3668TIP3    H132419   4.674   4.559  14.320 -0.2100  0.9862  0.4401
 3668TIP3    H232420   4.671   4.676  14.224 -0.0393  0.5732 -0.0730
 3669TIP3   OH232421   4.654   1.609  15.077  0.5052 -0.4424 -0.1367
 3669TIP3    H132422   4.619   1.698  15.073 -1.8582 -1.3098 -0.5470
 3669TIP3    H232423   4.722   1.607  15.010  0.6485  1.0541 -0.0763
 3670TIP3   OH232424   0.823   0.072   2.157  0.7060 -0.4119  0.4336
 3670TIP3    H132425   0.837   0.114   2.072  1.2163  0.1921  0.8028
 3670TIP3    H232426   0.800  -0.019   2.136  1.8514 -0.5409 -0.3142
 3671TIP3   OH232427   5.807   4.127   1.012 -0.2595  0.6678 -0.4843
 3671TIP3    H132428   5.794   4.036   1.037 -2.2332  0.7810 -1.0018
 3671TIP3    H232429   5.746   4.142   0.940  1.5643  1.8228 -1.9106
 3672TIP3   OH232430   2.985   6.277   1.095 -0.3326 -0.3167  0.2272
 3672TIP3    H132431   2.891   6.268   1.112 -0.6127 -0.3465 -1.1696
 3672TIP3    H232432   2.989   6.328   1.014  0.8977  0.6949  0.8860
 3673TIP3   OH232433   2.299   5.078   2.196  0.4246  0.2034 -0.2318
 3673TIP3    H132434   2.206   5.062   2.185  0.2190  1.8013 -1.0488
 3673TIP3    H232435   2.306   5.131   2.275  0.7049 -0.3503  0.1243
 3674TIP3   OH232436   5.768   0.237   2.115 -0.7532 -0.2365 -0.4330
 3674TIP3    H132437   5.789   0.282   2.033 -0.0299  1.6921  0.7573
 3674TIP3    H232438   5.783   0.145   2.096  0.5228  0.2758 -2.1420
 3675TIP3   OH232439   0.861   3.505  15.980 -0.5676  0.6164 -0.4789
 3675TIP3    H132440   0.858   3.595  16.010 -1.8246 -0.2530  2.2795
 3675TIP3    H232441   0.834   3.453  16.055  1.6947 -2.2308 -1.4353
 3676TIP3   OH232442   3.945   4.414  11.088 -0.1870  0.2430  0.3508
 3676TIP3    H132443   3.877   4.455  11.142 -2.5034 -1.5065 -1.0493
 3676TIP3    H232444   3.959   4.328  11.128  0.6412  0.2659  0.1378
 3677TIP3   OH232445   6.221   1.528   1.541  0.3644 -0.8617  0.3577
 3677TIP3    H132446   6.247   1.567   1.624 -0.0511 -3.7485  1.9882
 3677TIP3    H232447   6.289   1.555   1.479  1.7750 -0.2007  2.1136
 3678TIP3   OH232448   5.538   4.654  17.115 -0.2959  0.1498  0.2991
 3678TIP3    H132449   5.540   4.729  17.056 -0.6675  0.9015  1.2166
 3678TIP3    H232450   5.608   4.671  17.179  0.6692 -1.0643 -0.3784
 3679TIP3   OH232451   0.461   3.092  13.935 -0.2200  0.1338  0.0404
 3679TIP3    H132452   0.418   3.027  13.879 -0.0449  0.7124 -0.7816
 3679TIP3    H232453   0.487   3.162  13.875  0.1690  0.6686  0.8170
 3680TIP3   OH232454   4.540   3.534   4.464  1.2118  0.0907  0.5543
 3680TIP3    H132455   4.562   3.504   4.552 -0.4685  0.6127  1.2070
 3680TIP3    H232456   4.516   3.626   4.475 -0.4722 -0.2094 -0.1364
 3681TIP3   OH232457   4.218   1.809   1.413 -0.2162 -0.5128 -0.9096
 3681TIP3    H132458   4.292   1.869   1.396 -1.0682  0.7943 -0.1829
 3681TIP3    H232459   4.256   1.739   1.465  1.0438 -1.2103 -2.6646
 3682TIP3   OH232460   0.344   2.412   6.114 -0.4595  0.0146 -0.5460
 3682TIP3    H132461   0.366   2.503   6.093  0.3062 -0.3667 -1.4961
 3682TIP3    H232462   0.426   2.375   6.147 -1.0887 -0.0066  1.0683
 3683TIP3   OH232463   2.428   4.859   4.829 -0.5181  0.2857 -0.2618
 3683TIP3    H132464   2.402   4.951   4.828 -0.1259  0.4458  1.3824
 3683TIP3    H232465   2.454   4.842   4.919 -0.3434 -1.3845 -0.5880
 3684TIP3   OH232466   0.824   3.449   2.826 -0.2223  0.0948  0.4831
 3684TIP3    H132467   0.888   3.484   2.764 -1.0209 -0.1668 -0.5030
 3684TIP3    H232468   0.744   3.500   2.810 -0.0203  1.1217  2.4060
 3685TIP3   OH232469   1.176   4.453   2.108  0.4790  0.1820  0.0353
 3685TIP3    H132470   1.099   4.502   2.138  0.8678  0.6688  0.2470
 3685TIP3    H232471   1.152   4.423   2.020  0.3808  1.0754 -0.2466
 3686TIP3   OH232472   5.255   5.700   0.272  0.2033 -0.1087 -0.0990
 3686TIP3    H132473   5.283   5.784   0.308  0.9561 -0.9430  1.3780
 3686TIP3    H232474   5.336   5.658   0.241 -0.4477  0.7098 -3.2497
 3687TIP3   OH232475   0.097   3.915  14.857  0.3226 -0.1582 -0.4593
 3687TIP3    H132476   0.037   3.952  14.922 -0.7679 -2.3401 -0.1521
 3687TIP3    H232477   0.183   3.948  14.883  0.6392 -3.9162  4.6153
 3688TIP3   OH232478   5.114   6.015   5.260 -0.0454 -0.0319  0.5775
 3688TIP3    H132479   5.114   5.980   5.171  0.5262  0.5315  0.3492
 3688TIP3    H232480   5.131   5.940   5.316  1.1191 -0.1401  0.1038
 3689TIP3   OH232481   5.429   3.924   0.855 -0.3048  0.5576 -0.2201
 3689TIP3    H132482   5.368   3.861   0.817 -0.2897  1.0000 -1.0051
 3689TIP3    H232483   5.470   3.878   0.928  0.3556 -0.6522 -1.3155
 3690TIP3   OH232484   2.870   3.077  16.253  0.1025  0.1632 -0.0359
 3690TIP3    H132485   2.812   3.148  16.279  0.1045 -0.4311  1.7693
 3690TIP3    H232486   2.902   3.102  16.166 -1.8084  1.1223 -0.5061
 3691TIP3   OH232487   0.636   5.667   0.516 -0.4198  0.3060 -0.2694
 3691TIP3    H132488   0.684   5.749   0.520  1.4166 -0.7192 -0.3021
 3691TIP3    H232489   0.639   5.642   0.424  2.2491 -1.5324  0.1882
 3692TIP3   OH232490   1.341   4.168  13.157  0.1114  0.8172  0.0220
 3692TIP3    H132491   1.307   4.132  13.075 -0.6881 -1.6453  1.3563
 3692TIP3    H232492   1.407   4.106  13.186 -1.4839  0.1177  2.5377
 3693TIP3   OH232493   2.840   1.448   1.891 -0.3358  0.4056 -0.4966
 3693TIP3    H132494   2.768   1.431   1.952 -1.8263 -1.2066 -2.5190
 3693TIP3    H232495   2.892   1.367   1.893  0.1532  0.7110 -0.6742
 3694TIP3   OH232496   2.726   3.353  13.172 -0.2366  0.3612 -0.4352
 3694TIP3    H132497   2.686   3.295  13.107 -0.8186  0.7497 -0.4292
 3694TIP3    H232498   2.774   3.417  13.120 -1.0264  0.9088 -0.5065
 3695TIP3   OH232499   0.229   2.932   1.859  0.4508 -0.0798 -0.6649
 3695TIP3    H132500   0.272   2.935   1.945  1.9140  1.2182 -1.4051
 3695TIP3    H232501   0.231   2.840   1.834 -2.3351 -0.9853  1.7643
 3696TIP3   OH232502   5.697   6.036   1.216 -0.3224 -0.6680 -0.0756
 3696TIP3    H132503   5.722   6.105   1.278 -2.0684 -1.5018  1.6567
 3696TIP3    H232504   5.646   6.082   1.150 -0.9241 -0.1683  0.7094
 3697TIP3   OH232505   4.884   5.795   3.837  0.2178 -0.5498  0.4032
 3697TIP3    H132506   4.947   5.768   3.770 -0.0367  2.2830 -1.1088
 3697TIP3    H232507   4.808   5.826   3.788  0.2307  2.1470  1.9110
 3698TIP3   OH232508   0.812   3.996  11.103  0.1569  0.1718 -0.4298
 3698TIP3    H132509   0.832   3.914  11.057  0.9754  0.4866 -0.6419
 3698TIP3    H232510   0.726   4.022  11.069 -0.1565 -0.6415 -0.2929
 3699TIP3   OH232511   4.500   0.533  16.198  0.4400  0.0130  0.1756
 3699TIP3    H132512   4.496   0.590  16.275 -2.7083  2.1092 -1.2967
 3699TIP3    H232513   4.565   0.574  16.142  1.0230 -0.1271  0.7425
 3700TIP3   OH232514   5.291   1.156  16.020 -0.6748 -0.0728  0.4998
 3700TIP3    H132515   5.212   1.139  16.070 -0.5425 -0.7622  0.4903
 3700TIP3    H232516   5.352   1.194  16.083 -0.2722 -1.5574  1.0698
 3701TIP3   OH232517   0.343   1.214   4.436 -0.6963  0.6054 -0.2976
 3701TIP3    H132518   0.411   1.228   4.502 -0.8272 -1.0547  0.2328
 3701TIP3    H232519   0.341   1.119   4.424 -1.8053  0.7630 -1.5047
 3702TIP3   OH232520   0.483   0.290   2.087 -0.3252 -0.6172 -0.0980
 3702TIP3    H132521   0.537   0.245   2.022  2.5310  0.6870  1.2448
 3702TIP3    H232522   0.435   0.356   2.036  0.6050 -0.6973 -1.1106
 3703TIP3   OH232523   0.599   6.118   3.038  0.3417  0.7970  0.4562
 3703TIP3    H132524   0.510   6.082   3.037  0.9703 -1.1245  2.8749
 3703TIP3    H232525   0.620   6.131   2.946 -2.2892  1.0036 -0.2132
 3704TIP3   OH232526   4.203   1.680   3.313 -0.1081  0.2282  0.1249
 3704TIP3    H132527   4.125   1.720   3.275  1.5533  2.6724 -0.9617
 3704TIP3    H232528   4.272   1.695   3.248  1.5592 -0.7351  1.5774
 3705TIP3   OH232529   5.621   1.715   0.019  0.2318 -0.3801 -0.5317
 3705TIP3    H132530   5.612   1.806   0.045 -1.6694  0.2291 -2.9364
 3705TIP3    H232531   5.715   1.703   0.005  0.9762  0.1238  3.0229
 3706TIP3   OH232532   1.384   6.344   2.811 -0.0799 -0.1875 -0.0730
 3706TIP3    H132533   1.434   6.401   2.869  0.8665  0.0432 -1.0849
 3706TIP3    H232534   1.416   6.256   2.832 -1.2528 -0.3515  1.2030
 3707TIP3   OH232535   6.413   3.218   5.970  0.2279 -0.7636  0.0938
 3707TIP3    H132536   6.410   3.225   6.066  0.5990 -0.5859  0.0951
 3707TIP3    H232537   6.324   3.195   5.945  0.1721 -1.0072  0.4998
 3708TIP3   OH232538   4.102   5.981  11.316  0.4846 -0.4594 -0.0304
 3708TIP3    H132539   4.149   5.980  11.232  0.1811 -0.0956 -0.2110
 3708TIP3    H232540   4.014   6.010  11.293  0.7244  0.8243  0.5778
 3709TIP3   OH232541   5.633   1.047   0.994  0.2741 -0.1512 -0.2176
 3709TIP3    H132542   5.701   1.111   0.975  1.4615 -1.0527  0.8795
 3709TIP3    H232543   5.666   0.998   1.069 -1.4465 -0.8234  0.1432
 3710TIP3   OH232544   0.025   6.043   4.077 -0.3933  0.2715 -0.0604
 3710TIP3    H132545  -0.023   6.091   4.010 -0.7568 -1.2717 -0.9577
 3710TIP3    H232546   0.028   6.102   4.152  0.3773  2.2330 -1.5311
 3711TIP3   OH232547   4.836   3.426   4.968 -0.4996 -0.2505 -0.1384
 3711TIP3    H132548   4.759   3.372   4.985 -0.9783  0.7029  0.8284
 3711TIP3    H232549   4.842   3.484   5.044  1.9121 -1.1449  0.4178
 3712TIP3   OH232550   2.259   2.280  16.715 -0.2450 -0.2838 -0.1977
 3712TIP3    H132551   2.338   2.330  16.692  0.1721 -0.7530  0.1833
 3712TIP3    H232552   2.248   2.219  16.642  1.7139 -2.5269  1.2439
 3713TIP3   OH232553   3.298   1.430  14.695 -0.5071  0.2550  0.3077
 3713TIP3    H132554   3.297   1.509  14.640 -0.7959  0.5583  0.7418
 3713TIP3    H232555   3.373   1.443  14.754 -0.4278  0.1069  0.2390
 3714TIP3   OH232556   5.235   4.140   1.701  0.4496 -0.7019 -0.6378
 3714TIP3    H132557   5.270   4.104   1.782  0.4998  0.8178  0.0571
 3714TIP3    H232558   5.191   4.067   1.658  2.2416 -2.0576 -0.2831
 3715TIP3   OH232559   1.437   2.294   4.265  0.6493  0.5507 -0.3675
 3715TIP3    H132560   1.423   2.364   4.328 -0.1478 -1.2517  1.5906
 3715TIP3    H232561   1.528   2.302   4.239  0.6964  1.9847  0.1871
 3716TIP3   OH232562   0.593   4.236  16.007 -0.0420  0.2471 -0.0930
 3716TIP3    H132563   0.570   4.244  16.099 -0.3354  1.3060 -0.2520
 3716TIP3    H232564   0.681   4.273  16.001  0.7931 -1.5537  0.0726
 3717TIP3   OH232565   2.144   6.279  11.288 -0.1901  0.1146 -0.4583
 3717TIP3    H132566   2.189   6.217  11.345  1.0194  2.0214  0.7796
 3717TIP3    H232567   2.051   6.265  11.306  0.0862 -0.8576  0.2903
 3718TIP3   OH232568   0.126   0.605   0.851  0.0469  0.3740 -0.4741
 3718TIP3    H132569   0.202   0.548   0.843  0.3987  0.9099 -0.9936
 3718TIP3    H232570   0.159   0.693   0.829 -0.8613  0.5072 -1.3409
 3719TIP3   OH232571   1.051   1.101  14.139  0.2189 -0.1992  0.0440
 3719TIP3    H132572   0.969   1.133  14.102  1.2150  0.5658 -1.6547
 3719TIP3    H232573   1.054   1.009  14.115 -0.4303 -0.3764  0.6521
 3720TIP3   OH232574   4.062   3.605  10.652  0.2142 -0.2384  0.2803
 3720TIP3    H132575   4.069   3.680  10.593  1.8365 -0.9627 -0.5026
 3720TIP3    H232576   4.131   3.620  10.718  0.6730 -1.1256  0.0067
 3721TIP3   OH232577   1.451   4.379  11.268  0.3328  0.0816  0.3041
 3721TIP3    H132578   1.438   4.295  11.225  0.1618 -0.1417  0.7916
 3721TIP3    H232579   1.535   4.411  11.233 -0.3726  0.4722 -1.1109
 3722TIP3   OH232580   0.162   0.529  15.309 -0.5554 -0.3071 -0.0258
 3722TIP3    H132581   0.234   0.466  15.302 -0.5218 -0.1071 -2.6021
 3722TIP3    H232582   0.143   0.534  15.402  2.3913 -0.7839  0.7023
 3723TIP3   OH232583   1.576   5.601  13.767  0.1083 -0.3642 -0.0622
 3723TIP3    H132584   1.662   5.633  13.741  0.3127 -0.4790  0.4579
 3723TIP3    H232585   1.520   5.679  13.763 -0.0961 -0.5664 -1.7547
 3724TIP3   OH232586   2.233   3.050  14.237 -0.3669 -0.5049 -0.3718
 3724TIP3    H132587   2.150   3.074  14.196 -0.0850  0.8284 -0.1809
 3724TIP3    H232588   2.234   2.954  14.233 -1.8475 -0.5416 -0.4950
 3725TIP3   OH232589   1.868   2.194   5.662  0.5880  0.2197 -0.6336
 3725TIP3    H132590   1.852   2.277   5.708  0.7662  0.3699 -0.8409
 3725TIP3    H232591   1.915   2.140   5.726 -2.0696 -0.8318  0.5862
 3726TIP3   OH232592   4.090   3.699  15.859  0.1691  0.0440 -0.4867
 3726TIP3    H132593   4.127   3.701  15.771 -2.8292  0.4052 -1.8525
 3726TIP3    H232594   4.102   3.788  15.892 -1.7971  0.9335 -2.0050
 3727TIP3   OH232595   0.717   0.650   3.789  0.0613 -0.4262 -0.9734
 3727TIP3    H132596   0.765   0.615   3.714  1.1483  0.6258 -0.7978
 3727TIP3    H232597   0.630   0.670   3.754  0.5354  0.0100 -1.9607
 3728TIP3   OH232598   1.654   5.704   2.024 -0.2477  0.5376 -0.0041
 3728TIP3    H132599   1.648   5.799   2.013  0.5921  0.5752 -0.2404
 3728TIP3    H232600   1.660   5.670   1.935 -0.4342  0.2730  0.0848
 3729TIP3   OH232601   1.798   6.201  13.351  0.2178 -0.4819 -0.3098
 3729TIP3    H132602   1.789   6.128  13.291  1.7398 -0.4834 -0.5679
 3729TIP3    H232603   1.859   6.170  13.418 -0.1418  0.1087  0.3144
 3730TIP3   OH232604   2.226   3.770  12.377  0.0266  0.6876 -0.2603
 3730TIP3    H132605   2.164   3.763  12.450 -0.4198  1.4603 -0.5527
 3730TIP3    H232606   2.300   3.716  12.404 -1.1839 -1.1370 -0.3585
 3731TIP3   OH232607   0.193   4.021  14.218  0.6398 -0.2400 -0.5250
 3731TIP3    H132608   0.229   3.935  14.198 -0.9534 -0.8628 -0.8626
 3731TIP3    H232609   0.157   4.052  14.135 -3.0865 -1.4164  0.4563
 3732TIP3   OH232610   1.764   0.632  11.757 -0.3861  0.4453 -0.3244
 3732TIP3    H132611   1.749   0.540  11.782  0.0778  0.1516 -1.0729
 3732TIP3    H232612   1.765   0.679  11.840  1.1373 -0.5039  0.2468
 3733TIP3   OH232613   3.422   4.754  12.828 -0.1105 -0.0803 -1.2900
 3733TIP3    H132614   3.508   4.794  12.841 -0.0793  0.0983 -1.9798
 3733TIP3    H232615   3.381   4.808  12.760 -1.5252  0.9760  0.3283
 3734TIP3   OH232616   5.634   2.159   1.440 -0.0673 -0.0776 -0.0104
 3734TIP3    H132617   5.665   2.180   1.353 -1.0025  1.6547  0.0363
 3734TIP3    H232618   5.674   2.225   1.497 -0.7113 -0.2135  0.6192
 3735TIP3   OH232619   5.959   6.012   3.300  0.2751 -0.2512  0.0469
 3735TIP3    H132620   5.900   6.028   3.227  0.5177 -0.0603 -0.1082
 3735TIP3    H232621   5.965   5.917   3.305  2.0351 -0.2760 -1.6359
 3736TIP3   OH232622   3.672   4.103  16.998 -0.3866 -0.8254  0.1018
 3736TIP3    H132623   3.596   4.141  16.953 -0.5229  0.0634  1.0528
 3736TIP3    H232624   3.638   4.024  17.041 -1.1287  0.2716  1.6317
 3737TIP3   OH232625   1.033   5.074   6.512 -0.0830  0.0305 -0.1117
 3737TIP3    H132626   0.966   5.132   6.475  1.4131  1.3276 -0.9116
 3737TIP3    H232627   1.103   5.076   6.447  1.0455 -0.6856  1.0631
 3738TIP3   OH232628   4.210   0.112  14.738 -0.0103 -0.0930 -0.2630
 3738TIP3    H132629   4.181   0.203  14.751  1.8095  0.4732  0.1555
 3738TIP3    H232630   4.260   0.092  14.817  0.6266 -1.0422 -0.8950
 3739TIP3   OH232631   3.134   3.385  11.802  0.7054  0.3162  0.1048
 3739TIP3    H132632   3.175   3.442  11.737 -0.5042 -0.3398 -1.2995
 3739TIP3    H232633   3.096   3.445  11.867  1.1513  1.0189 -0.2817
 3740TIP3   OH232634   1.915   2.531  16.394  0.2687 -0.3665  0.0865
 3740TIP3    H132635   1.946   2.461  16.337  1.8180  0.0870  0.3130
 3740TIP3    H232636   1.918   2.609  16.339  1.1106 -0.0475  0.5646
 3741TIP3   OH232637   5.775   1.016  10.804  0.0782  0.0285  0.1725
 3741TIP3    H132638   5.813   0.970  10.879 -0.7621  1.8154  1.7864
 3741TIP3    H232639   5.773   0.951  10.734  3.2559 -0.9863  0.8934
 3742TIP3   OH232640   2.516   0.286  11.849 -0.4479 -0.5832  0.4262
 3742TIP3    H132641   2.520   0.340  11.928  1.0803 -1.4294  0.9781
 3742TIP3    H232642   2.523   0.348  11.777 -2.0193  0.2158  0.9218
 3743TIP3   OH232643   1.159   2.816  14.493 -0.2287  0.1292 -0.1176
 3743TIP3    H132644   1.083   2.758  14.497  0.2827 -0.4911  1.9016
 3743TIP3    H232645   1.127   2.899  14.527 -0.1655  0.0285  0.1983
 3744TIP3   OH232646   4.172   2.673   4.824  0.2262  0.0281  0.1847
 3744TIP3    H132647   4.220   2.607   4.875  1.5098 -0.3790 -1.4443
 3744TIP3    H232648   4.085   2.634   4.811  0.5222 -0.7383  0.4028
 3745TIP3   OH232649   3.104   6.531  15.771 -0.4301 -0.7084 -0.4609
 3745TIP3    H132650   3.173   6.483  15.818  0.0712 -0.1503 -0.6141
 3745TIP3    H232651   3.035   6.467  15.758 -0.8672 -0.7250  1.6058
 3746TIP3   OH232652   3.193   1.859  16.026 -0.3014  0.3465  1.0126
 3746TIP3    H132653   3.162   1.831  16.112  0.4055 -0.6927  0.9472
 3746TIP3    H232654   3.120   1.842  15.967 -0.5020  0.3009  1.2722
 3747TIP3   OH232655   4.176   5.445  12.014  0.2436  0.1991  0.2370
 3747TIP3    H132656   4.114   5.493  12.068 -0.0583  0.1314 -0.0520
 3747TIP3    H232657   4.262   5.478  12.042  0.1322 -0.2815  1.2015
 3748TIP3   OH232658   3.611   6.380  12.014  0.1970 -0.3255  0.1921
 3748TIP3    H132659   3.565   6.322  12.075  1.5520 -1.2685  0.3454
 3748TIP3    H232660   3.688   6.409  12.062 -0.2982  1.4223  0.0132
 3749TIP3   OH232661   0.994   1.685  16.491  0.0392 -0.0110  0.4961
 3749TIP3    H132662   1.003   1.595  16.461 -0.0113  0.1780 -0.0988
 3749TIP3    H232663   0.966   1.677  16.582  0.9693 -0.5945  0.7407
 3750TIP3   OH232664   3.392   2.328   4.153 -0.2541  0.2904  0.2765
 3750TIP3    H132665   3.362   2.411   4.190 -1.3249 -0.2288  0.6265
 3750TIP3    H232666   3.473   2.308   4.199  0.5704  1.6229 -0.5179
 3751TIP3   OH232667   3.359   4.572   6.189  0.4407  1.0005  0.8135
 3751TIP3    H132668   3.404   4.591   6.107  1.5344  0.1947  1.1947
 3751TIP3    H232669   3.430   4.553   6.251 -0.4092  0.2972  1.6037
 3752TIP3   OH232670   2.688   2.440  13.173 -0.3739  0.0654 -0.0875
 3752TIP3    H132671   2.609   2.387  13.176  1.4901 -2.9339 -0.0959
 3752TIP3    H232672   2.694   2.478  13.261 -1.9641  0.6696 -0.2053
 3753TIP3   OH232673   6.423   4.393   4.081 -0.7476 -0.4611 -0.4193
 3753TIP3    H132674   6.409   4.484   4.106 -1.2636 -0.9423  1.2144
 3753TIP3    H232675   6.339   4.364   4.045 -0.5520 -0.2716 -1.0373
 3754TIP3   OH232676   2.667   0.891  13.271 -0.6092  0.4797  0.7861
 3754TIP3    H132677   2.644   0.840  13.349 -1.0897  0.6722  0.7710
 3754TIP3    H232678   2.630   0.842  13.198  0.0044  0.1994  0.6551
 3755TIP3   OH232679   4.496   3.417  16.266 -0.2987 -0.3497  0.0448
 3755TIP3    H132680   4.415   3.427  16.317  1.5434  0.3714  3.0747
 3755TIP3    H232681   4.533   3.505  16.262 -0.0646 -0.4945 -2.1620
 3756TIP3   OH232682   1.254   0.416  15.769 -0.1407  0.2477  0.1824
 3756TIP3    H132683   1.256   0.362  15.690  0.3782 -2.2847  1.8126
 3756TIP3    H232684   1.188   0.483  15.751  0.3444  0.0887 -2.5573
 3757TIP3   OH232685   3.135   0.426   2.902 -0.4104 -0.3780 -0.5866
 3757TIP3    H132686   3.125   0.521   2.909 -0.7389 -0.5410  1.8124
 3757TIP3    H232687   3.176   0.412   2.816  1.0862  2.0248 -0.3415
 3758TIP3   OH232688   2.921   3.256   3.217 -0.1689  0.2917 -0.6197
 3758TIP3    H132689   2.829   3.283   3.218 -0.3225 -0.2430  0.3616
 3758TIP3    H232690   2.927   3.188   3.284  1.0201  0.5483 -0.4525
 3759TIP3   OH232691   0.015   4.109  11.693  0.0518 -0.2827 -0.0269
 3759TIP3    H132692   0.054   4.161  11.623  0.2062 -0.6704 -0.2344
 3759TIP3    H232693  -0.072   4.145  11.705  0.2781  0.2440  0.0656
 3760TIP3   OH232694   2.460   3.041  14.543 -0.3190 -0.6240 -0.2892
 3760TIP3    H132695   2.414   2.969  14.501 -0.0159 -1.7431  1.2208
 3760TIP3    H232696   2.394   3.083  14.598 -0.4138  0.0789 -0.9179
 3761TIP3   OH232697   4.987   3.151   0.754 -0.4666  0.1527  0.2141
 3761TIP3    H132698   5.082   3.153   0.763 -0.4751  0.4355  0.2488
 3761TIP3    H232699   4.955   3.139   0.844 -0.4981  1.2680  0.3617
 3762TIP3   OH232700   4.004   3.759   6.169  0.0108 -0.3203  0.0473
 3762TIP3    H132701   3.958   3.675   6.174 -0.4248 -0.1492 -0.8812
 3762TIP3    H232702   3.944   3.816   6.121  0.6764  0.2707 -0.0904
 3763TIP3   OH232703   4.530   2.772  16.740 -0.0677 -0.1518  1.0816
 3763TIP3    H132704   4.506   2.682  16.718  0.9989 -0.2403  0.1769
 3763TIP3    H232705   4.580   2.765  16.821  0.8568 -0.4973  0.4891
 3764TIP3   OH232706   6.590   5.401  13.778 -0.0018 -0.4380 -0.4641
 3764TIP3    H132707   6.518   5.456  13.746  0.5291  0.2873 -0.4527
 3764TIP3    H232708   6.628   5.363  13.700  0.1136 -0.1674 -0.5406
 3765TIP3   OH232709   0.477   4.840   2.109 -0.2735  0.2636 -0.1710
 3765TIP3    H132710   0.565   4.817   2.138  1.5982  4.0845 -2.0734
 3765TIP3    H232711   0.428   4.852   2.190  0.6119 -2.6239  0.9372
 3766TIP3   OH232712   0.005   2.429  13.066  0.2055  0.1917 -0.0294
 3766TIP3    H132713  -0.016   2.377  13.144  0.0945 -0.0441 -0.2152
 3766TIP3    H232714   0.074   2.489  13.095 -0.0218  0.2851  0.3201
 3767TIP3   OH232715   4.841   6.737  14.310  0.2577 -0.4495  0.5431
 3767TIP3    H132716   4.797   6.770  14.389 -0.8291 -0.1967 -0.1377
 3767TIP3    H232717   4.876   6.652  14.336  0.3173 -0.1654  1.4292
 3768TIP3   OH232718   5.003   1.578   2.614 -0.0874  0.7352  0.1850
 3768TIP3    H132719   5.068   1.556   2.546 -0.6590 -0.1077 -0.1065
 3768TIP3    H232720   5.035   1.660   2.651  0.4719  0.9945 -0.8138
 3769TIP3   OH232721   1.915   0.030  12.380  0.0878  0.5221  0.1464
 3769TIP3    H132722   1.886   0.014  12.469 -0.0218 -1.6026 -0.2231
 3769TIP3    H232723   1.937   0.123  12.378 -0.4831  0.7390  2.2041
 3770TIP3   OH232724   2.873   0.469   4.563  0.6265 -0.8808  0.5480
 3770TIP3    H132725   2.915   0.552   4.541  1.3982 -1.5016 -0.4096
 3770TIP3    H232726   2.784   0.494   4.589  0.5774  0.1815 -0.5106
 3771TIP3   OH232727   1.777   6.756   1.682 -0.1450  0.2021  0.5620
 3771TIP3    H132728   1.727   6.750   1.764  1.3191  0.1423  1.4954
 3771TIP3    H232729   1.747   6.837   1.641 -1.3705 -0.0989  0.8239
 3772TIP3   OH232730   4.585   0.777   0.656 -0.3151 -0.2171 -0.1363
 3772TIP3    H132731   4.643   0.701   0.648 -0.5096 -0.6425  1.9187
 3772TIP3    H232732   4.509   0.743   0.703 -0.5781  1.1560  0.4675
 3773TIP3   OH232733   5.266   2.101   1.100  0.9380 -0.2841  0.0489
 3773TIP3    H132734   5.340   2.132   1.152  1.0530 -0.0130 -0.2729
 3773TIP3    H232735   5.242   2.176   1.045  1.2681 -0.7791 -0.8009
 3774TIP3   OH232736   4.114   3.098   0.732 -0.3642 -0.4497 -0.2990
 3774TIP3    H132737   4.164   3.160   0.679  0.3349 -0.2785  0.5272
 3774TIP3    H232738   4.181   3.043   0.773 -0.8221 -0.0567  1.0144
 3775TIP3   OH232739   6.614   2.052  17.014  0.1274 -0.4084 -0.4756
 3775TIP3    H132740   6.674   2.072  16.943 -0.4529  0.0451 -0.8507
 3775TIP3    H232741   6.560   2.131  17.023 -1.4466 -1.3561 -1.1905
 3776TIP3   OH232742   5.845   0.420   2.957 -0.3089  0.4207 -0.1923
 3776TIP3    H132743   5.751   0.414   2.974 -0.6625  0.6651 -1.8891
 3776TIP3    H232744   5.859   0.511   2.930  0.7306  0.8466  1.5860
 3777TIP3   OH232745   3.004   4.852  14.711  0.7825 -0.0846  0.2690
 3777TIP3    H132746   3.031   4.933  14.754 -0.9767  0.5564  0.2644
 3777TIP3    H232747   3.074   4.790  14.729  0.4877  0.3642  3.4343
 3778TIP3   OH232748   1.269   4.109  10.427  0.7360 -0.0287 -0.3142
 3778TIP3    H132749   1.182   4.081  10.457  1.2316 -2.0732 -0.5825
 3778TIP3    H232750   1.263   4.204  10.420 -1.9923 -0.1934 -1.7911
 3779TIP3   OH232751   0.695   2.893  14.670  0.3311  0.4180  0.1740
 3779TIP3    H132752   0.759   2.933  14.728  0.4934 -0.4343  0.6000
 3779TIP3    H232753   0.656   2.823  14.721 -0.0828  0.1530 -0.4863
 3780TIP3   OH232754   5.486   4.748  16.720 -0.0024  0.0666  0.7594
 3780TIP3    H132755   5.542   4.766  16.645  0.7437 -0.2604  1.2315
 3780TIP3    H232756   5.441   4.832  16.737  1.4236  0.7550  1.2746
 3781TIP3   OH232757   4.126   1.553  13.737 -0.4068  0.9810  0.1596
 3781TIP3    H132758   4.067   1.478  13.736 -0.1835  0.6915  2.6511
 3781TIP3    H232759   4.174   1.548  13.654 -1.2297 -0.9365 -0.2340
 3782TIP3   OH232760   2.358   3.958  15.069 -0.2401  0.0176  0.3186
 3782TIP3    H132761   2.421   4.020  15.107  0.4655  0.4822 -1.5282
 3782TIP3    H232762   2.354   3.982  14.977 -0.7951 -2.0069 -0.2214
 3783TIP3   OH232763   3.978   0.091  13.851 -0.1464  0.4385  0.4281
 3783TIP3    H132764   4.017   0.019  13.900  2.7524  0.8499 -1.0087
 3783TIP3    H232765   3.944   0.051  13.771  0.7728  0.4869 -0.0122
 3784TIP3   OH232766   3.472   4.739  11.530 -0.8904 -0.2814  0.5715
 3784TIP3    H132767   3.445   4.648  11.523  3.5946 -1.8198 -0.3367
 3784TIP3    H232768   3.434   4.770  11.612 -1.5289 -3.3973  1.5646
 3785TIP3   OH232769   4.124   2.939   5.205  0.3538 -0.0704 -0.4600
 3785TIP3    H132770   4.143   2.940   5.111  0.0212  1.6034 -0.5402
 3785TIP3    H232771   4.178   3.010   5.241  1.2781 -1.3620  0.8081
 3786TIP3   OH232772   2.599   6.311   0.267  0.0302  0.3779 -0.0502
 3786TIP3    H132773   2.503   6.303   0.265  0.0324  0.3119 -2.0111
 3786TIP3    H232774   2.615   6.402   0.291 -0.6114  0.9423 -1.6108
 3787TIP3   OH232775   3.399   1.833   2.523 -0.2353  0.1215 -0.0605
 3787TIP3    H132776   3.408   1.913   2.472  0.4914 -0.4873 -0.9106
 3787TIP3    H232777   3.389   1.763   2.458  0.3301 -0.6305  0.6306
 3788TIP3   OH232778   4.445   1.416  13.275  0.9218  0.0498 -0.3569
 3788TIP3    H132779   4.494   1.338  13.248  0.6074  0.1837 -1.3166
 3788TIP3    H232780   4.513   1.477  13.304  1.1865 -0.4818  0.1684
 3789TIP3   OH232781   6.357   1.451  14.129  0.2347  0.0836  0.3142
 3789TIP3    H132782   6.283   1.412  14.083  0.3771 -1.6205  1.4262
 3789TIP3    H232783   6.346   1.546  14.117 -2.3775 -0.0710  0.8057
 3790TIP3   OH232784   4.825   6.598   1.841  0.1677 -0.5244 -0.5330
 3790TIP3    H132785   4.821   6.692   1.857  3.3590 -0.3640  0.1006
 3790TIP3    H232786   4.808   6.559   1.927 -1.1077 -0.5829 -0.7862
 3791TIP3   OH232787   0.477   5.090  13.309 -0.0615 -0.7546 -0.4477
 3791TIP3    H132788   0.417   5.051  13.372  0.6788 -0.5528  0.4032
 3791TIP3    H232789   0.430   5.087  13.225 -1.8935  0.7986  0.4338
 3792TIP3   OH232790   2.189   3.223   5.491  0.0276  0.7597 -0.3729
 3792TIP3    H132791   2.285   3.227   5.495  0.0733 -0.3956  0.0405
 3792TIP3    H232792   2.170   3.183   5.406  0.0333 -1.3925  0.5666
 3793TIP3   OH232793   3.769   6.721  11.704  0.0420 -0.2626  1.0843
 3793TIP3    H132794   3.794   6.780  11.776 -0.4123 -0.6286  1.5496
 3793TIP3    H232795   3.826   6.746  11.632  1.9942 -1.2906  2.2000
 3794TIP3   OH232796   0.061   0.016  12.265 -0.4018  0.2809 -0.3043
 3794TIP3    H132797   0.087  -0.062  12.216 -1.2242  0.5681 -1.2293
 3794TIP3    H232798   0.101   0.089  12.217  0.6169  0.4341  0.7258
 3795TIP3   OH232799   5.317   3.518   4.983  0.0394  0.1187  0.7181
 3795TIP3    H132800   5.251   3.547   5.046 -0.0934 -2.0788  1.6675
 3795TIP3    H232801   5.362   3.445   5.027  1.3503 -0.1218 -0.9311
 3796TIP3   OH232802   3.787   2.350  13.279 -0.3500 -0.0243  1.0977
 3796TIP3    H132803   3.721   2.317  13.217  0.5234 -1.4981  0.8883
 3796TIP3    H232804   3.763   2.310  13.362  0.1060 -0.3592  1.0745
 3797TIP3   OH232805   2.127   4.882   0.161 -0.4822 -0.2152  0.2903
 3797TIP3    H132806   2.157   4.911   0.247 -0.2701 -1.7710  0.7693
 3797TIP3    H232807   2.111   4.788   0.171 -0.7827 -0.3647 -1.2790
 3798TIP3   OH232808   5.662   3.689   3.423 -0.1683  0.3250  0.7789
 3798TIP3    H132809   5.692   3.665   3.511 -0.2754 -0.9166  0.5003
 3798TIP3    H232810   5.624   3.608   3.388 -1.6443  1.2218  0.2057
 3799TIP3   OH232811   1.622   1.829   1.959 -0.4971 -0.4200  0.3661
 3799TIP3    H132812   1.642   1.916   1.925  0.3928  0.1735  2.2673
 3799TIP3    H232813   1.562   1.791   1.895 -2.0917  2.1425  0.2080
 3800TIP3   OH232814   2.508   6.283   2.063 -0.5808  0.1155  0.5544
 3800TIP3    H132815   2.574   6.223   2.027 -0.9110  0.1489 -0.1251
 3800TIP3    H232816   2.447   6.226   2.110  0.0107  0.1008  1.3144
 3801TIP3   OH232817   0.703   1.521   0.257  0.1831  0.4839  0.4471
 3801TIP3    H132818   0.642   1.524   0.183  1.1578 -0.7908 -0.4677
 3801TIP3    H232819   0.654   1.477   0.326  0.1031 -0.7483 -0.3561
 3802TIP3   OH232820   3.975   3.543  15.475 -0.3590  0.4033 -0.1450
 3802TIP3    H132821   4.055   3.494  15.493  0.6502  1.6840 -0.9936
 3802TIP3    H232822   3.925   3.486  15.417 -0.3981 -0.7023  0.9456
 3803TIP3   OH232823   5.103   4.405   0.744 -0.5173  0.0083  0.5729
 3803TIP3    H132824   5.121   4.498   0.726 -2.3071  0.6026  1.6140
 3803TIP3    H232825   5.133   4.391   0.833  1.5153 -0.9752 -0.2042
 3804TIP3   OH232826   3.698   1.131   2.536  0.5002  0.0496 -0.2747
 3804TIP3    H132827   3.791   1.116   2.522  0.4053 -0.8377 -0.0740
 3804TIP3    H232828   3.689   1.225   2.546  2.0048 -0.0423  3.9366
 3805TIP3   OH232829   2.247   4.609  16.599 -0.8493 -0.5121  0.0823
 3805TIP3    H132830   2.336   4.623  16.633 -0.0118 -1.3230 -1.6222
 3805TIP3    H232831   2.245   4.659  16.517 -2.0755 -0.2942  0.2267
 3806TIP3   OH232832   4.178   2.698  12.328  0.5073 -0.3480  0.1914
 3806TIP3    H132833   4.132   2.615  12.317  3.0554 -1.9031  0.6039
 3806TIP3    H232834   4.218   2.716  12.243 -0.5477  0.8613 -0.0898
 3807TIP3   OH232835   6.082   3.963  11.726 -0.3443 -0.1181 -0.6417
 3807TIP3    H132836   6.161   3.955  11.673  0.4135  0.6119  0.3469
 3807TIP3    H232837   6.023   3.894  11.692  0.0246  0.4342 -2.5258
 3808TIP3   OH232838   0.536   1.861  10.504 -0.4418  0.0683 -0.0284
 3808TIP3    H132839   0.623   1.822  10.500 -0.8319 -0.9941  1.4082
 3808TIP3    H232840   0.476   1.787  10.513 -1.3182  0.8848  1.1541
 3809TIP3   OH232841   0.292   1.323   3.462 -0.0570  0.1283 -0.1954
 3809TIP3    H132842   0.253   1.407   3.439 -0.8717 -0.0828  0.3802
 3809TIP3    H232843   0.296   1.275   3.379 -1.9369 -0.2097 -0.1397
 3810TIP3   OH232844   1.160   1.337  13.428  0.7657 -0.3258 -0.7139
 3810TIP3    H132845   1.142   1.312  13.518 -3.5238 -2.0550 -1.8146
 3810TIP3    H232846   1.123   1.425  13.420 -1.3754 -1.2153 -1.3135
 3811TIP3   OH232847   5.891   4.027   1.569  0.6367 -0.0266 -0.1346
 3811TIP3    H132848   5.907   4.003   1.478 -0.5408  0.3905 -0.4750
 3811TIP3    H232849   5.802   3.994   1.586 -0.3643  2.4859 -0.0928
 3812TIP3   OH232850   1.822   4.740  13.723  0.4294 -0.2656 -1.0558
 3812TIP3    H132851   1.838   4.778  13.636  1.7044  0.0961 -0.6742
 3812TIP3    H232852   1.863   4.654  13.720  1.4717  0.1962 -0.4542
 3813TIP3   OH232853   1.498   1.523   1.652  0.1782  0.3414  0.6083
 3813TIP3    H132854   1.457   1.444   1.617  1.5725 -0.5529  0.8935
 3813TIP3    H232855   1.471   1.593   1.592 -3.8543  0.4073  2.1858
 3814TIP3   OH232856   1.654   1.084  14.197  0.2779  0.6536 -0.1299
 3814TIP3    H132857   1.582   1.060  14.139  0.4456 -1.6431  0.4818
 3814TIP3    H232858   1.611   1.126  14.272 -0.8658 -2.8202  1.3798
 3815TIP3   OH232859   2.785   2.756   3.330 -0.3305 -0.1062 -0.0513
 3815TIP3    H132860   2.799   2.706   3.410  0.2787 -0.3063 -0.2803
 3815TIP3    H232861   2.814   2.698   3.260 -0.0399  0.3997 -0.3551
 3816TIP3   OH232862   4.404   5.832  11.636  0.6194  0.1730 -0.1124
 3816TIP3    H132863   4.475   5.767  11.630 -0.7197 -1.7776  2.9407
 3816TIP3    H232864   4.409   5.864  11.726 -2.1419  0.1963  0.1104
 3817TIP3   OH232865   0.348   0.855  13.732  0.1915 -0.1535  0.3755
 3817TIP3    H132866   0.277   0.916  13.752  2.0750  2.2086  0.2096
 3817TIP3    H232867   0.426   0.895  13.769  1.8112 -1.6503 -1.2246
 3818TIP3   OH232868   4.759   1.495   6.657  0.0265 -0.1580  0.9376
 3818TIP3    H132869   4.688   1.434   6.638  0.2877 -0.2761  0.2881
 3818TIP3    H232870   4.836   1.456   6.615  0.3008  0.3763  0.9253
 3819TIP3   OH232871   0.044   1.424  14.647  0.1294 -0.0919 -0.6025
 3819TIP3    H132872   0.093   1.503  14.670  0.7394 -0.5644 -0.1920
 3819TIP3    H232873   0.110   1.366  14.608 -0.2996 -0.3994 -0.8753
 3820TIP3   OH232874   5.397   6.474   0.437  0.4971  0.3992 -0.3025
 3820TIP3    H132875   5.421   6.426   0.357 -0.2911 -0.0752 -0.2628
 3820TIP3    H232876   5.471   6.532   0.453  2.4460 -2.1960  0.7720
 3821TIP3   OH232877   2.481   1.173   4.837 -0.0337 -0.3174  0.3756
 3821TIP3    H132878   2.414   1.121   4.794 -0.9288  1.6398 -0.7537
 3821TIP3    H232879   2.505   1.123   4.915 -1.6194 -1.8366 -0.0660
 3822TIP3   OH232880   2.811   4.155   2.043 -0.5952  0.3181 -0.4890
 3822TIP3    H132881   2.839   4.113   2.124 -0.9057  0.5042 -0.2804
 3822TIP3    H232882   2.726   4.114   2.023 -0.5801  0.3638 -0.6506
 3823TIP3   OH232883   6.770   2.976   4.939 -0.6439 -0.1752 -0.2506
 3823TIP3    H132884   6.850   2.926   4.926 -0.9889 -1.4533  1.9729
 3823TIP3    H232885   6.705   2.933   4.882 -0.1910 -0.2639 -0.7029
 3824TIP3   OH232886   5.427   4.878  12.416 -0.2852 -0.0480 -0.2248
 3824TIP3    H132887   5.343   4.834  12.405 -0.4224  0.3893 -1.0110
 3824TIP3    H232888   5.446   4.916  12.330  1.8423 -2.1107 -0.7912
 3825TIP3   OH232889   6.027   4.796   0.804 -0.3446 -0.4941 -0.0833
 3825TIP3    H132890   6.056   4.853   0.875  0.1944 -1.3863  0.4387
 3825TIP3    H232891   5.992   4.855   0.738 -2.1445  0.2981  1.4934
 3826TIP3   OH232892   2.957   4.898  13.792  0.9072 -0.6796  0.3502
 3826TIP3    H132893   2.938   4.979  13.745  0.3530 -0.6604  0.6006
 3826TIP3    H232894   2.978   4.834  13.723 -0.3323 -0.7717  0.0397
 3827TIP3   OH232895   2.149   0.925   0.966 -0.0275 -0.4626 -0.4903
 3827TIP3    H132896   2.185   0.964   0.886  0.2398 -0.1101 -0.1975
 3827TIP3    H232897   2.218   0.935   1.031 -1.0093  1.1189  0.3566
 3828TIP3   OH232898   3.369   2.637  11.924 -0.2110  0.1094 -0.5981
 3828TIP3    H132899   3.398   2.720  11.963 -0.6287  0.5787 -1.2693
 3828TIP3    H232900   3.361   2.656  11.831 -1.6064 -0.3072 -0.5797
 3829TIP3   OH232901   4.863   5.864  16.635 -0.3786 -0.4204  0.0368
 3829TIP3    H132902   4.852   5.824  16.549  0.0299 -1.9437  0.6624
 3829TIP3    H232903   4.799   5.936  16.636  0.6685  0.6389 -2.0881
 3830TIP3   OH232904   6.524   4.607  15.574 -0.1957 -0.5435 -0.0094
 3830TIP3    H132905   6.516   4.661  15.653 -0.0014 -0.0864 -0.3005
 3830TIP3    H232906   6.451   4.635  15.518 -0.1110 -0.6023 -0.1500
 3831TIP3   OH232907   3.339   0.666   1.391  0.4480  0.3449  0.3108
 3831TIP3    H132908   3.353   0.573   1.374 -4.5454 -0.7320  0.3412
 3831TIP3    H232909   3.399   0.711   1.332  1.6302 -2.9078 -1.2008
 3832TIP3   OH232910   3.839   1.392   4.589 -0.3628 -0.4604  0.0212
 3832TIP3    H132911   3.768   1.422   4.532  0.4682 -0.8472 -1.2482
 3832TIP3    H232912   3.909   1.455   4.575  0.1984 -1.1101 -0.1365
 3833TIP3   OH232913   1.830   5.727  15.457  0.2943  0.6477  0.0495
 3833TIP3    H132914   1.835   5.716  15.552 -3.0815 -1.6886  0.1288
 3833TIP3    H232915   1.788   5.811  15.444 -0.1702  0.5181  0.6843
 3834TIP3   OH232916   3.127   4.711  12.215  0.2375  0.6361  0.1898
 3834TIP3    H132917   3.066   4.785  12.223  1.0840  1.4343 -0.4856
 3834TIP3    H232918   3.206   4.740  12.261 -0.6709 -1.3710  3.3318
 3835TIP3   OH232919   2.515   5.734  14.649 -0.3287  0.9819 -0.0210
 3835TIP3    H132920   2.548   5.676  14.717 -2.5880 -1.3460 -0.7190
 3835TIP3    H232921   2.496   5.816  14.694  1.4976  0.6959  1.3705
 3836TIP3   OH232922   4.786   2.011   4.950  0.1556  0.0484 -0.1985
 3836TIP3    H132923   4.693   2.034   4.942  0.7282  2.0718 -2.0367
 3836TIP3    H232924   4.819   2.011   4.860  2.1862  0.5554  0.4922
 3837TIP3   OH232925   3.815   1.445   2.973 -0.1757  0.1471  0.5213
 3837TIP3    H132926   3.781   1.361   3.005 -0.2756 -0.9164 -2.0892
 3837TIP3    H232927   3.910   1.433   2.973 -0.1820  0.0915  0.3212
 3838TIP3   OH232928   0.804   0.305  14.407 -0.4495 -0.5075  0.1038
 3838TIP3    H132929   0.793   0.279  14.499 -2.0733 -0.4760 -0.0441
 3838TIP3    H232930   0.814   0.223  14.360  4.5158 -0.4975  0.6297
 3839TIP3   OH232931   5.516   1.258  14.300  0.1248 -0.2014  0.0118
 3839TIP3    H132932   5.603   1.286  14.272 -0.0666  0.3430 -0.0459
 3839TIP3    H232933   5.530   1.170  14.336  0.2887 -1.1797 -2.2568
 3840TIP3   OH232934   4.211   4.716   4.165 -0.7629 -0.0612  0.0825
 3840TIP3    H132935   4.255   4.722   4.080 -0.5158  0.3458  0.2367
 3840TIP3    H232936   4.279   4.693   4.227 -0.7335  0.7050  0.3432
 3841TIP3   OH232937   2.466   1.669   4.591 -0.0119  0.3316 -0.2403
 3841TIP3    H132938   2.463   1.594   4.650  0.7097 -0.3281 -1.0182
 3841TIP3    H232939   2.441   1.744   4.646  1.8196 -0.0629  1.2180
 3842TIP3   OH232940   6.687   5.470   0.994 -0.1487 -0.3385  0.0432
 3842TIP3    H132941   6.651   5.404   0.935 -0.3560 -0.1442 -0.0453
 3842TIP3    H232942   6.651   5.553   0.964  0.6432 -0.0921 -0.2672
 3843TIP3   OH232943   5.621   1.304   3.822 -0.8147 -0.4238  0.1218
 3843TIP3    H132944   5.564   1.366   3.869 -0.3219  0.7323 -0.7656
 3843TIP3    H232945   5.589   1.305   3.732  0.7543  0.4693 -0.4628
 3844TIP3   OH232946   6.693   2.420   1.857 -0.4821 -0.1157  0.0064
 3844TIP3    H132947   6.701   2.479   1.932 -0.5620  0.9439 -0.8044
 3844TIP3    H232948   6.667   2.336   1.896  1.0099 -0.0166  1.3238
 3845TIP3   OH232949   5.556   6.440  13.196 -0.0223 -0.1181  0.4105
 3845TIP3    H132950   5.622   6.432  13.266  2.4540  1.4372 -1.5790
 3845TIP3    H232951   5.565   6.359  13.146 -0.3148 -0.3226  0.6851
 3846TIP3   OH232952   4.058   3.257  12.190  0.3319 -0.1724 -0.0672
 3846TIP3    H132953   4.096   3.264  12.102 -1.5135  1.8793 -0.7929
 3846TIP3    H232954   4.115   3.309  12.245  0.7398 -0.3441 -0.3236
 3847TIP3   OH232955   3.398   3.862  14.917  0.0104  0.0002  0.0619
 3847TIP3    H132956   3.395   3.942  14.864  0.0800 -1.5668 -2.4724
 3847TIP3    H232957   3.484   3.865  14.959 -0.4165  1.7444  0.9441
 3848TIP3   OH232958   3.665   5.374  16.012  0.1614  0.1540  0.4088
 3848TIP3    H132959   3.698   5.464  16.005  0.3227  0.0665  0.0475
 3848TIP3    H232960   3.642   5.350  15.922 -0.3623  0.0121  0.5754
 3849TIP3   OH232961   6.170   4.241   4.653 -0.0720  0.7367 -0.3804
 3849TIP3    H132962   6.107   4.242   4.725  0.2952  0.5174 -0.0492
 3849TIP3    H232963   6.141   4.312   4.595 -1.5295 -0.3602 -1.0446
 3850TIP3   OH232964   0.161   3.673  16.260  0.7516 -0.1015  0.1125
 3850TIP3    H132965   0.204   3.653  16.177 -0.3411 -1.6045 -0.1350
 3850TIP3    H232966   0.228   3.717  16.312  0.8387  2.8479 -2.2912
 3851TIP3   OH232967   6.676   3.544   3.373  0.4130 -0.7090  0.2901
 3851TIP3    H132968   6.664   3.488   3.296 -0.3093 -0.4212  0.1776
 3851TIP3    H232969   6.594   3.534   3.421 -0.8270  2.1344 -0.9863
 3852TIP3   OH232970   4.048   3.747   6.437  0.0234 -0.1694 -0.1726
 3852TIP3    H132971   4.051   3.764   6.342  1.8935  1.8106  0.1582
 3852TIP3    H232972   4.139   3.730   6.461 -0.5573 -1.6214  1.1665
 3853TIP3   OH232973   6.258   6.267   3.079  0.5893  0.1024  0.1107
 3853TIP3    H132974   6.332   6.255   3.019  1.7651 -0.5479  1.6237
 3853TIP3    H232975   6.268   6.357   3.111  0.9206 -0.0750  0.5258
 3854TIP3   OH232976   4.001   2.049   0.457 -0.2656  0.0695  0.2370
 3854TIP3    H132977   3.960   1.976   0.504 -1.3130 -1.6776 -3.0555
 3854TIP3    H232978   4.081   2.011   0.419  0.7730  1.5205  0.8861
 3855TIP3   OH232979   2.315   5.572  11.037  0.1649 -0.0659  0.0032
 3855TIP3    H132980   2.354   5.652  11.072 -0.5576  0.9239 -1.3833
 3855TIP3    H232981   2.389   5.526  10.996  0.4504  0.2457  0.1591
 3856TIP3   OH232982   6.164   5.429  13.932  0.3245 -0.1347  0.2339
 3856TIP3    H132983   6.250   5.421  13.974  0.0025 -1.6128  0.6583
 3856TIP3    H232984   6.110   5.362  13.975 -0.5361 -0.4280 -1.2551
 3857TIP3   OH232985   3.341   0.589  13.629  0.8547  0.5151 -0.0947
 3857TIP3    H132986   3.369   0.667  13.581 -0.5403  0.2921 -1.3548
 3857TIP3    H232987   3.367   0.516  13.572 -0.5228  0.2341 -0.4094
 3858TIP3   OH232988   3.292   6.120  14.103  0.2086  0.0794  0.2514
 3858TIP3    H132989   3.238   6.157  14.173  0.9940 -0.5043  1.1876
 3858TIP3    H232990   3.232   6.110  14.030 -0.5201  1.1524  0.6790
 3859TIP3   OH232991   0.169   1.797  14.604 -0.4902  0.2064 -0.3934
 3859TIP3    H132992   0.091   1.844  14.636 -0.0836 -0.0392  1.0490
 3859TIP3    H232993   0.181   1.725  14.666  1.1928  0.5579 -0.2593
 3860TIP3   OH232994   3.009   6.313  15.291 -0.6936  0.0861  0.1646
 3860TIP3    H132995   3.019   6.246  15.358  0.0341  0.3582  0.3375
 3860TIP3    H232996   2.915   6.328  15.286 -0.7619  0.0478  1.1161
 3861TIP3   OH232997   4.617   6.448  11.411 -0.5017 -0.3026 -0.0245
 3861TIP3    H132998   4.697   6.423  11.364  0.0309  1.3504 -0.0898
 3861TIP3    H232999   4.643   6.449  11.503 -0.8247 -1.0571  0.0752
 3862TIP3   OH233000   6.460   4.345  16.863 -0.0083 -0.5561 -0.1882
 3862TIP3    H133001   6.394   4.406  16.831  0.8053  0.5738  0.2029
 3862TIP3    H233002   6.501   4.310  16.784  1.0159  1.1249 -0.4800
 3863TIP3   OH233003   0.897   5.618  12.299  0.3134  0.1847 -0.0947
 3863TIP3    H133004   0.982   5.640  12.260  0.7256  0.9599  1.1742
 3863TIP3    H233005   0.868   5.541  12.250  0.8184  1.0441 -1.8509
 3864TIP3   OH233006   5.950   0.419  14.898  0.0704 -0.0346  0.3076
 3864TIP3    H133007   5.867   0.371  14.895  0.7517 -1.2275 -0.0431
 3864TIP3    H233008   5.984   0.401  14.985  0.7218 -0.9062 -0.1102
 3865TIP3   OH233009   2.239   5.477  13.749  0.5731  0.4393 -0.3053
 3865TIP3    H133010   2.190   5.536  13.807  0.9161 -0.9080  1.4564
 3865TIP3    H233011   2.227   5.514  13.661 -2.7368  0.7525  0.1487
 3866TIP3   OH233012   3.798   6.018   0.547 -0.2001  0.1698 -0.7266
 3866TIP3    H133013   3.798   5.922   0.540  0.5554  0.0812  0.1787
 3866TIP3    H233014   3.869   6.046   0.490  2.2571 -0.1445  1.9503
 3867TIP3   OH233015   6.175   0.114   4.820 -0.0101  0.5095  0.3204
 3867TIP3    H133016   6.261   0.139   4.787  0.4195  1.1239  1.8015
 3867TIP3    H233017   6.178   0.135   4.913 -1.9623  1.0581  0.3129
 3868TIP3   OH233018   1.035   6.458   5.443  0.4187 -0.5162 -0.3376
 3868TIP3    H133019   1.094   6.527   5.411 -1.0784  1.2891  0.6405
 3868TIP3    H233020   1.006   6.488   5.529  0.3681 -2.8202  0.5320
 3869TIP3   OH233021   3.896   6.369  16.480  0.3969 -0.1670 -0.6329
 3869TIP3    H133022   3.820   6.356  16.536  0.8645 -0.5762 -0.0787
 3869TIP3    H233023   3.891   6.299  16.415 -0.9333  1.1588 -2.0262
 3870TIP3   OH233024   4.175   0.766   2.030 -0.6072  0.7224 -0.2713
 3870TIP3    H133025   4.224   0.813   2.097 -1.7482  0.6365  0.6580
 3870TIP3    H233026   4.206   0.675   2.037  0.4860  1.0195 -1.0247
 3871TIP3   OH233027   1.713   0.402  15.495  0.0082 -0.3063  0.1897
 3871TIP3    H133028   1.781   0.443  15.549  0.3504  1.4529 -1.4669
 3871TIP3    H233029   1.688   0.323  15.543  1.3111  0.4163  2.1662
 3872TIP3   OH233030   5.012   5.165  14.293  0.2143 -0.4336  1.0621
 3872TIP3    H133031   4.930   5.195  14.255  0.0566  0.0759  1.8000
 3872TIP3    H233032   5.005   5.069  14.292  0.1375 -0.4379 -0.0017
 3873TIP3   OH233033   5.826   0.598   4.713  0.2670  0.1264 -0.6205
 3873TIP3    H133034   5.874   0.518   4.735 -0.2094 -0.3189 -1.1756
 3873TIP3    H233035   5.793   0.630   4.797  0.2330 -0.4061 -0.4289
 3874TIP3   OH233036   4.060   4.352  11.788  0.2946 -0.0765 -0.3730
 3874TIP3    H133037   4.055   4.288  11.717  1.8330 -1.7609  0.9457
 3874TIP3    H233038   4.138   4.404  11.768 -1.0617  1.6289 -1.5481
 3875TIP3   OH233039   0.776   3.032  14.334  0.2778 -0.3007  0.1345
 3875TIP3    H133040   0.686   3.016  14.306  0.3027  0.6037 -0.5064
 3875TIP3    H233041   0.820   2.948  14.322 -0.6036 -0.9071  0.9882
 3876TIP3   OH233042   5.516   0.642   3.688  0.3025 -0.3264 -0.5494
 3876TIP3    H133043   5.591   0.589   3.659  0.0031 -1.0829  0.0473
 3876TIP3    H233044   5.457   0.580   3.730  0.6302  0.7072  1.5432
 3877TIP3   OH233045   3.725   0.615   2.395  0.0769  0.4143 -0.3652
 3877TIP3    H133046   3.790   0.673   2.355 -1.5722  0.7910 -2.7628
 3877TIP3    H233047   3.721   0.540   2.336 -1.9572  0.6339 -0.5838
 3878TIP3   OH233048   3.839   1.544  15.082  0.3365  0.2169 -0.3391
 3878TIP3    H133049   3.770   1.550  15.148  0.2595  1.7750 -0.5273
 3878TIP3    H233050   3.865   1.452  15.083 -1.4464 -0.3276  0.0286
 3879TIP3   OH233051   6.510   1.507  12.288  0.1299 -0.0325  0.0457
 3879TIP3    H133052   6.565   1.573  12.330  1.5846  0.0556 -1.8809
 3879TIP3    H233053   6.500   1.537  12.198 -3.1531 -0.0464  0.3034
 3880TIP3   OH233054   3.015   0.207  14.603 -0.2142 -0.3668 -0.0733
 3880TIP3    H133055   3.076   0.177  14.670  1.4015  0.8916 -0.9068
 3880TIP3    H233056   3.068   0.263  14.545 -1.6357 -1.0059 -2.1273
 3881TIP3   OH233057   5.435   0.706   6.279  0.2354  0.0369 -0.4554
 3881TIP3    H133058   5.385   0.667   6.350 -1.5733 -0.0559 -1.7105
 3881TIP3    H233059   5.408   0.658   6.200  2.0291  0.2508 -1.2722
 3882TIP3   OH233060   1.289   2.843  13.574 -0.2188  0.9032 -0.0727
 3882TIP3    H133061   1.217   2.797  13.531 -0.4854  1.4714 -0.2459
 3882TIP3    H233062   1.255   2.865  13.661  0.6588 -1.1134  0.8451
 3883TIP3   OH233063   0.493   5.613  15.800  0.3619 -0.0206 -0.2514
 3883TIP3    H133064   0.417   5.637  15.853  0.7459  1.2492 -0.2495
 3883TIP3    H233065   0.459   5.605  15.711 -0.1332 -1.3800  0.0429
 3884TIP3   OH233066   0.144   3.271   5.791  0.4711 -0.1444  0.2357
 3884TIP3    H133067   0.098   3.220   5.726 -0.3460  1.9768 -0.9667
 3884TIP3    H233068   0.093   3.261   5.871 -0.4306 -0.1315 -0.3323
 3885TIP3   OH233069   5.100   3.104   3.506 -0.2523  0.4621  0.2340
 3885TIP3    H133070   5.009   3.081   3.525 -0.3224 -0.6848 -1.2807
 3885TIP3    H233071   5.118   3.178   3.563 -1.8124  0.0740  1.3111
 3886TIP3   OH233072   0.412   5.635  12.386  0.4666 -0.4306 -0.3995
 3886TIP3    H133073   0.345   5.628  12.318  0.3808  0.1961 -0.3843
 3886TIP3    H233074   0.365   5.623  12.468  0.6523 -1.7395 -0.4502
 3887TIP3   OH233075   6.069   5.290   3.692 -0.6211 -0.2352 -0.0924
 3887TIP3    H133076   6.042   5.314   3.781  0.2586  1.4098 -0.2156
 3887TIP3    H233077   6.035   5.362   3.638 -1.1068 -1.1959 -1.0942
 3888TIP3   OH233078   3.404   6.758   1.363 -0.5459  0.6939 -0.5306
 3888TIP3    H133079   3.421   6.846   1.398 -1.3648  0.9976 -0.8614
 3888TIP3    H233080   3.411   6.769   1.268  0.3318  0.1747 -0.5329
 3889TIP3   OH233081   4.929   3.614  10.613 -0.9409  0.1398 -0.0589
 3889TIP3    H133082   4.980   3.637  10.535 -0.2606 -0.7780  0.1037
 3889TIP3    H233083   4.899   3.698  10.647 -0.7528  0.6008 -0.9724
 3890TIP3   OH233084   4.788   2.610  12.266 -0.5006  0.0929 -0.3513
 3890TIP3    H133085   4.732   2.607  12.344 -0.7854  1.1850 -0.5029
 3890TIP3    H233086   4.863   2.553  12.288 -1.2278 -0.6781  0.1859
 3891TIP3   OH233087   0.744   2.799  15.620 -0.3275 -0.7878  0.6642
 3891TIP3    H133088   0.741   2.736  15.549 -4.0906 -1.0092  0.7783
 3891TIP3    H233089   0.834   2.798  15.651  1.0307 -1.9991 -2.8736
 3892TIP3   OH233090   5.628   2.790   0.197 -0.0562 -0.5025  0.5391
 3892TIP3    H133091   5.588   2.866   0.153  1.4052  0.5973  1.0177
 3892TIP3    H233092   5.663   2.738   0.125  0.7666  0.3721  0.2863
 3893TIP3   OH233093   1.823   5.259  14.679 -0.5065 -0.0184  0.1020
 3893TIP3    H133094   1.899   5.271  14.622  0.5655  0.1629  1.5120
 3893TIP3    H233095   1.764   5.202  14.629  0.0777  0.6713 -1.4445
 3894TIP3   OH233096   2.585   0.719  13.462 -0.1000 -0.1222  0.5213
 3894TIP3    H133097   2.537   0.651  13.414  0.2108 -0.5037  0.7485
 3894TIP3    H233098   2.656   0.672  13.506 -1.1608  0.0100  2.4555
 3895TIP3   OH233099   0.844   2.853   3.430  0.4463  0.2186 -1.0783
 3895TIP3    H133100   0.842   2.913   3.355 -0.6915  3.2517  1.2021
 3895TIP3    H233101   0.908   2.891   3.490 -1.9901  0.6305  1.4783
 3896TIP3   OH233102   2.723   2.434  14.285 -0.0182 -0.3561 -0.3855
 3896TIP3    H133103   2.808   2.398  14.309 -0.2136 -2.5481 -2.5425
 3896TIP3    H233104   2.660   2.369  14.314 -0.7190 -0.0578 -1.1799
 3897TIP3   OH233105   5.709   0.374   4.028 -0.1437 -0.1834  0.3173
 3897TIP3    H133106   5.688   0.289   3.990  0.5644 -0.7599  1.1733
 3897TIP3    H233107   5.659   0.378   4.109 -0.4739  0.3862  0.0894
 3898TIP3   OH233108   3.103   3.174  12.716 -0.2898 -0.1325  0.0690
 3898TIP3    H133109   3.161   3.098  12.718 -0.3822 -0.1906  1.6671
 3898TIP3    H233110   3.019   3.140  12.685  0.1436 -0.2979 -0.9789
 3899TIP3   OH233111   0.933   6.208   2.266  0.7545  0.3746  0.0784
 3899TIP3    H133112   0.951   6.298   2.237  0.9813 -0.1454 -1.4867
 3899TIP3    H233113   1.002   6.156   2.227  0.4072 -0.5481  0.6633
 3900TIP3   OH233114   5.433   0.268  16.529 -0.0056  0.2836  0.2927
 3900TIP3    H133115   5.447   0.229  16.616  1.0195  0.6037  0.2846
 3900TIP3    H233116   5.426   0.362  16.546 -0.8474  0.2574  0.1327
 3901TIP3   OH233117   4.977   4.452   3.194 -0.7946  0.6948 -0.4342
 3901TIP3    H133118   4.953   4.475   3.104 -1.4823 -1.0709 -0.7438
 3901TIP3    H233119   5.015   4.364   3.187  2.6077  1.9278  0.5443
 3902TIP3   OH233120   3.591   5.147  10.811  0.3653  0.1601  0.0554
 3902TIP3    H133121   3.662   5.119  10.753  0.3866  0.2033  0.0604
 3902TIP3    H233122   3.635   5.172  10.892  0.4212  0.9244 -0.2017
 3903TIP3   OH233123   4.202   3.202  14.654  0.2894  0.1171  0.2839
 3903TIP3    H133124   4.280   3.255  14.640  0.9360 -0.7569  0.4383
 3903TIP3    H233125   4.171   3.226  14.741  0.2502  0.6337  0.1285
 3904TIP3   OH233126   0.431   6.282  16.006 -0.0600 -0.6942 -0.0588
 3904TIP3    H133127   0.433   6.196  16.048  0.0155  0.4310  2.4328
 3904TIP3    H233128   0.469   6.341  16.071 -2.5728  1.6733 -0.5613
 3905TIP3   OH233129   2.375   4.242  12.012 -0.6349  0.2452  0.1320
 3905TIP3    H133130   2.338   4.307  12.072 -1.7644 -2.6084  2.7833
 3905TIP3    H233131   2.455   4.212  12.055 -0.2063 -0.2681 -0.9703
 3906TIP3   OH233132   6.762   2.042  14.515  1.0565  0.1869  0.1554
 3906TIP3    H133133   6.782   2.103  14.586 -0.2918  2.0946 -1.0031
 3906TIP3    H233134   6.826   2.063  14.447  1.1861 -0.3646  0.1051
 3907TIP3   OH233135   4.095   5.240  11.388 -0.3302 -0.0332 -0.2543
 3907TIP3    H133136   4.061   5.322  11.352 -1.2030 -0.3110 -0.0811
 3907TIP3    H233137   4.032   5.215  11.456  0.4508 -0.3400  0.3799
 3908TIP3   OH233138   0.769   2.842   2.020  0.0807  0.0935  0.3421
 3908TIP3    H133139   0.816   2.884   1.948 -0.0051 -0.1866  0.1209
 3908TIP3    H233140   0.687   2.891   2.027 -1.1115 -1.4854 -1.4985
 3909TIP3   OH233141   5.870   0.131   5.420 -0.1185 -0.5618  0.3810
 3909TIP3    H133142   5.792   0.176   5.387  0.9348  0.2160 -1.1346
 3909TIP3    H233143   5.888   0.064   5.354  0.9575 -0.1918  0.2910
 3910TIP3   OH233144   1.533   0.198   5.397  0.1634  0.5578  0.3206
 3910TIP3    H133145   1.587   0.144   5.339 -1.2642 -1.3880  0.6959
 3910TIP3    H233146   1.493   0.263   5.339  1.1155  0.5813 -0.3371
 3911TIP3   OH233147   2.606   3.533   6.513 -0.1432  0.7469  0.0375
 3911TIP3    H133148   2.565   3.555   6.430  0.1979 -0.2789 -0.4110
 3911TIP3    H233149   2.700   3.536   6.495 -0.0770 -1.7754 -0.2518
 3912TIP3   OH233150   6.423   1.925  11.421  0.4355 -0.3279  0.7300
 3912TIP3    H133151   6.478   1.985  11.370  1.2117 -0.1588  1.7399
 3912TIP3    H233152   6.401   1.974  11.500 -0.2790 -0.7902  0.8261
 3913TIP3   OH233153   2.564   2.116  11.201 -0.0910  0.4050 -0.0376
 3913TIP3    H133154   2.478   2.156  11.202 -1.7661 -2.8180 -0.2316
 3913TIP3    H233155   2.586   2.108  11.108  0.4788  1.2745  0.0122
 3914TIP3   OH233156   3.810   0.798  15.872 -0.4830  0.2764 -0.5959
 3914TIP3    H133157   3.889   0.774  15.824  0.3108  0.3816  0.6065
 3914TIP3    H233158   3.740   0.792  15.808  0.4206 -0.3768 -1.5518
 3915TIP3   OH233159   0.360   6.657   4.115 -0.1903  0.4709 -0.5810
 3915TIP3    H133160   0.365   6.751   4.096  0.8155  0.5186 -0.1562
 3915TIP3    H233161   0.330   6.653   4.206  0.0650  0.3983 -0.4982
 3916TIP3   OH233162   0.182   0.259  17.107 -0.4021 -0.0546  0.5856
 3916TIP3    H133163   0.181   0.263  17.202 -3.2422 -2.2219  0.8132
 3916TIP3    H233164   0.244   0.189  17.087  1.5662  1.5909  0.6354
 3917TIP3   OH233165   4.765   4.722  15.513 -0.1773 -0.1470  0.7830
 3917TIP3    H133166   4.807   4.698  15.430 -1.6044  2.0188 -0.6989
 3917TIP3    H233167   4.809   4.803  15.539 -0.0099 -0.6037  1.9695
 3918TIP3   OH233168   3.017   0.417  11.028  0.3245  0.9211 -0.6671
 3918TIP3    H133169   2.964   0.478  10.978 -0.0506  1.4160  0.3105
 3918TIP3    H233170   2.997   0.331  10.991 -1.5839  1.0234  0.0080
 3919TIP3   OH233171   1.325   0.222  16.479  0.1013  0.0485  0.7515
 3919TIP3    H133172   1.382   0.293  16.507  0.0060  0.6649 -0.5414
 3919TIP3    H233173   1.260   0.265  16.423  1.2992 -1.3241 -1.8231
 3920TIP3   OH233174   0.664   4.518   5.214 -0.0834 -0.0856 -0.0959
 3920TIP3    H133175   0.698   4.479   5.134  0.0725  2.2161 -1.2487
 3920TIP3    H233176   0.733   4.506   5.279  1.4511  1.2915 -1.3924
 3921TIP3   OH233177   2.625   1.857  14.859 -0.7821 -0.8751  0.6243
 3921TIP3    H133178   2.534   1.839  14.879 -0.4964 -1.8672  1.0936
 3921TIP3    H233179   2.659   1.775  14.825 -0.7011  0.1716 -2.0454
 3922TIP3   OH233180   2.798   3.802   0.589 -0.4386  0.1872 -0.3548
 3922TIP3    H133181   2.707   3.795   0.619 -0.2599 -1.2078 -0.0214
 3922TIP3    H233182   2.812   3.895   0.576 -1.1835  0.7060  1.9753
 3923TIP3   OH233183   2.659   0.550  15.379 -0.2523 -0.1359  0.8031
 3923TIP3    H133184   2.625   0.495  15.449 -0.0545  1.5037  2.2782
 3923TIP3    H233185   2.582   0.594  15.343 -0.1771  0.4539  1.3293
 3924TIP3   OH233186   2.484   3.037  15.713 -0.3913 -0.0391 -0.1800
 3924TIP3    H133187   2.473   3.123  15.752 -1.1508  1.2312 -2.9345
 3924TIP3    H233188   2.410   3.029  15.652 -0.3248 -2.6313 -0.0313
 3925TIP3   OH233189   5.984   4.232  15.231  0.6881  0.1807  0.0297
 3925TIP3    H133190   5.938   4.216  15.314 -1.7025  1.6598 -0.9094
 3925TIP3    H233191   6.040   4.307  15.248  0.6633  0.1074  0.4450
 3926TIP3   OH233192   0.673   0.875  14.860 -0.4602 -0.6980  0.5338
 3926TIP3    H133193   0.763   0.846  14.844 -0.1043  0.9238 -0.6757
 3926TIP3    H233194   0.666   0.882  14.955  0.4838 -1.4488  0.6734
 3927TIP3   OH233195   1.871   1.275   1.822  0.0203  0.3360 -0.9434
 3927TIP3    H133196   1.832   1.227   1.895  1.8728  0.1916  0.0029
 3927TIP3    H233197   1.806   1.267   1.752 -1.7414  0.3284  0.5970
 3928TIP3   OH233198   6.254   2.643   4.126  0.0019 -0.0894  0.3315
 3928TIP3    H133199   6.230   2.668   4.036 -0.0440 -2.4828 -0.3969
 3928TIP3    H233200   6.213   2.709   4.181 -0.8054  0.8955 -1.3640
 3929TIP3   OH233201   3.746   2.053  16.963 -0.0688  0.1766  0.3055
 3929TIP3    H133202   3.775   1.994  16.894  0.0239  0.4284  0.1263
 3929TIP3    H233203   3.771   2.010  17.044 -1.0875 -0.6080  0.2249
 3930TIP3   OH233204   5.623   3.380   5.012 -0.6082  0.0337 -0.2933
 3930TIP3    H133205   5.709   3.411   5.040 -1.7377  1.6986  1.5585
 3930TIP3    H233206   5.597   3.441   4.943 -0.9415  0.4517  0.2036
 3931TIP3   OH233207   0.253   4.374  12.844  0.1440  0.1410 -0.2783
 3931TIP3    H133208   0.189   4.408  12.782  0.4752  0.2970 -0.5405
 3931TIP3    H233209   0.301   4.308  12.794  0.3679  0.2207 -0.1706
 3932TIP3   OH233210   4.004   2.355  12.070 -0.1405 -0.0999 -0.2739
 3932TIP3    H133211   3.982   2.272  12.029  1.7596 -1.1891  0.7990
 3932TIP3    H233212   4.100   2.358  12.070 -0.0227  0.2702  3.0684
 3933TIP3   OH233213   3.413   3.303  17.025  0.4254  0.5205 -0.2701
 3933TIP3    H133214   3.350   3.348  17.082 -0.9376 -0.7395 -0.7091
 3933TIP3    H233215   3.477   3.265  17.085 -0.4707 -0.0176  0.3594
 3934TIP3   OH233216   1.032   1.349  15.724 -0.3404  0.1562  0.3128
 3934TIP3    H133217   0.945   1.388  15.710 -0.7949 -0.7162  0.6739
 3934TIP3    H233218   1.093   1.422  15.710 -1.1375  0.8222  0.2405
 3935TIP3   OH233219   1.580   0.242  12.905 -0.4315 -0.6061  0.2310
 3935TIP3    H133220   1.605   0.155  12.874 -4.2285 -1.7102 -0.2341
 3935TIP3    H233221   1.539   0.284  12.830  0.5423  1.3380  0.6972
 3936TIP3   OH233222   1.333   4.624   6.482  0.7531 -0.0751 -0.1336
 3936TIP3    H133223   1.273   4.551   6.496  1.2705 -0.7406 -1.2540
 3936TIP3    H233224   1.280   4.702   6.497  0.3821 -0.6594  1.8153
 3937TIP3   OH233225   3.834   0.189   0.118 -0.3463 -0.1596 -0.1484
 3937TIP3    H133226   3.882   0.271   0.132 -0.7225 -0.3144  2.4541
 3937TIP3    H233227   3.859   0.133   0.191 -0.9694 -1.9764 -1.2629
 3938TIP3   OH233228   2.795   2.035   0.351 -0.1583 -0.3139 -0.2601
 3938TIP3    H133229   2.862   1.973   0.321 -0.5431 -1.4834  1.1547
 3938TIP3    H233230   2.712   1.992   0.329 -0.4400  0.2570 -0.3239
 3939TIP3   OH233231   3.911   1.238   5.779  0.1702 -0.1311  0.1451
 3939TIP3    H133232   3.927   1.153   5.739  0.1649 -0.1566  0.1977
 3939TIP3    H233233   3.997   1.279   5.783  0.1770 -0.1457  0.1464
 3940TIP3   OH233234   2.919   4.365  13.768  0.0030 -0.2534 -0.4762
 3940TIP3    H133235   2.883   4.280  13.795 -1.6721  0.7384  0.6056
 3940TIP3    H233236   3.010   4.346  13.745 -0.2083 -2.2726  0.1447
 3941TIP3   OH233237   0.026   4.741   3.552  0.1746 -0.1757 -0.3342
 3941TIP3    H133238   0.081   4.662   3.555 -1.1201 -1.1263 -0.6876
 3941TIP3    H233239  -0.008   4.749   3.641 -0.7249 -0.8069 -0.6009
 3942TIP3   OH233240   4.784   3.963  16.023  0.1521 -0.1372 -0.3786
 3942TIP3    H133241   4.818   4.003  16.104 -1.4108 -0.8052  0.6399
 3942TIP3    H233242   4.856   3.908  15.992  0.4405 -0.6661  1.1328
 3943TIP3   OH233243   4.262   0.524   4.727  0.0403 -0.1799 -0.6691
 3943TIP3    H133244   4.270   0.592   4.660 -0.1487 -0.6807 -1.2164
 3943TIP3    H233245   4.180   0.543   4.772 -0.3240 -0.3932 -1.2287
 3944TIP3   OH233246   1.424   4.528  15.359 -0.3525  0.5160  0.5238
 3944TIP3    H133247   1.340   4.543  15.401 -1.8620 -0.1978 -2.0041
 3944TIP3    H233248   1.402   4.498  15.270  2.5415 -1.5187  0.3238
 3945TIP3   OH233249   4.687   3.189   1.079 -0.4403 -0.3711 -0.2479
 3945TIP3    H133250   4.648   3.262   1.031  0.7278  1.4678  1.4252
 3945TIP3    H233251   4.657   3.200   1.169 -0.5501 -2.2371 -0.0139
 3946TIP3   OH233252   2.963   6.236   0.218  0.3758  0.1092  0.2765
 3946TIP3    H133253   3.044   6.278   0.246  0.8707 -1.1056  0.7778
 3946TIP3    H233254   2.991   6.151   0.184 -0.5777  0.1667 -0.7033
 3947TIP3   OH233255   4.775   6.227  13.705 -0.4571 -0.2460 -0.2905
 3947TIP3    H133256   4.871   6.235  13.700 -0.4336  1.2797  1.4622
 3947TIP3    H233257   4.742   6.302  13.655 -0.6357  0.8462  1.3906
 3948TIP3   OH233258   0.691   2.995   5.728  0.6492 -0.0499  0.5720
 3948TIP3    H133259   0.724   3.055   5.660  0.9440 -0.7895  0.0509
 3948TIP3    H233260   0.596   2.998   5.717  0.7259 -0.7832 -0.4286
 3949TIP3   OH233261   1.817   5.768   4.425  0.3585  0.9056  0.0062
 3949TIP3    H133262   1.735   5.768   4.474  1.0344  1.1134  1.1749
 3949TIP3    H233263   1.791   5.755   4.334 -0.7339 -3.3433  0.7146
 3950TIP3   OH233264   3.838   6.027  12.623  0.3496  0.1779  0.5723
 3950TIP3    H133265   3.872   6.114  12.646 -0.0605  0.2488  0.9099
 3950TIP3    H233266   3.906   5.989  12.567 -0.5184  1.6483 -1.5803
 3951TIP3   OH233267   0.028   3.433   0.050 -0.5329  0.0442 -0.0982
 3951TIP3    H133268  -0.032   3.449  -0.023  2.9633  1.7433 -2.9018
 3951TIP3    H233269   0.052   3.341   0.040 -1.9072 -0.4196  0.5450
 3952TIP3   OH233270   2.905   4.794   5.037  0.3133 -0.7266  0.1406
 3952TIP3    H133271   2.986   4.813   5.085 -0.1542 -0.6887  0.9280
 3952TIP3    H233272   2.935   4.754   4.955  1.1389 -0.4881  0.3134
 3953TIP3   OH233273   0.643   0.134  12.528 -0.3293 -0.1278 -0.6740
 3953TIP3    H133274   0.596   0.067  12.577  0.2647 -0.4879 -0.5780
 3953TIP3    H233275   0.709   0.085  12.478 -0.5891  0.2802 -1.4329
 3954TIP3   OH233276   1.093   0.130   5.941  0.2100 -0.1766 -0.4425
 3954TIP3    H133277   1.176   0.086   5.920  0.4304  0.4646 -0.9561
 3954TIP3    H233278   1.078   0.189   5.867  0.9294  2.0577  1.1086
 3955TIP3   OH233279   3.699   6.233  12.473 -0.3001 -0.0847 -0.0556
 3955TIP3    H133280   3.700   6.188  12.389  0.4085 -0.6396  0.2361
 3955TIP3    H233281   3.789   6.229  12.504 -0.5068  0.2985  0.6293
 3956TIP3   OH233282   2.580   0.843   2.854  0.3834  0.2539 -0.0359
 3956TIP3    H133283   2.658   0.860   2.801  1.5807 -2.1899  0.8102
 3956TIP3    H233284   2.609   0.850   2.944 -1.2961  2.8924  0.3888
 3957TIP3   OH233285   5.595   6.598  15.849  0.2146 -0.1698  0.2484
 3957TIP3    H133286   5.672   6.595  15.791 -0.9282  1.8079 -1.5243
 3957TIP3    H233287   5.630   6.625  15.934  1.6306 -0.6128 -0.1593
 3958TIP3   OH233288   2.397   6.644   0.706 -0.4044  0.8530 -0.0228
 3958TIP3    H133289   2.375   6.697   0.630 -0.9385  0.6491 -0.0162
 3958TIP3    H233290   2.409   6.555   0.672 -2.6087  0.3503  0.3717
 3959TIP3   OH233291   3.455   3.451  14.664  0.1102  0.0788 -0.2716
 3959TIP3    H133292   3.465   3.449  14.569  0.1357 -1.9606 -0.2683
 3959TIP3    H233293   3.543   3.437  14.699 -0.2613 -2.0584 -0.0365
 3960TIP3   OH233294   4.828   4.653   3.333 -0.0645  0.0107  0.5818
 3960TIP3    H133295   4.879   4.586   3.288  1.1641 -0.0392  1.9608
 3960TIP3    H233296   4.786   4.702   3.263 -0.9281 -2.1106 -0.4746
 3961TIP3   OH233297   6.420   1.637   4.776 -0.0134  0.6235 -0.3163
 3961TIP3    H133298   6.459   1.559   4.816 -0.8819  0.8978  1.1650
 3961TIP3    H233299   6.351   1.603   4.718 -0.4641  0.2703  0.4094
 3962TIP3   OH233300   1.930   4.203   4.999 -0.2028 -0.3874  0.3042
 3962TIP3    H133301   1.837   4.213   5.018 -0.4114 -1.2426 -0.1988
 3962TIP3    H233302   1.949   4.271   4.935 -0.6831 -0.7234 -0.2072
 3963TIP3   OH233303   0.074   2.023   2.115 -1.2493  0.8283 -0.2479
 3963TIP3    H133304   0.023   1.945   2.091 -0.9326  0.5637 -0.0776
 3963TIP3    H233305   0.128   2.041   2.038 -0.6761  0.3431  0.0301
 3964TIP3   OH233306   3.442   1.452  11.036  0.0923 -0.3319  0.5408
 3964TIP3    H133307   3.482   1.500  11.109  1.3381  0.4865 -0.6357
 3964TIP3    H233308   3.430   1.518  10.968  1.4857 -1.5727 -0.9968
 3965TIP3   OH233309   1.895   4.335  14.859  0.2260  0.0644 -0.3115
 3965TIP3    H133310   1.832   4.373  14.921 -1.0237 -0.8667 -0.9604
 3965TIP3    H233311   1.921   4.408  14.803  0.9269  0.7905  0.9046
 3966TIP3   OH233312   4.629   1.189  12.817  0.2224  0.0583 -0.1348
 3966TIP3    H133313   4.562   1.209  12.751  1.0500  2.5275 -0.3451
 3966TIP3    H233314   4.586   1.129  12.877 -1.7442  0.4883 -1.0164
 3967TIP3   OH233315   5.976   5.139  14.789  0.3859 -0.0366  0.0656
 3967TIP3    H133316   5.918   5.113  14.718 -1.6628  0.0597  1.6013
 3967TIP3    H233317   6.059   5.095  14.770 -0.4788 -1.0350 -1.6721
 3968TIP3   OH233318   3.954   1.732  12.777 -0.2943 -0.7438 -0.1696
 3968TIP3    H133319   3.937   1.703  12.866 -2.6293  1.6680  0.2955
 3968TIP3    H233320   4.025   1.795  12.785 -3.0281  2.5496  0.8389
 3969TIP3   OH233321   5.578   0.254  17.064  0.6078  0.3602  0.4542
 3969TIP3    H133322   5.491   0.216  17.078  1.3786 -1.2379  1.0562
 3969TIP3    H233323   5.594   0.244  16.970 -0.4760  2.1353  0.0167
 3970TIP3   OH233324   5.365   1.605   0.500  0.5831 -0.5938 -0.0644
 3970TIP3    H133325   5.351   1.679   0.440 -0.3180 -0.7687 -0.0798
 3970TIP3    H233326   5.368   1.528   0.442  0.3698 -0.6910  0.0539
 3971TIP3   OH233327   6.259   0.675  14.087  0.0688 -0.3310  0.6540
 3971TIP3    H133328   6.175   0.628  14.083 -0.2616  0.3138 -0.2322
 3971TIP3    H233329   6.247   0.751  14.031  0.5171  0.9658  2.2380
 3972TIP3   OH233330   6.304   6.340   5.863 -0.2151  0.1836  0.2113
 3972TIP3    H133331   6.320   6.385   5.946  0.9784  0.3825 -0.1120
 3972TIP3    H233332   6.209   6.324   5.863 -0.0320 -1.6357  2.5547
 3973TIP3   OH233333   3.046   0.301   1.700  0.5607  0.7607 -0.2200
 3973TIP3    H133334   2.965   0.283   1.747  0.4886  1.5079 -0.0378
 3973TIP3    H233335   3.025   0.285   1.608 -0.4547  2.9611 -0.4498
 3974TIP3   OH233336   5.423   1.497  13.471  0.0636  0.4378  0.1893
 3974TIP3    H133337   5.333   1.483  13.500  0.4226 -0.3576  0.9572
 3974TIP3    H233338   5.460   1.409  13.463  0.7846  0.7561 -0.0970
 3975TIP3   OH233339   4.247   5.841  15.653  0.2201  0.1045 -0.0518
 3975TIP3    H133340   4.166   5.866  15.609  0.1149  0.2308  0.2100
 3975TIP3    H233341   4.269   5.916  15.708  0.7936  0.2771 -0.5011
 3976TIP3   OH233342   1.834   0.008   0.724 -0.4272 -0.0963  1.1607
 3976TIP3    H133343   1.745  -0.010   0.754 -1.7302  0.5996 -1.8543
 3976TIP3    H233344   1.847   0.101   0.743 -1.0507  0.2190  0.1489
 3977TIP3   OH233345   5.256   5.698   3.974 -0.4984  0.2911  0.5226
 3977TIP3    H133346   5.170   5.656   3.983 -1.5239  2.3202  1.0351
 3977TIP3    H233347   5.305   5.641   3.916 -1.8910 -1.3911  0.9064
 3978TIP3   OH233348   3.957   6.265  12.626  0.5800  0.3319  0.1442
 3978TIP3    H133349   3.953   6.351  12.667  2.0371 -0.6707  2.6395
 3978TIP3    H233350   4.010   6.278  12.547  0.2684  1.7959  0.1597
 3979TIP3   OH233351   0.549   2.965  15.951  0.4378  0.0286 -0.3195
 3979TIP3    H133352   0.468   2.970  16.002 -0.3114 -1.2879 -1.3406
 3979TIP3    H233353   0.617   2.952  16.017  0.0731  2.6685  0.7077
 3980TIP3   OH233354   0.527   1.779  15.938 -0.9207 -0.0547 -0.4192
 3980TIP3    H133355   0.564   1.866  15.920  1.3745 -1.0916 -1.0565
 3980TIP3    H233356   0.584   1.743  16.006 -1.9174 -1.0562 -0.0860
 3981TIP3   OH233357   3.787   3.227  11.125 -0.0378  0.0961  0.0354
 3981TIP3    H133358   3.733   3.303  11.145 -1.9316 -0.2761 -3.0645
 3981TIP3    H233359   3.735   3.152  11.152 -0.8577 -0.2324 -2.2425
 3982TIP3   OH233360   0.643   1.892   6.687  0.3119  0.2888 -0.2132
 3982TIP3    H133361   0.597   1.971   6.660  1.0254  0.6483 -0.3822
 3982TIP3    H233362   0.684   1.859   6.607 -1.4722 -1.2901 -0.5593
 3983TIP3   OH233363   2.070   2.783  14.638 -0.3421  0.6507  0.0605
 3983TIP3    H133364   2.032   2.870  14.651 -2.4397 -0.1408 -0.3635
 3983TIP3    H233365   2.006   2.723  14.677  0.6685 -0.7471 -0.3623
 3984TIP3   OH233366   0.455   5.842   2.828 -0.4954 -0.1458 -0.1074
 3984TIP3    H133367   0.515   5.791   2.882 -1.5932 -0.9416  0.3980
 3984TIP3    H233368   0.399   5.777   2.785 -0.0319  0.4984 -1.7809
 3985TIP3   OH233369   5.101   5.605   6.250  0.4222 -0.7406  0.2860
 3985TIP3    H133370   5.143   5.545   6.189  0.0727 -0.0500 -0.6677
 3985TIP3    H233371   5.010   5.576   6.254  0.1081  0.0668 -0.6523
 3986TIP3   OH233372   0.876   3.788  10.957 -0.1053  0.1123  0.6544
 3986TIP3    H133373   0.876   3.856  10.889 -0.6993  1.3606  1.8537
 3986TIP3    H233374   0.819   3.720  10.922  0.5717  0.1648 -0.6141
 3987TIP3   OH233375   6.529   2.696   1.753 -0.3611 -0.0559  0.1775
 3987TIP3    H133376   6.597   2.662   1.811  1.2266 -1.3298 -2.2508
 3987TIP3    H233377   6.527   2.790   1.772 -0.7031 -0.5303  2.9721
 3988TIP3   OH233378   4.077   4.724  10.355  0.2747  0.1849 -0.1678
 3988TIP3    H133379   3.994   4.756  10.320 -0.9027 -3.1140 -0.7585
 3988TIP3    H233380   4.086   4.768  10.440 -3.1546 -0.7751  0.8367
 3989TIP3   OH233381   0.101   0.582  15.906  0.6440  0.2927 -0.5463
 3989TIP3    H133382   0.038   0.533  15.960  1.4602  0.7957  0.9251
 3989TIP3    H233383   0.055   0.663  15.883 -0.1928 -0.5032 -1.7756
 3990TIP3   OH233384   5.892   6.068   5.910 -0.1431  0.3270 -0.4459
 3990TIP3    H133385   5.904   5.980   5.945 -0.6159  0.3425 -0.2410
 3990TIP3    H233386   5.977   6.089   5.870  0.5952  0.5016  1.1326
 3991TIP3   OH233387   1.457   0.426  16.787 -0.4951  0.4626 -0.2538
 3991TIP3    H133388   1.485   0.516  16.800 -0.6688  0.3990  0.5795
 3991TIP3    H233389   1.487   0.405  16.698  1.3736  0.6699  0.2804
 3992TIP3   OH233390   0.060   5.302   0.085 -0.5316 -0.2417  0.1189
 3992TIP3    H133391   0.085   5.211   0.065  2.5662 -0.0673  2.4425
 3992TIP3    H233392   0.027   5.298   0.175 -0.7482  0.9026  0.1012
 3993TIP3   OH233393   1.163   2.156   4.507 -0.5617 -0.1073  0.2779
 3993TIP3    H133394   1.221   2.182   4.435 -2.5469  3.1694 -0.3842
 3993TIP3    H233395   1.221   2.132   4.578  1.5112 -0.3954 -1.4246
 3994TIP3   OH233396   5.234   2.716   4.912 -0.0430 -0.2799  0.0182
 3994TIP3    H133397   5.237   2.622   4.931 -0.3445 -0.5497 -1.1559
 3994TIP3    H233398   5.213   2.757   4.996  0.3839 -1.2354  0.6070
 3995TIP3   OH233399   4.696   2.479  15.059 -0.3074  0.2070  0.1539
 3995TIP3    H133400   4.635   2.407  15.042 -1.5664  0.9625  1.3142
 3995TIP3    H233401   4.709   2.520  14.973 -1.0085 -0.2820 -0.1911
 3996TIP3   OH233402   4.431   0.942  14.676 -0.8054  0.2871 -0.6783
 3996TIP3    H133403   4.486   1.017  14.698 -2.7353  1.9032 -1.0786
 3996TIP3    H233404   4.342   0.972  14.690 -1.6701 -1.9632 -0.8457
 3997TIP3   OH233405   1.936   0.417  13.694  0.3607  0.2170 -0.0753
 3997TIP3    H133406   1.937   0.325  13.668 -0.0726  0.2202 -0.0990
 3997TIP3    H233407   1.844   0.442  13.693  0.4228  0.4823  0.5413
 3998TIP3   OH233408   5.075   6.068  16.865  0.4081 -0.4969  0.4788
 3998TIP3    H133409   5.041   6.157  16.858  0.6387 -0.1501  2.8959
 3998TIP3    H233410   5.098   6.044  16.776 -0.1797  1.6616 -0.3148
 3999TIP3   OH233411   2.969   0.278   6.226  0.0667  0.1698 -0.5388
 3999TIP3    H133412   2.961   0.317   6.313 -1.9673 -1.3265  0.0194
 3999TIP3    H233413   2.966   0.353   6.166 -0.1537  1.1268  0.6244
 4000TIP3   OH233414   3.905   3.119  16.307 -0.6648  0.0999 -0.2578
 4000TIP3    H133415   3.904   3.201  16.258  1.5200 -0.1470 -0.8073
 4000TIP3    H233416   3.911   3.146  16.399 -0.1153  0.5802 -0.4247
 4001TIP3   OH233417   6.578   5.305   4.055 -0.1844 -0.1766  0.1390
 4001TIP3    H133418   6.527   5.236   4.097  1.1780 -0.2517  1.8039
 4001TIP3    H233419   6.668   5.271   4.053  0.5781  1.5900  1.2470
 4002TIP3   OH233420   0.895   3.174   1.900 -0.4780  0.0554 -0.7037
 4002TIP3    H133421   0.815   3.133   1.867 -0.3873  0.5272 -1.5566
 4002TIP3    H233422   0.865   3.252   1.946 -0.6081 -0.6234  0.4042
 4003TIP3   OH233423   2.757   3.794  13.054 -0.1387  0.3913  0.4103
 4003TIP3    H133424   2.750   3.704  13.023  1.2727 -0.0729  1.3404
 4003TIP3    H233425   2.824   3.834  12.998  0.8728  0.1693  1.4218
 4004TIP3   OH233426   4.388   6.553  16.752 -0.1575  0.1301 -0.0986
 4004TIP3    H133427   4.423   6.639  16.779  1.6301 -0.9422  1.2419
 4004TIP3    H233428   4.466   6.500  16.737 -1.1703 -0.7262 -2.9960
 4005TIP3   OH233429   4.399   2.314   2.334  0.1254  0.2435 -0.3494
 4005TIP3    H133430   4.491   2.291   2.318 -0.3308 -1.6619 -0.5072
 4005TIP3    H233431   4.369   2.352   2.252  1.5224  3.8331  0.6167
 4006TIP3   OH233432   0.273   4.162  15.610 -0.1897 -0.3979  0.3098
 4006TIP3    H133433   0.204   4.192  15.550 -0.7546 -1.2623  0.5117
 4006TIP3    H233434   0.290   4.237  15.666  1.1135  0.8221 -1.5813
 4007TIP3   OH233435   0.869   4.785   4.000  0.1166  0.1663 -0.0441
 4007TIP3    H133436   0.805   4.717   3.984  0.7673 -0.2688 -0.8900
 4007TIP3    H233437   0.829   4.865   3.965  0.5708 -0.3555 -1.8738
 4008TIP3   OH233438   0.287   6.230  13.332 -0.1267  0.6590  0.0003
 4008TIP3    H133439   0.348   6.284  13.383 -0.1451 -0.6386  1.4656
 4008TIP3    H233440   0.208   6.283  13.325 -0.2262  0.7645  1.6052
 4009TIP3   OH233441   4.291   0.096   4.623  0.1724 -0.6985 -0.1632
 4009TIP3    H133442   4.367   0.041   4.642  0.0966 -1.6069 -2.2128
 4009TIP3    H233443   4.228   0.037   4.581 -0.9127  0.4365 -0.1976
 4010TIP3   OH233444   1.978   6.419   5.796 -0.3228  0.4431  0.1569
 4010TIP3    H133445   1.962   6.511   5.817  0.3517  0.5284  0.3372
 4010TIP3    H233446   1.980   6.375   5.881 -0.9683  0.1994  0.0527
 4011TIP3   OH233447   2.280   3.508  10.874 -0.3021  0.3678 -0.2187
 4011TIP3    H133448   2.245   3.588  10.914 -0.0816 -0.2784  1.3174
 4011TIP3    H233449   2.357   3.537  10.826  1.1135  0.7983  2.1939
 4012TIP3   OH233450   3.648   5.084  12.163  0.1326  0.1799  1.0035
 4012TIP3    H133451   3.712   5.129  12.218  1.2539  0.3493 -0.3697
 4012TIP3    H233452   3.658   5.124  12.077 -0.6363 -0.9572  0.3518
 4013TIP3   OH233453   2.576   1.049   4.295 -0.9692 -0.0432 -0.0361
 4013TIP3    H133454   2.663   1.042   4.334 -0.4904  0.7247 -0.9223
 4013TIP3    H233455   2.593   1.061   4.201 -1.9838  1.2018 -0.0838
 4014TIP3   OH233456   4.561   1.847   5.214  0.2870 -0.1980 -0.2045
 4014TIP3    H133457   4.536   1.912   5.280 -0.3695 -1.5140  0.8928
 4014TIP3    H233458   4.651   1.825   5.236 -0.0192 -0.8359  0.4484
 4015TIP3   OH233459   3.553   5.601  12.164  0.0500 -0.0456  0.0917
 4015TIP3    H133460   3.593   5.516  12.150 -0.0338  0.1195 -1.2780
 4015TIP3    H233461   3.546   5.609  12.259 -1.7352 -2.3851  0.2351
 4016TIP3   OH233462   6.070   5.564  15.123  0.2263 -0.0226 -0.0014
 4016TIP3    H133463   6.120   5.511  15.184  0.3129 -0.2910 -0.3013
 4016TIP3    H233464   6.124   5.641  15.108  0.3288 -0.0831  0.0512
 4017TIP3   OH233465   6.162   6.658  13.614 -0.4008  0.3984 -0.3903
 4017TIP3    H133466   6.248   6.668  13.574  1.4583 -3.4957  2.0079
 4017TIP3    H233467   6.181   6.644  13.707 -3.6097 -1.0120  0.1767
 4018TIP3   OH233468   2.884   6.055   1.716  0.9602  0.7242 -0.2293
 4018TIP3    H133469   2.954   6.018   1.663 -1.1989 -1.4676 -1.7835
 4018TIP3    H233470   2.803   6.027   1.672 -0.9767  0.3734  3.1746
 4019TIP3   OH233471   4.762   3.286  17.127 -1.0184  0.0720  0.2587
 4019TIP3    H133472   4.753   3.263  17.220 -1.2631  1.2990  0.5643
 4019TIP3    H233473   4.831   3.228  17.095 -0.8961 -0.3476  1.2278
 4020TIP3   OH233474   0.233   4.931  15.026 -0.0409  0.0018  0.6097
 4020TIP3    H133475   0.245   4.836  15.030  1.6228  0.1832  0.9237
 4020TIP3    H233476   0.157   4.944  14.970  0.8075 -1.4580 -0.9516
 4021TIP3   OH233477   2.636   4.739   0.747 -0.6315 -0.2990 -0.5816
 4021TIP3    H133478   2.541   4.737   0.755 -0.9081  1.6560 -2.2410
 4021TIP3    H233479   2.651   4.779   0.661  1.7003 -3.1685 -1.6555
 4022TIP3   OH233480   4.244   5.126  13.152 -0.2970 -0.0602 -0.7519
 4022TIP3    H133481   4.321   5.161  13.197 -0.9556  0.8549 -0.2925
 4022TIP3    H233482   4.246   5.167  13.066  0.5233 -1.1853 -1.2860
 4023TIP3   OH233483   4.679   3.146  11.838 -0.2348 -0.0233 -0.1811
 4023TIP3    H133484   4.693   3.076  11.774 -1.2300 -0.7194  0.3265
 4023TIP3    H233485   4.678   3.101  11.922 -1.1161  0.5675  0.1361
 4024TIP3   OH233486   6.378   1.841   3.831 -0.0739  0.2052  0.1712
 4024TIP3    H133487   6.335   1.926   3.823  1.0156  0.6206 -2.8039
 4024TIP3    H233488   6.463   1.860   3.871 -0.1819  0.3589  0.3274
 4025TIP3   OH233489   5.809   3.970   3.732 -0.3032 -0.0584 -0.1978
 4025TIP3    H133490   5.763   4.034   3.678 -1.3494 -0.9055 -0.3510
 4025TIP3    H233491   5.739   3.926   3.782  0.4537 -0.6038  0.4093
 4026TIP3   OH233492   4.395   0.118   6.606 -0.4486  0.2110  0.3505
 4026TIP3    H133493   4.401   0.050   6.673 -0.1923  1.5609  1.7710
 4026TIP3    H233494   4.463   0.181   6.630 -0.7605  1.0314 -0.8406
 4027TIP3   OH233495   1.807   2.638   4.113  0.5037 -0.0310 -0.0397
 4027TIP3    H133496   1.849   2.687   4.044 -1.5292  1.6461 -0.1997
 4027TIP3    H233497   1.759   2.568   4.068 -0.3318  0.6934 -0.2924
 4028TIP3   OH233498   3.341   5.796  12.107 -0.0957  0.2940  0.1985
 4028TIP3    H133499   3.260   5.754  12.135 -0.4841  0.6485 -0.3566
 4028TIP3    H233500   3.411   5.738  12.138 -0.6209 -0.8766 -0.7135
 4029TIP3   OH233501   0.157   6.141  14.800  0.5096  0.2904 -0.4111
 4029TIP3    H133502   0.187   6.164  14.888  1.4087 -1.5317 -0.1897
 4029TIP3    H233503   0.219   6.074  14.770 -1.2500 -0.9819 -1.3917
 4030TIP3   OH233504   2.920   2.863  15.099  0.3072 -0.3363 -0.3308
 4030TIP3    H133505   2.912   2.937  15.039 -0.0382 -0.2764 -0.2113
 4030TIP3    H233506   2.924   2.902  15.186  1.2296 -0.3983 -0.3311
 4031TIP3   OH233507   6.448   0.452  14.334  0.3777 -0.2494  0.2580
 4031TIP3    H133508   6.367   0.433  14.380 -0.0372  2.3078  0.6954
 4031TIP3    H233509   6.420   0.479  14.247  0.6933  1.2060  0.5945
 4032TIP3   OH233510   5.874   3.411   0.050 -0.2447 -0.7660  0.6603
 4032TIP3    H133511   5.834   3.458   0.124  1.3208  1.5554  0.1474
 4032TIP3    H233512   5.967   3.409   0.070  0.0145 -1.5952 -0.4947
 4033TIP3   OH233513   1.888   0.741  10.601  0.7421  0.3870  0.1661
 4033TIP3    H133514   1.803   0.774  10.574 -0.0969 -1.6912  0.0941
 4033TIP3    H233515   1.915   0.683  10.530  1.7119  0.1840  0.6824
 4034TIP3   OH233516   4.365   2.936   0.734 -0.4380 -0.5816 -1.0880
 4034TIP3    H133517   4.331   2.860   0.782 -0.9162 -1.5455 -2.8812
 4034TIP3    H233518   4.444   2.961   0.783 -2.1715  0.0638  1.6360
 4035TIP3   OH233519   0.669   6.292  14.403 -0.2104  0.3195  0.1699
 4035TIP3    H133520   0.659   6.271  14.311 -0.1587  1.1236 -0.0260
 4035TIP3    H233521   0.604   6.359  14.420 -0.9837 -0.6133  1.0016
 4036TIP3   OH233522   6.256   3.562  14.726  0.5569 -0.0328 -0.1653
 4036TIP3    H133523   6.341   3.601  14.747  0.2251 -0.6102  2.5203
 4036TIP3    H233524   6.252   3.483  14.780 -1.9065  0.2436  0.1515
 4037TIP3   OH233525   0.214   3.956  13.192 -0.3147  0.4801 -0.5424
 4037TIP3    H133526   0.287   3.972  13.253  1.2210 -1.8342 -1.6328
 4037TIP3    H233527   0.153   3.901  13.242 -0.6080  1.1860 -0.1093
 4038TIP3   OH233528   0.602   4.479  10.702  0.9657  0.4191  0.1751
 4038TIP3    H133529   0.582   4.568  10.728 -0.1195 -0.3651  2.2947
 4038TIP3    H233530   0.570   4.471  10.612 -0.9498  1.5454  0.7095
 4039TIP3   OH233531   5.632   2.514   4.320  0.0015  0.0996  0.0361
 4039TIP3    H133532   5.628   2.487   4.412  2.4991  2.1176  0.8556
 4039TIP3    H233533   5.719   2.488   4.292 -0.7563 -0.5384 -1.8366
 4040TIP3   OH233534   3.203   4.969  12.932  0.2871  0.1094  0.6356
 4040TIP3    H133535   3.178   4.896  12.990  1.2957 -0.2556  0.6342
 4040TIP3    H233536   3.193   4.933  12.844  1.4758 -0.2909  0.6433
 4041TIP3   OH233537   2.428   4.704  11.866 -0.4630 -0.1786 -0.3163
 4041TIP3    H133538   2.512   4.730  11.830 -1.0349  0.1800 -1.4206
 4041TIP3    H233539   2.384   4.657  11.796 -1.4989  0.3089 -0.0241
 4042TIP3   OH233540   3.156   1.164   2.856  0.1698  0.0551 -0.3330
 4042TIP3    H133541   3.100   1.098   2.898 -1.3072  1.1079 -0.5647
 4042TIP3    H233542   3.215   1.113   2.801 -0.9566 -1.0992 -0.5415
 4043TIP3   OH233543   4.428   5.543  12.113  0.2123  0.2733  0.6170
 4043TIP3    H133544   4.504   5.491  12.088 -1.3902 -1.0224 -2.1760
 4043TIP3    H233545   4.457   5.634  12.107  1.5848 -0.1925 -0.2741
 4044TIP3   OH233546   1.766   5.172   0.220  0.1798  0.6065  1.0200
 4044TIP3    H133547   1.754   5.208   0.308 -0.4807 -0.6141  1.4545
 4044TIP3    H233548   1.686   5.195   0.174 -0.7045 -1.1083  1.6142
 4045TIP3   OH233549   0.375   4.558  14.099  0.0006  0.1780 -0.1764
 4045TIP3    H133550   0.312   4.519  14.039 -0.4929  0.3610  0.2174
 4045TIP3    H233551   0.412   4.484  14.147  1.1122 -0.0716 -1.3687
 4046TIP3   OH233552   4.031   5.037   5.738  0.0478  0.6603  0.0240
 4046TIP3    H133553   4.017   5.095   5.813  0.9660 -0.7050  1.3245
 4046TIP3    H233554   3.997   4.952   5.767 -1.7003  0.5832 -1.9989
 4047TIP3   OH233555   2.194   3.326   2.354 -0.0153 -0.4561 -0.7678
 4047TIP3    H133556   2.245   3.255   2.315 -0.1613 -1.4964  0.8107
 4047TIP3    H233557   2.219   3.325   2.446  0.6117  2.1506 -0.8371
 4048TIP3   OH233558   2.129   4.630   3.006 -0.3405 -0.4651 -0.1891
 4048TIP3    H133559   2.200   4.695   3.003  0.1824 -1.0697 -1.5555
 4048TIP3    H233560   2.152   4.566   2.940 -1.9499 -0.9247 -0.3457
 4049TIP3   OH233561   0.476   2.726  14.024  0.0893  0.3051  0.2853
 4049TIP3    H133562   0.390   2.755  13.992  0.1471 -0.6228 -0.7744
 4049TIP3    H233563   0.508   2.800  14.075 -1.1469  0.8430  0.3298
 4050TIP3   OH233564   2.425   0.415  14.378 -0.1986 -0.1834 -0.0049
 4050TIP3    H133565   2.430   0.326  14.343  1.6565  0.2729 -1.0479
 4050TIP3    H233566   2.468   0.410  14.463  0.9917 -0.0762 -0.5838
 4051TIP3   OH233567   5.703   4.847   0.058 -0.5372  0.4045 -0.0017
 4051TIP3    H133568   5.778   4.814   0.107 -1.7324 -1.3718  0.7380
 4051TIP3    H233569   5.741   4.911  -0.003  1.5765 -0.4993  0.2621
 4052TIP3   OH233570   5.022   5.611   3.985  0.6790  0.6272  0.2025
 4052TIP3    H133571   4.943   5.665   3.973  0.3274  0.3563  1.2606
 4052TIP3    H233572   5.021   5.551   3.911  0.3641  1.1955 -0.2650
 4053TIP3   OH233573   3.592   0.192  12.900 -0.1241  0.1568  0.1070
 4053TIP3    H133574   3.662   0.248  12.933 -1.1857  0.2458  2.4089
 4053TIP3    H233575   3.551   0.244  12.830  1.7024  0.3044 -0.9288
 4054TIP3   OH233576   0.701   0.727   5.699 -0.3627  0.0555  0.2565
 4054TIP3    H133577   0.661   0.785   5.635 -1.0713 -1.4754 -0.7430
 4054TIP3    H233578   0.627   0.678   5.737  0.2075 -0.2173  1.0495
 4055TIP3   OH233579   0.706   6.174   1.628  0.0927 -0.0598 -0.4099
 4055TIP3    H133580   0.682   6.126   1.549 -1.8904  0.1356  0.0294
 4055TIP3    H233581   0.629   6.168   1.685  1.0560  0.7611  1.0536
 4056TIP3   OH233582   5.760   6.673   3.321  0.1578 -0.1954 -0.7684
 4056TIP3    H133583   5.780   6.592   3.273  1.2422  0.8718 -2.2219
 4056TIP3    H233584   5.821   6.737   3.285 -0.4783  1.2125  0.5628
 4057TIP3   OH233585   3.585   3.063   2.210  0.1296 -0.1577 -0.4437
 4057TIP3    H133586   3.537   3.088   2.289  2.8200  1.1904  0.9251
 4057TIP3    H233587   3.587   3.143   2.157 -1.5747 -1.0288 -1.9172
 4058TIP3   OH233588   0.250   0.240   4.633  0.7532 -0.5614 -0.4564
 4058TIP3    H133589   0.208   0.157   4.611  0.5734 -1.4531  2.7944
 4058TIP3    H233590   0.343   0.226   4.613  0.5455 -1.0849 -1.0824
 4059TIP3   OH233591   5.541   5.173   2.355  0.5612 -0.2624 -0.1246
 4059TIP3    H133592   5.604   5.104   2.377  1.0420 -0.4112 -1.8326
 4059TIP3    H233593   5.594   5.250   2.338  0.1654  0.0050 -0.1731
 4060TIP3   OH233594   3.865   5.050   3.727  0.0554  0.1940  0.2439
 4060TIP3    H133595   3.887   4.970   3.775 -0.5924 -0.4957 -0.5689
 4060TIP3    H233596   3.943   5.068   3.675  0.2502  0.1681  0.5200
 4061TIP3   OH233597   0.415   4.934   2.362  0.0498  0.4504 -0.1238
 4061TIP3    H133598   0.416   4.926   2.458  0.7996  0.3155 -0.1410
 4061TIP3    H233599   0.378   5.021   2.346 -0.2554  0.4014  0.2810
 4062TIP3   OH233600   0.870   1.589   3.928  0.2481 -0.6769  0.0571
 4062TIP3    H133601   0.901   1.669   3.970  2.8958 -0.8188 -1.3777
 4062TIP3    H233602   0.859   1.612   3.836  1.2123 -1.9437 -0.4175
 4063TIP3   OH233603   2.001   6.055  11.066 -0.2494  0.2454  0.2607
 4063TIP3    H133604   1.970   6.122  11.127 -0.8591  0.3128 -0.1175
 4063TIP3    H233605   1.939   6.057  10.993  0.0979 -0.2820 -0.0622
 4064TIP3   OH233606   1.739   4.810  17.053 -0.2950  0.1055  0.0919
 4064TIP3    H133607   1.824   4.844  17.024  0.1801 -0.7886  0.4223
 4064TIP3    H233608   1.701   4.771  16.974  0.0689 -0.4412  0.1860
 4065TIP3   OH233609   4.299   3.014  12.306  0.4188 -0.0478  0.3283
 4065TIP3    H133610   4.316   2.939  12.248 -2.3251 -1.3556  0.9988
 4065TIP3    H233611   4.309   3.091  12.250 -1.7920 -1.2301 -1.9212
 4066TIP3   OH233612   5.630   0.496  13.169  0.1075  0.1584 -0.3063
 4066TIP3    H133613   5.580   0.527  13.244  0.6613 -3.2679  1.7112
 4066TIP3    H233614   5.660   0.576  13.125 -1.1735  2.3299  2.4557
 4067TIP3   OH233615   2.673   3.247   5.214  0.0250 -0.2682  0.8209
 4067TIP3    H133616   2.688   3.158   5.183 -1.8423 -0.8492  1.4789
 4067TIP3    H233617   2.683   3.302   5.135  0.7999 -1.0786  0.3370
 4068TIP3   OH233618   0.344   0.733  15.248 -0.2062 -0.4238 -0.1559
 4068TIP3    H133619   0.276   0.667  15.261 -1.3484  0.8572  0.6922
 4068TIP3    H233620   0.296   0.812  15.221  1.3943 -0.8175 -5.0397
 4069TIP3   OH233621   6.422   4.870   1.038  0.8081 -0.1607  0.1895
 4069TIP3    H133622   6.476   4.864   0.959  1.4290  1.3928  0.4720
 4069TIP3    H233623   6.388   4.781   1.050  1.8181 -0.7435 -1.0294
 4070TIP3   OH233624   1.080   4.294  15.041  0.5148 -0.4497  0.0285
 4070TIP3    H133625   1.091   4.389  15.052  1.7798 -0.6968  1.1775
 4070TIP3    H233626   1.130   4.274  14.961  1.1909 -0.2890  0.3981
 4071TIP3   OH233627   1.576   0.150   3.714 -0.3481 -0.2026 -0.0346
 4071TIP3    H133628   1.650   0.181   3.768 -0.9965 -0.9998  1.3579
 4071TIP3    H233629   1.599   0.060   3.692 -0.5785 -0.2217 -0.1937
 4072TIP3   OH233630   4.758   3.061   2.142 -0.2686 -1.0664 -0.5451
 4072TIP3    H133631   4.844   3.094   2.169  0.2533 -0.4905 -2.6787
 4072TIP3    H233632   4.698   3.090   2.211  1.0002 -0.0496  0.1752
 4073TIP3   OH233633   4.923   1.046  16.958  0.2291  0.1886  0.3475
 4073TIP3    H133634   4.857   0.978  16.971 -0.9002  1.0402 -0.6666
 4073TIP3    H233635   4.945   1.040  16.865  1.2459  0.2403  0.5709
 4074TIP3   OH233636   2.811   5.001  11.769 -0.3020  0.2061  0.0102
 4074TIP3    H133637   2.763   5.062  11.825 -0.2277 -0.4260  0.7864
 4074TIP3    H233638   2.804   5.038  11.682 -0.6630  1.0701  0.3938
 4075TIP3   OH233639   4.775   6.308   0.410 -0.1639  0.3419  0.2728
 4075TIP3    H133640   4.763   6.389   0.460  0.5446  1.3600 -1.1284
 4075TIP3    H233641   4.704   6.309   0.345  1.0551  0.9409 -1.1014
 4076TIP3   OH233642   5.568   0.079  14.607 -0.2932  0.7653 -0.0681
 4076TIP3    H133643   5.570   0.157  14.551  0.3349  0.4051 -0.5629
 4076TIP3    H233644   5.537   0.111  14.691  0.7055  1.7028 -0.0327
 4077TIP3   OH233645   6.687   1.842  15.078  0.2350 -0.3778 -0.8872
 4077TIP3    H133646   6.655   1.793  15.002 -1.8845 -1.2945  0.4938
 4077TIP3    H233647   6.617   1.904  15.098  1.6415  1.2707 -0.8529
 4078TIP3   OH233648   0.548   4.356   2.725 -0.2662  0.7606 -0.1125
 4078TIP3    H133649   0.463   4.326   2.757  0.3904  1.2117  2.2138
 4078TIP3    H233650   0.565   4.437   2.772  2.0963 -0.0836  0.6182
 4079TIP3   OH233651   5.849   2.338   3.469  0.1161 -0.4581  0.6529
 4079TIP3    H133652   5.888   2.254   3.446 -0.2421 -1.4077  3.1984
 4079TIP3    H233653   5.843   2.385   3.385  0.1464 -3.0040 -0.8970
 4080TIP3   OH233654   5.267   6.454   1.545 -0.1450  0.1167 -0.1716
 4080TIP3    H133655   5.178   6.456   1.581 -0.8222 -2.2754 -1.5052
 4080TIP3    H233656   5.304   6.373   1.579  0.1002 -0.9008 -2.6720
 4081TIP3   OH233657   5.904   1.397   2.375 -0.2650 -0.2169 -0.2587
 4081TIP3    H133658   5.830   1.417   2.318 -1.5091 -2.4892  0.3958
 4081TIP3    H233659   5.943   1.319   2.335  0.0038 -0.7089  0.9261
 4082TIP3   OH233660   0.078   6.419   5.253 -0.3624  0.4470  0.2774
 4082TIP3    H133661   0.106   6.369   5.177  0.2197 -0.2252  0.9180
 4082TIP3    H233662   0.025   6.357   5.304 -1.4079  1.1221  0.0475
 4083TIP3   OH233663   0.868   4.567   2.351 -0.0919  0.5708  0.2442
 4083TIP3    H133664   0.871   4.474   2.327 -1.2352  0.2725  1.1721
 4083TIP3    H233665   0.942   4.578   2.411 -1.7318 -0.5409  2.6369
 4084TIP3   OH233666   3.813   2.389  12.855  0.1738 -0.3065  0.1892
 4084TIP3    H133667   3.815   2.323  12.925 -0.3312 -1.9296 -1.2569
 4084TIP3    H233668   3.876   2.357  12.791 -0.6855  0.1607 -0.9240
 4085TIP3   OH233669   3.170   2.469  15.657  0.1216 -0.1738  0.3904
 4085TIP3    H133670   3.252   2.503  15.620 -0.1875  0.7194  0.5129
 4085TIP3    H233671   3.102   2.496  15.595 -0.1746 -0.2892  0.6599
 4086TIP3   OH233672   1.130   1.412  16.991 -0.0836  0.2259  0.3294
 4086TIP3    H133673   1.064   1.395  17.058  0.6831  0.3597  1.1342
 4086TIP3    H233674   1.110   1.499  16.958 -1.5804 -0.5445 -0.9502
 4087TIP3   OH233675   5.829   2.224  16.946 -0.2742 -0.3899  0.0315
 4087TIP3    H133676   5.857   2.263  16.863  0.0622  0.0650  0.3514
 4087TIP3    H233677   5.735   2.242  16.951  0.0929  1.6744  0.8137
 4088TIP3   OH233678   2.994   4.635   0.210 -0.3735 -0.2598  0.3217
 4088TIP3    H133679   3.015   4.697   0.141  0.2184 -1.1083 -0.2749
 4088TIP3    H233680   2.900   4.620   0.201 -1.4127  3.3633  2.8533
 4089TIP3   OH233681   3.397   0.559  12.715 -0.0666  0.3101  0.3126
 4089TIP3    H133682   3.312   0.549  12.672 -0.2438 -1.8157  1.0246
 4089TIP3    H233683   3.379   0.539  12.807  1.5740 -2.9065  0.0843
 4090TIP3   OH233684   2.334   3.778   0.045  0.3413 -0.1152  0.0957
 4090TIP3    H133685   2.268   3.841   0.016  0.8174  0.3323 -0.0239
 4090TIP3    H233686   2.313   3.698  -0.002 -1.3654 -0.6074  1.5715
 4091TIP3   OH233687   5.838   4.928   4.538 -0.2842 -0.6075 -0.2042
 4091TIP3    H133688   5.753   4.954   4.574 -0.5660  1.4197 -2.1498
 4091TIP3    H233689   5.901   4.950   4.607 -1.0099  1.1446 -0.0535
 4092TIP3   OH233690   3.855   6.651   0.147 -0.3044 -0.1645  0.4191
 4092TIP3    H133691   3.830   6.738   0.118 -1.5332 -0.5071  0.3611
 4092TIP3    H233692   3.910   6.616   0.077  0.2401  0.5749  0.4710
 4093TIP3   OH233693   4.350   1.615   0.776 -0.5524 -0.6753  0.1987
 4093TIP3    H133694   4.402   1.604   0.856  0.4474 -0.6356 -0.4316
 4093TIP3    H233695   4.343   1.710   0.766  1.1996 -0.6271 -0.9222
 4094TIP3   OH233696   2.013   1.244   0.444  0.2311  0.3457 -0.4560
 4094TIP3    H133697   2.054   1.312   0.497 -1.6013  0.8309  0.4398
 4094TIP3    H233698   2.007   1.169   0.503  0.9996 -0.1608 -1.0044
 4095TIP3   OH233699   4.615   1.413  15.253  0.1512 -0.6237  0.2319
 4095TIP3    H133700   4.644   1.447  15.338 -3.2123 -0.8785  1.6625
 4095TIP3    H233701   4.636   1.482  15.191  0.4819  0.6820  1.7247
 4096TIP3   OH233702   6.283   4.112   2.141 -0.2905 -0.2198  0.2670
 4096TIP3    H133703   6.264   4.188   2.195 -0.6334  0.2180 -0.4548
 4096TIP3    H233704   6.199   4.068   2.131 -0.5994  0.6394 -1.3004
 4097TIP3   OH233705   5.874   1.275  15.959  0.4756  0.1366  0.3253
 4097TIP3    H133706   5.938   1.227  16.011 -0.3400 -0.3282  0.9319
 4097TIP3    H233707   5.926   1.323  15.894  1.3090 -2.1026 -0.7670
 4098TIP3   OH233708   2.423   6.469   5.902 -0.1081  1.2263  0.5407
 4098TIP3    H133709   2.464   6.411   5.966 -0.1607  1.3522  0.6883
 4098TIP3    H233710   2.485   6.470   5.828 -1.4984 -1.4569 -0.8040
 4099TIP3   OH233711   3.901   5.153  15.563 -0.3931 -0.1543 -0.4423
 4099TIP3    H133712   3.876   5.239  15.530 -1.0498  0.0739  0.6112
 4099TIP3    H233713   3.893   5.160  15.658 -0.4608 -1.3803 -0.3412
 4100TIP3   OH233714   3.479   3.382   1.264  0.5989  0.1979 -0.3240
 4100TIP3    H133715   3.551   3.444   1.248  0.5060  0.8910  1.6494
 4100TIP3    H233716   3.458   3.394   1.356  0.3790 -2.5981  0.0547
 4101TIP3   OH233717   5.612   6.286   2.182 -0.3763  0.2172 -0.4776
 4101TIP3    H133718   5.637   6.229   2.109  0.5674 -1.4596  1.0486
 4101TIP3    H233719   5.639   6.373   2.156  1.0538 -0.5434 -1.6393
 4102TIP3   OH233720   6.589   1.512  14.004 -0.1839  0.3809 -0.3192
 4102TIP3    H133721   6.529   1.581  14.033 -2.3305 -1.3689 -0.2890
 4102TIP3    H233722   6.533   1.449  13.960  1.8225 -0.9422 -1.1256
 4103TIP3   OH233723   5.181   6.499  11.252 -0.0632 -0.1832 -0.1098
 4103TIP3    H133724   5.273   6.472  11.248  0.2866  0.9477  0.0846
 4103TIP3    H233725   5.140   6.434  11.310  0.3816 -1.2698 -0.9716
 4104TIP3   OH233726   3.299   3.636  16.510  0.2946  0.5116  0.2474
 4104TIP3    H133727   3.210   3.632  16.544  0.4563 -0.4651  0.5750
 4104TIP3    H233728   3.354   3.649  16.587  0.5415 -0.2022  0.1955
 4105TIP3   OH233729   5.459   6.077   0.414  0.1377 -0.2079  0.3814
 4105TIP3    H133730   5.540   6.028   0.430 -0.2044 -0.8269  0.2671
 4105TIP3    H233731   5.443   6.124   0.496  0.2548 -0.6184  0.6464
 4106TIP3   OH233732   1.058   3.720   3.433 -0.3536  0.2437  0.0210
 4106TIP3    H133733   1.112   3.641   3.438  0.3338  0.6813 -0.2675
 4106TIP3    H233734   1.033   3.726   3.340 -0.1699  0.5075 -0.0136
 4107TIP3   OH233735   3.090   2.072   4.965  0.1493 -0.0029  0.0414
 4107TIP3    H133736   3.041   2.141   4.920  2.4923  1.2344 -0.7832
 4107TIP3    H233737   3.076   2.090   5.058  0.9460  1.8142 -0.1534
 4108TIP3   OH233738   0.504   2.295  17.062 -0.1727  0.5570  0.0557
 4108TIP3    H133739   0.421   2.248  17.075  0.0324 -0.3263 -1.5094
 4108TIP3    H233740   0.516   2.296  16.967  1.9863 -0.0179  0.2704
 4109TIP3   OH233741   6.580   0.430   5.115 -0.0264  0.6086 -0.2683
 4109TIP3    H133742   6.642   0.497   5.088 -0.9017  0.0722 -4.2643
 4109TIP3    H233743   6.503   0.479   5.143  0.6044  1.2716  0.3259
 4110TIP3   OH233744   3.866   1.850  15.805 -0.0019  0.3964 -0.6101
 4110TIP3    H133745   3.815   1.893  15.873  1.4470  1.3784 -0.1208
 4110TIP3    H233746   3.912   1.780  15.851 -0.3870 -0.0827 -0.9369
 4111TIP3   OH233747   4.201   3.226  15.217 -0.1905 -0.3235  0.9611
 4111TIP3    H133748   4.248   3.183  15.146 -1.4463  0.5420 -0.4583
 4111TIP3    H233749   4.229   3.317  15.213 -0.9598 -0.0767  0.9678
 4112TIP3   OH233750   1.072   6.686  11.260  0.3877  0.1853  1.0338
 4112TIP3    H133751   1.047   6.742  11.334 -0.3109 -0.5623  1.3770
 4112TIP3    H233752   1.029   6.727  11.185 -0.4832 -0.1217  1.3527
 4113TIP3   OH233753   5.172   0.518  11.260  0.1349 -0.7847  0.4488
 4113TIP3    H133754   5.189   0.570  11.182 -1.7278  1.3197  1.3214
 4113TIP3    H233755   5.221   0.562  11.330 -1.2380 -0.3224  1.1530
 4114TIP3   OH233756   2.247   6.724  11.314 -0.6639 -0.0983 -0.6545
 4114TIP3    H133757   2.279   6.804  11.273  0.1311 -1.9347 -4.1137
 4114TIP3    H233758   2.323   6.665  11.312 -1.2522 -1.0292  1.6583
 4115TIP3   OH233759   5.885   1.864  13.482  0.4424  0.3148 -0.5141
 4115TIP3    H133760   5.858   1.861  13.390 -0.4688 -0.6987 -0.2365
 4115TIP3    H233761   5.957   1.801  13.488  0.1802  0.0267 -0.4273
 4116TIP3   OH233762   3.658   6.373   1.927 -0.8518 -0.0911  0.3102
 4116TIP3    H133763   3.655   6.409   2.016  0.5553 -0.2866  0.4486
 4116TIP3    H233764   3.679   6.448   1.872 -1.5403 -0.0083  0.1471
 4117TIP3   OH233765   2.844   2.060  11.636 -0.5355 -0.3137 -0.1320
 4117TIP3    H133766   2.918   2.038  11.692 -1.2377 -1.6392  0.3269
 4117TIP3    H233767   2.863   2.016  11.553 -0.5396 -0.1879 -0.2001
 4118TIP3   OH233768   2.025   4.775  17.026 -0.1034 -0.3465  0.0536
 4118TIP3    H133769   2.057   4.728  17.103  0.1822 -0.6220 -0.2317
 4118TIP3    H233770   2.024   4.710  16.956  2.4246  0.5552 -0.9286
 4119TIP3   OH233771   6.171   1.320   5.456 -0.3508 -0.1100  0.4908
 4119TIP3    H133772   6.153   1.336   5.549 -0.2250 -0.2296  0.5358
 4119TIP3    H233773   6.181   1.225   5.450  0.5964 -0.0185  0.5212
 4120TIP3   OH233774   0.054   5.573   0.040 -0.3351  0.2660 -0.1185
 4120TIP3    H133775   0.011   5.488   0.042 -0.7508  0.4686  2.1475
 4120TIP3    H233776   0.018   5.617  -0.037  0.0387 -1.6322 -1.4509
 4121TIP3   OH233777   0.874   4.289  14.601 -0.1326  0.0323 -0.4861
 4121TIP3    H133778   0.815   4.266  14.529 -0.9501  0.7295 -0.0509
 4121TIP3    H233779   0.857   4.222  14.667  0.5748 -0.5723 -0.8891
 4122TIP3   OH233780   3.357   2.795   1.657  0.2415  0.4155 -0.1573
 4122TIP3    H133781   3.305   2.719   1.631  0.0138  0.3161  0.5666
 4122TIP3    H233782   3.327   2.866   1.600  0.6355 -0.0880 -1.0165
 4123TIP3   OH233783   2.260   0.343   6.509  0.1852 -0.1280  0.6328
 4123TIP3    H133784   2.343   0.333   6.462 -1.0413 -0.4733 -1.5603
 4123TIP3    H233785   2.273   0.420   6.565  1.8699  0.0108  0.0933
 4124TIP3   OH233786   0.485   2.620  13.339  0.2997 -0.0873 -0.2253
 4124TIP3    H133787   0.516   2.710  13.344 -1.7507  0.7146 -1.1802
 4124TIP3    H233788   0.565   2.569  13.323  1.7630  1.2961  1.9872
 4125TIP3   OH233789   2.236   2.240   4.703 -0.1988  0.3837  0.0317
 4125TIP3    H133790   2.313   2.297   4.701 -1.2396  1.8221 -1.4826
 4125TIP3    H233791   2.256   2.171   4.639 -0.3344  1.0213 -0.7139
 4126TIP3   OH233792   0.718   5.989  14.902 -0.2435 -0.2911  0.1046
 4126TIP3    H133793   0.704   5.916  14.841 -0.5705  0.8713 -1.2666
 4126TIP3    H233794   0.809   6.015  14.888 -0.6557  0.7381 -0.7908
 4127TIP3   OH233795   4.032   4.393   5.080 -0.3187  0.1158 -0.0308
 4127TIP3    H133796   4.001   4.309   5.112  0.8181 -0.6572 -0.8891
 4127TIP3    H233797   3.953   4.438   5.049 -0.9149 -0.6647  0.3219
 4128TIP3   OH233798   5.433   5.198   3.297  0.1613  0.7343  0.9615
 4128TIP3    H133799   5.352   5.218   3.344 -0.3306 -3.0630  2.0756
 4128TIP3    H233800   5.495   5.173   3.365  0.9801 -0.2280 -0.0904
 4129TIP3   OH233801   2.541   5.720   2.914  0.3558 -0.1813  0.1220
 4129TIP3    H133802   2.458   5.757   2.883  0.5499  0.1534  0.0073
 4129TIP3    H233803   2.584   5.792   2.960  1.1073 -0.0234 -0.8046
 4130TIP3   OH233804   0.084   4.419  13.055  0.1032 -0.6658 -0.1986
 4130TIP3    H133805   0.135   4.396  12.977  1.6620  1.9384 -0.0574
 4130TIP3    H233806   0.113   4.356  13.122  1.5125 -0.6130 -0.7353
 4131TIP3   OH233807   0.952   1.415  14.953 -0.1815 -0.0341 -0.4037
 4131TIP3    H133808   0.958   1.400  14.858 -2.2045  1.2779 -0.8098
 4131TIP3    H233809   0.947   1.510  14.962  2.9377  0.0657  1.3202
 4132TIP3   OH233810   3.446   4.077   4.026  0.0281  0.6160 -0.5291
 4132TIP3    H133811   3.407   4.022   4.094  0.5184 -2.0511 -2.2250
 4132TIP3    H233812   3.539   4.081   4.049  0.0963  0.1863 -0.7141
 4133TIP3   OH233813   1.340   6.328   2.515  0.3749 -0.5628 -0.1295
 4133TIP3    H133814   1.406   6.355   2.451  1.5891 -1.4519  0.6898
 4133TIP3    H233815   1.382   6.341   2.599 -0.4583 -1.2811  0.4170
 4134TIP3   OH233816   3.936   3.381   2.240 -0.2051 -0.7587  0.9169
 4134TIP3    H133817   3.869   3.378   2.308 -0.7869  0.3084  0.4238
 4134TIP3    H233818   3.912   3.311   2.179 -1.6069  0.3527  0.1219
 4135TIP3   OH233819   3.784   6.725   4.731  0.5242 -0.4290 -0.0094
 4135TIP3    H133820   3.879   6.733   4.730  0.4188  1.6745  0.4684
 4135TIP3    H233821   3.755   6.785   4.662 -0.4868  1.0470  1.6073
 4136TIP3   OH233822   3.272   3.764  14.685  0.3015  0.0914 -0.4054
 4136TIP3    H133823   3.202   3.826  14.665 -1.2585 -0.7350  1.9898
 4136TIP3    H233824   3.311   3.796  14.766  1.3899 -0.5438 -0.6534
 4137TIP3   OH233825   5.426   0.544  15.793 -0.3421  0.1539  0.6317
 4137TIP3    H133826   5.439   0.469  15.852  1.0844 -0.4336 -0.3592
 4137TIP3    H233827   5.410   0.505  15.708  0.7677  0.9385  0.0284
 4138TIP3   OH233828   2.247   1.182   5.026  0.8148 -0.3265 -0.2743
 4138TIP3    H133829   2.256   1.246   4.956 -0.3546  0.7805  0.5293
 4138TIP3    H233830   2.335   1.147   5.039  1.8696  2.3404  0.3547
 4139TIP3   OH233831   0.972   6.541  14.755  0.4268  0.8260  0.4165
 4139TIP3    H133832   1.056   6.510  14.721 -0.4234 -0.8509 -0.2659
 4139TIP3    H233833   0.965   6.501  14.841  0.2283  0.8026  0.3890
 4140TIP3   OH233834   2.533   2.399  15.251  0.2169  0.5025  0.2769
 4140TIP3    H133835   2.495   2.373  15.335  1.1446  1.8070  1.1500
 4140TIP3    H233836   2.567   2.318  15.214  1.0314  0.0852  1.8358
 4141TIP3   OH233837   1.995   5.440   1.198  0.5188  0.2851 -0.0496
 4141TIP3    H133838   1.914   5.489   1.212  0.5396  0.1588  0.5482
 4141TIP3    H233839   1.974   5.379   1.127  0.2487  0.6029 -0.2462
 4142TIP3   OH233840   0.964   4.740   6.400  0.2815 -0.5750  0.0566
 4142TIP3    H133841   0.961   4.654   6.357  1.6182 -0.0487 -1.1601
 4142TIP3    H233842   1.055   4.751   6.425  0.5366  1.2187 -1.4330
 4143TIP3   OH233843   4.596   5.197   4.189  0.0758  0.5631  0.2409
 4143TIP3    H133844   4.620   5.151   4.270 -1.4997 -0.2661  0.2571
 4143TIP3    H233845   4.533   5.264   4.217 -3.7607 -2.3442 -0.6817
 4144TIP3   OH233846   1.259   1.054   2.336  0.5025  0.3628 -0.1758
 4144TIP3    H133847   1.236   1.045   2.429  1.6591  0.4840  0.1287
 4144TIP3    H233848   1.261   1.148   2.321  0.5774  0.3485 -0.2540
 4145TIP3   OH233849   4.769   1.923  11.526 -0.0804  0.3482 -0.2119
 4145TIP3    H133850   4.789   1.846  11.473  0.5045  2.3572 -3.1853
 4145TIP3    H233851   4.675   1.917  11.543 -0.2033 -0.6229 -1.1111
 4146TIP3   OH233852   1.672   5.105   5.437 -0.4518  0.2976 -0.4606
 4146TIP3    H133853   1.655   5.098   5.343  0.6758  1.1134 -0.7462
 4146TIP3    H233854   1.762   5.075   5.447 -0.2513  1.0991  0.2201
 4147TIP3   OH233855   4.828   4.793  11.706  0.5632 -0.1308  0.0450
 4147TIP3    H133856   4.842   4.698  11.709  0.5967 -0.1033  1.8861
 4147TIP3    H233857   4.909   4.828  11.667  0.7815 -0.8140 -0.1251
 4148TIP3   OH233858   2.445   6.572  16.841 -0.2024  0.5355  0.3056
 4148TIP3    H133859   2.521   6.538  16.888  1.8425  1.5950 -2.0357
 4148TIP3    H233860   2.449   6.531  16.755 -3.2513 -0.5806  0.5636
 4149TIP3   OH233861   4.241   0.441  14.568  0.2732  0.2249  0.6196
 4149TIP3    H133862   4.278   0.385  14.637 -2.7789 -0.3502  1.9703
 4149TIP3    H233863   4.263   0.530  14.594  0.8965 -0.1063  1.2376
 4150TIP3   OH233864   6.091   4.247  12.051 -0.5814 -0.1238 -0.2832
 4150TIP3    H133865   6.102   4.341  12.066  1.5808 -0.2259 -0.9866
 4150TIP3    H233866   6.148   4.227  11.977 -2.4380 -1.6834 -1.4127
 4151TIP3   OH233867   5.075   2.977   3.836 -0.0437 -0.0707  0.1074
 4151TIP3    H133868   5.158   2.986   3.789 -0.3328 -2.9769 -1.1417
 4151TIP3    H233869   5.008   2.987   3.769 -0.7705  1.6198  1.0126
 4152TIP3   OH233870   4.972   3.631  14.574 -0.0423  0.3489 -0.1403
 4152TIP3    H133871   4.912   3.586  14.514  0.5820 -1.1120  0.2929
 4152TIP3    H233872   4.996   3.711  14.527 -0.9034  0.0764 -1.0933
 4153TIP3   OH233873   1.436   0.222  16.186  0.2004  0.1227 -0.0858
 4153TIP3    H133874   1.472   0.146  16.140  0.6466  0.5871 -0.5072
 4153TIP3    H233875   1.410   0.187  16.272 -0.1628 -0.6300 -0.4984
 4154TIP3   OH233876   4.608   4.757   2.344  0.4216  0.5146 -0.8117
 4154TIP3    H133877   4.514   4.751   2.331  0.1787 -1.1011  1.1295
 4154TIP3    H233878   4.646   4.712   2.269 -0.2745  1.8487 -2.0115
 4155TIP3   OH233879   1.612   1.562  13.717  0.5584  0.3658 -0.3586
 4155TIP3    H133880   1.687   1.502  13.716  0.6353  0.4552 -1.8552
 4155TIP3    H233881   1.621   1.614  13.638 -0.6300  0.9611 -0.1314
 4156TIP3   OH233882   0.282   3.699   4.483 -0.4039 -0.0509  0.2733
 4156TIP3    H133883   0.202   3.655   4.455  0.4306 -1.0137 -0.6677
 4156TIP3    H233884   0.253   3.788   4.505 -1.9800 -0.7965  1.4406
 4157TIP3   OH233885   4.765   6.746  13.437  0.0490 -0.4266 -0.4704
 4157TIP3    H133886   4.731   6.761  13.349 -1.8901 -2.0354 -0.0657
 4157TIP3    H233887   4.845   6.695  13.423  1.5121  1.9406 -1.3647
 4158TIP3   OH233888   2.756   4.152  16.272 -0.6199  0.6848 -0.2691
 4158TIP3    H133889   2.710   4.075  16.307  1.3739  0.0089  1.0326
 4158TIP3    H233890   2.837   4.117  16.235  0.0512  2.0812 -0.1907
 4159TIP3   OH233891   2.439   4.294  15.895  0.6788 -0.0777  0.0147
 4159TIP3    H133892   2.434   4.384  15.928 -0.9880 -1.1350  3.0974
 4159TIP3    H233893   2.533   4.277  15.885  1.0182  1.9793 -0.7187
 4160TIP3   OH233894   0.195   4.144  16.463  0.5452  0.0057 -0.1247
 4160TIP3    H133895   0.268   4.109  16.412  0.4043 -2.1910  1.0756
 4160TIP3    H233896   0.127   4.078  16.457 -1.4247  2.0286 -1.2307
 4161TIP3   OH233897   5.663   6.155  14.722  0.1496 -0.2762  0.1444
 4161TIP3    H133898   5.708   6.083  14.679  0.0703 -0.0904 -0.2477
 4161TIP3    H233899   5.598   6.186  14.659 -1.6307 -1.5418  1.2494
 4162TIP3   OH233900   1.247   3.610  12.841 -0.6430  0.1241 -0.5027
 4162TIP3    H133901   1.284   3.600  12.753  0.7711  0.7964 -0.0032
 4162TIP3    H233902   1.270   3.529  12.887  1.4279  1.0689  0.2140
 4163TIP3   OH233903   3.261   6.391   1.845 -0.2573 -0.3064  0.1342
 4163TIP3    H133904   3.261   6.431   1.932 -0.4210 -0.1054  0.0435
 4163TIP3    H233905   3.351   6.360   1.833 -0.3888 -0.9119  0.6353
 4164TIP3   OH233906   5.431   5.871  16.179 -0.5865 -0.3155  0.1330
 4164TIP3    H133907   5.451   5.954  16.134 -0.0197 -1.2925 -1.4899
 4164TIP3    H233908   5.352   5.890  16.230 -1.0743  0.9568 -1.0276
 4165TIP3   OH233909   2.630   6.123   5.222 -0.1254 -0.0901 -0.0798
 4165TIP3    H133910   2.689   6.135   5.147  0.6268 -0.1359  0.4915
 4165TIP3    H233911   2.647   6.034   5.252 -1.0287 -0.3704 -0.3478
 4166TIP3   OH233912   6.589   4.238  14.217  0.2621  0.5765 -0.0387
 4166TIP3    H133913   6.660   4.220  14.279  0.1917 -1.3655 -0.4602
 4166TIP3    H233914   6.511   4.244  14.272  0.1551 -1.4073  0.0942
 4167TIP3   OH233915   5.216   1.713  12.215  0.5417  0.3218  0.4800
 4167TIP3    H133916   5.201   1.663  12.135  0.8530  0.4191  0.3602
 4167TIP3    H233917   5.162   1.792  12.204  0.5218  0.2978  0.4014
 4168TIP3   OH233918   3.792   1.055  14.951  0.5789 -0.6035  0.2844
 4168TIP3    H133919   3.744   1.046  14.868  0.3951  0.7681  0.2121
 4168TIP3    H233920   3.726   1.040  15.019  0.2556  0.2996  0.1797
 4169TIP3   OH233921   1.211   2.905  13.845 -0.4009  0.1381 -0.4505
 4169TIP3    H133922   1.240   2.859  13.923 -2.5963  2.2064  1.7579
 4169TIP3    H233923   1.290   2.947  13.811  0.9951 -2.4405 -0.6529
 4170TIP3   OH233924   2.539   0.552  13.214  0.9783  0.2513 -0.0634
 4170TIP3    H133925   2.555   0.634  13.167 -0.5488 -0.1958 -1.4781
 4170TIP3    H233926   2.444   0.542  13.213  1.1318 -1.6561 -0.1488
 4171TIP3   OH233927   1.122   6.383   5.950  0.7831 -0.1768 -0.1596
 4171TIP3    H133928   1.044   6.361   6.000 -0.9154  0.6326 -2.2760
 4171TIP3    H233929   1.144   6.301   5.904  3.6709 -1.6101  3.2736
 4172TIP3   OH233930   4.956   3.377  12.597  0.2422 -0.7157 -0.6591
 4172TIP3    H133931   5.050   3.361  12.592  0.7872  1.4712  0.6830
 4172TIP3    H233932   4.920   3.297  12.633  1.8781 -0.9701  0.5542
 4173TIP3   OH233933   3.825   0.504   4.426  0.3667  0.0235 -0.8294
 4173TIP3    H133934   3.813   0.536   4.516 -0.0829  1.4543 -1.3752
 4173TIP3    H233935   3.747   0.534   4.379  1.7144  1.4347 -2.2661
 4174TIP3   OH233936   6.224   6.099   3.302  0.4320 -0.0177 -0.0029
 4174TIP3    H133937   6.134   6.068   3.297 -0.9970  3.6570  0.4895
 4174TIP3    H233938   6.241   6.141   3.218  1.2805  0.3211  0.3240
 4175TIP3   OH233939   2.675   5.887  12.878  0.4115  0.2692  0.3958
 4175TIP3    H133940   2.723   5.845  12.806  0.5860 -0.2760  0.8275
 4175TIP3    H233941   2.673   5.979  12.854 -1.4477 -0.1719 -1.4398
 4176TIP3   OH233942   5.633   3.226  12.879 -0.2281 -0.4243 -0.4259
 4176TIP3    H133943   5.699   3.157  12.888 -0.9179 -1.0738 -0.2178
 4176TIP3    H233944   5.557   3.182  12.841 -1.5663 -0.3836  1.9734
 4177TIP3   OH233945   1.695   0.451  10.626 -0.2157 -0.3730 -0.0680
 4177TIP3    H133946   1.745   0.450  10.545  0.4544 -1.2782  0.3434
 4177TIP3    H233947   1.615   0.498  10.604 -0.1804 -0.8734 -1.3398
 4178TIP3   OH233948   0.620   2.845   0.187  0.6372  0.1267 -0.8132
 4178TIP3    H133949   0.661   2.771   0.141 -0.2114  0.2625 -1.8262
 4178TIP3    H233950   0.689   2.911   0.190  1.1388 -0.3902 -0.6522
 4179TIP3   OH233951   1.077   0.017  15.943 -0.1084  0.1976 -0.5395
 4179TIP3    H133952   1.036   0.064  15.870 -0.4994  0.1553 -0.3489
 4179TIP3    H233953   1.055  -0.075  15.927  1.0050  0.0162 -1.1392
 4180TIP3   OH233954   3.379   3.650   4.981 -0.0312  0.1887  0.0457
 4180TIP3    H133955   3.315   3.647   5.052  0.7627 -0.0868  0.7750
 4180TIP3    H233956   3.328   3.668   4.903 -0.6048  4.2104  1.1126
 4181TIP3   OH233957   5.615   4.901   3.558  0.1153  0.7273 -0.6614
 4181TIP3    H133958   5.672   4.966   3.600 -0.1278  0.6073 -0.1442
 4181TIP3    H233959   5.626   4.822   3.611 -0.1611  0.5608 -0.8498
 4182TIP3   OH233960   3.137   5.762   5.561 -0.0245  0.5978 -0.2159
 4182TIP3    H133961   3.199   5.731   5.495 -0.9142 -1.2973 -0.2249
 4182TIP3    H233962   3.073   5.814   5.511 -1.0266 -1.3032 -1.0224
 4183TIP3   OH233963   0.311   4.302  10.365 -0.0629  0.3177 -0.0901
 4183TIP3    H133964   0.382   4.318  10.427 -0.8425  0.4171  0.8094
 4183TIP3    H233965   0.239   4.358  10.396  0.2132  2.1286 -2.4010
 4184TIP3   OH233966   0.920   6.220   6.458 -0.2475  0.3814  0.4404
 4184TIP3    H133967   1.014   6.207   6.475 -0.5033  1.5342  3.2417
 4184TIP3    H233968   0.880   6.135   6.478  0.0879  0.1567  0.1688
 4185TIP3   OH233969   4.682   3.404   5.651  0.2404  0.0993 -0.4730
 4185TIP3    H133970   4.607   3.346   5.644 -0.6147  0.3421  4.0792
 4185TIP3    H233971   4.651   3.487   5.613 -1.0304 -0.3882 -0.5479
 4186TIP3   OH233972   4.551   4.004   1.596  0.1915  0.0660  0.1547
 4186TIP3    H133973   4.610   3.967   1.530 -1.2936 -0.4771 -0.9177
 4186TIP3    H233974   4.575   3.959   1.677 -0.3123 -1.9639 -0.7452
 4187TIP3   OH233975   2.321   4.009   4.343  0.5599  0.3358 -0.2765
 4187TIP3    H133976   2.363   4.072   4.403 -0.0351 -0.3724  0.9178
 4187TIP3    H233977   2.229   4.008   4.370  0.5244 -0.9191 -0.3955
 4188TIP3   OH233978   0.958   5.684  10.846 -0.5061  0.2814  0.2204
 4188TIP3    H133979   1.014   5.668  10.770 -1.2540 -0.3354 -0.2167
 4188TIP3    H233980   0.885   5.737  10.812 -0.4914  0.5940  0.6602
 4189TIP3   OH233981   1.037   6.430  11.344 -0.0631 -0.4287 -0.1338
 4189TIP3    H133982   1.057   6.507  11.290  0.6953 -0.7199 -0.2947
 4189TIP3    H233983   0.966   6.458  11.401 -0.5642  0.0419 -0.9615
 4190TIP3   OH233984   1.789   5.215  13.404  0.1013  0.7322 -0.0255
 4190TIP3    H133985   1.853   5.241  13.470  1.3797 -0.1540 -0.8861
 4190TIP3    H233986   1.820   5.254  13.323  0.6113 -1.2340 -0.8232
 4191TIP3   OH233987   6.318   6.149  13.017  0.2221  0.0417  0.1573
 4191TIP3    H133988   6.274   6.171  13.099 -2.1229  1.7165 -1.4079
 4191TIP3    H233989   6.311   6.228  12.964 -0.6440 -1.7139 -2.5757
 4192TIP3   OH233990   2.041   2.279  14.140  0.0271 -0.9774  0.2557
 4192TIP3    H133991   2.014   2.229  14.217 -0.6606  1.0698  1.4284
 4192TIP3    H233992   1.977   2.255  14.073 -0.9745 -0.8689  1.1353
 4193TIP3   OH233993   5.161   3.849   2.707 -0.4413 -0.0543  0.6702
 4193TIP3    H133994   5.082   3.861   2.654  0.8403  1.2610 -1.0246
 4193TIP3    H233995   5.185   3.937   2.735 -0.0340 -0.5399  1.9147
 4194TIP3   OH233996   2.603   0.853  15.374  0.5969 -0.0158 -0.2459
 4194TIP3    H133997   2.646   0.829  15.455  0.2246  1.3780  0.3899
 4194TIP3    H233998   2.509   0.845  15.393  0.5041  0.5086 -0.4641
 4195TIP3   OH233999   6.169   2.175   0.316  0.0695  0.3034  0.1048
 4195TIP3    H134000   6.144   2.268   0.316  0.4232  0.4048  0.7044
 4195TIP3    H234001   6.256   2.174   0.276  0.0775  0.2359  0.1240
 4196TIP3   OH234002   1.772   3.324   4.651 -0.2630  0.5445  0.1793
 4196TIP3    H134003   1.681   3.311   4.677 -0.4675 -1.0111 -1.1753
 4196TIP3    H234004   1.769   3.340   4.557  0.9068 -0.0612  0.0182
 4197TIP3   OH234005   0.155   2.362   3.268 -0.1344  0.2486 -0.0569
 4197TIP3    H134006   0.085   2.303   3.238 -0.0272 -0.2816  0.7065
 4197TIP3    H234007   0.205   2.382   3.189 -0.6295 -0.0728 -0.4561
 4198TIP3   OH234008   5.477   0.654   2.655  0.1478  0.2166  0.0450
 4198TIP3    H134009   5.462   0.707   2.577 -1.3721  1.1496  0.9275
 4198TIP3    H234010   5.552   0.598   2.632 -0.1726  0.5552 -2.0139
 4199TIP3   OH234011   3.684   3.354  11.857 -0.1533 -0.5054  0.2232
 4199TIP3    H134012   3.627   3.397  11.921  0.5761  0.7515  0.0669
 4199TIP3    H234013   3.695   3.265  11.890 -0.8539 -0.2622  1.1469
 4200TIP3   OH234014   4.934   3.821  12.088 -0.1885  0.0792 -0.4650
 4200TIP3    H134015   4.905   3.826  12.179  0.7125 -0.4253 -0.1400
 4200TIP3    H234016   4.856   3.793  12.039  0.0419 -2.5213  0.5529
 4201TIP3   OH234017   5.078   5.230  12.389  0.9712  0.1114  0.1147
 4201TIP3    H134018   5.048   5.140  12.402 -1.9143  0.1578 -4.1734
 4201TIP3    H234019   5.002   5.284  12.414  2.1352  1.3078  1.1989
 4202TIP3   OH234020   4.978   4.562  14.935 -0.6326  0.2162  0.2120
 4202TIP3    H134021   5.011   4.646  14.967  0.0435 -0.6425  1.8906
 4202TIP3    H234022   4.981   4.570  14.840  0.8181  1.5675  0.3287
 4203TIP3   OH234023   4.196   5.336  10.567  0.7029 -0.1171  0.3312
 4203TIP3    H134024   4.158   5.421  10.590  0.3767  0.2947 -1.5539
 4203TIP3    H234025   4.124   5.273  10.581  0.8849 -0.0676  1.5393
 4204TIP3   OH234026   4.019   4.109   3.645 -0.3043 -0.0359  0.3985
 4204TIP3    H134027   4.009   4.083   3.736  0.3382  0.4558  0.6103
 4204TIP3    H234028   3.967   4.189   3.636  0.3028  0.3779  0.5429
 4205TIP3   OH234029   3.862   4.761  16.587  0.7088  0.2687 -0.1081
 4205TIP3    H134030   3.877   4.836  16.529  1.0440 -0.4439 -0.9734
 4205TIP3    H234031   3.909   4.782  16.667  1.5503  0.5965 -0.6719
 4206TIP3   OH234032   2.466   0.793   2.007 -0.0185 -0.2796 -0.5149
 4206TIP3    H134033   2.420   0.729   2.062  0.4384  0.5835  0.9213
 4206TIP3    H234034   2.403   0.814   1.938 -0.6783 -1.2666 -0.2364
 4207TIP3   OH234035   6.612   6.112   2.718 -0.3282  0.2874 -0.0794
 4207TIP3    H134036   6.652   6.113   2.805 -0.3060  1.7898 -0.0792
 4207TIP3    H234037   6.660   6.179   2.669  1.0289 -1.9116 -1.9239
 4208TIP3   OH234038   0.316   1.256   0.128  0.2302  0.0574 -0.3906
 4208TIP3    H134039   0.224   1.230   0.125  0.6093 -1.2793 -2.0513
 4208TIP3    H234040   0.337   1.280   0.037  1.7015 -0.4201 -0.2064
 4209TIP3   OH234041   1.657   1.646  11.844  0.2458  0.0048 -0.1080
 4209TIP3    H134042   1.728   1.662  11.906  0.6035 -0.9353 -0.2513
 4209TIP3    H234043   1.696   1.589  11.777  0.0608  1.5236 -1.5795
 4210TIP3   OH234044   4.331   3.635   4.694 -0.5631 -0.0059 -0.2246
 4210TIP3    H134045   4.392   3.709   4.700 -0.2988 -0.2182 -0.2485
 4210TIP3    H234046   4.322   3.604   4.784 -0.0083 -0.4705 -0.3206
 4211TIP3   OH234047   6.767   0.599   0.021 -0.1445  0.8208 -0.0228
 4211TIP3    H134048   6.796   0.633  -0.064  1.7373  3.6429  1.5766
 4211TIP3    H234049   6.681   0.638   0.035  0.4123  2.0262  0.1800
 4212TIP3   OH234050   5.555   4.504  13.922  0.2728 -0.1472 -0.2416
 4212TIP3    H134051   5.559   4.432  13.984  1.8280  0.5527  0.5239
 4212TIP3    H234052   5.617   4.480  13.853  2.7303  1.4603  1.2324
 4213TIP3   OH234053   1.837   1.216  12.930  0.9387 -0.4659 -0.0861
 4213TIP3    H134054   1.778   1.288  12.955 -0.2503 -1.9911  1.8081
 4213TIP3    H234055   1.856   1.232  12.838  2.2987  3.3372  0.6472
 4214TIP3   OH234056   2.113   5.065  12.550 -0.1120  0.1585  0.3799
 4214TIP3    H134057   2.033   5.011  12.551  0.0108 -0.0694 -0.7954
 4214TIP3    H234058   2.093   5.135  12.488  1.2492 -0.9645 -1.4166
 4215TIP3   OH234059   3.390   0.741  16.063  0.4198  0.2744  0.2351
 4215TIP3    H134060   3.427   0.783  16.141 -0.3027  0.6814  0.3678
 4215TIP3    H234061   3.347   0.813  16.016  1.9152  0.2821 -1.2010
 4216TIP3   OH234062   0.766   4.671   4.449  0.0350  0.5129 -0.6163
 4216TIP3    H134063   0.808   4.690   4.365  1.6045 -0.4499 -0.0951
 4216TIP3    H234064   0.711   4.747   4.466  2.8483  2.7171 -0.5597
 4217TIP3   OH234065   4.530   3.010  16.600  0.1970  0.0213 -0.3579
 4217TIP3    H134066   4.531   2.924  16.642  0.3041  0.9144  1.5844
 4217TIP3    H234067   4.576   3.067  16.661  0.5125  1.3920 -1.8020
 4218TIP3   OH234068   5.499   2.212  14.838 -0.3433 -0.0080  0.3808
 4218TIP3    H134069   5.548   2.206  14.755  1.7098  0.0020  1.5270
 4218TIP3    H234070   5.438   2.138  14.834 -1.6009  1.0368 -1.8905
 4219TIP3   OH234071   1.594   4.213  14.541 -0.6126 -0.4443  0.3822
 4219TIP3    H134072   1.660   4.196  14.608  0.3253 -2.9305 -1.0721
 4219TIP3    H234073   1.566   4.303  14.559  1.1150 -0.2689  2.7699
 4220TIP3   OH234074   5.188   4.710  17.060  0.6735 -0.2072  0.5604
 4220TIP3    H134075   5.230   4.675  17.139 -1.0088 -2.0385  0.7438
 4220TIP3    H234076   5.098   4.727  17.088  0.2475 -0.1813 -0.7921
 4221TIP3   OH234077   3.241   5.728   1.593 -0.1887 -0.2495  0.1693
 4221TIP3    H134078   3.221   5.694   1.680  0.0203 -0.8782 -0.0198
 4221TIP3    H234079   3.336   5.716   1.585  0.1516  1.8098  0.6904
 4222TIP3   OH234080   2.287   1.609   0.202 -0.1171  0.5449 -0.2194
 4222TIP3    H134081   2.221   1.627   0.269  1.7827 -1.9445  2.5651
 4222TIP3    H234082   2.342   1.687   0.200 -0.6872  0.9711  0.5157
 4223TIP3   OH234083   4.671   3.841   3.718 -0.0560  0.0394  0.0187
 4223TIP3    H134084   4.587   3.835   3.763 -0.5645  0.1032 -0.8968
 4223TIP3    H234085   4.716   3.759   3.740 -0.3948 -0.0424  0.4201
 4224TIP3   OH234086   3.773   2.373   0.117 -0.3810 -0.2674  0.3315
 4224TIP3    H134087   3.797   2.364   0.025  0.1489  0.3739  0.3995
 4224TIP3    H234088   3.681   2.347   0.121 -0.7668  0.8935 -0.5975
 4225TIP3   OH234089   0.276   2.286   2.229 -0.0955 -0.4177  0.2223
 4225TIP3    H134090   0.308   2.242   2.308  1.9335 -2.1401 -1.4468
 4225TIP3    H234091   0.193   2.242   2.210 -0.7281  0.1807  1.4816
 4226TIP3   OH234092   1.023   5.036  16.683 -0.0890  0.0099 -0.1351
 4226TIP3    H134093   1.035   5.112  16.626 -0.5317 -0.2776 -0.6194
 4226TIP3    H234094   1.064   4.964  16.635 -0.7961 -0.3091 -0.2659
 4227TIP3   OH234095   4.139   5.673   3.022 -0.1257 -0.4559 -0.4625
 4227TIP3    H134096   4.106   5.631   2.943 -0.3436 -0.9426 -0.1169
 4227TIP3    H234097   4.068   5.731   3.050 -0.8298 -1.6978  0.4296
 4228TIP3   OH234098   2.605   4.966  14.750 -0.4130 -0.0686 -0.0778
 4228TIP3    H134099   2.582   4.937  14.661 -2.3083  0.4867  0.1851
 4228TIP3    H234100   2.663   5.041  14.736 -0.6140 -0.0498 -0.8639
 4229TIP3   OH234101   5.385   5.295   5.066  0.0352  0.3237 -0.0956
 4229TIP3    H134102   5.332   5.290   4.986  0.0858 -1.4939 -0.0376
 4229TIP3    H234103   5.465   5.340   5.039 -0.8728  1.7378 -0.5297
 4230TIP3   OH234104   3.802   3.107   1.035  0.0276  0.7276  0.7414
 4230TIP3    H134105   3.883   3.095   1.084 -0.6214  0.5669  1.8076
 4230TIP3    H234106   3.761   3.020   1.035  0.0262  0.7166 -0.1266
 4231TIP3   OH234107   1.720   3.506   6.410  0.8063  0.6442  0.0645
 4231TIP3    H134108   1.796   3.448   6.412 -0.0288 -0.4739  1.7538
 4231TIP3    H234109   1.688   3.505   6.500 -2.1572 -0.2196 -0.9110
 4232TIP3   OH234110   1.209   4.549   5.495  0.5377 -0.4754  0.4492
 4232TIP3    H134111   1.252   4.553   5.581  1.2162 -1.6374  0.1778
 4232TIP3    H234112   1.119   4.579   5.512  0.2785 -1.8975  1.8381
 4233TIP3   OH234113   2.798   6.483   5.201  0.1328 -1.1287  0.1884
 4233TIP3    H134114   2.764   6.393   5.201 -0.0156 -1.0930  1.7684
 4233TIP3    H234115   2.724   6.536   5.171 -0.0163 -1.4372 -0.0019
 4234TIP3   OH234116   1.138   5.649   1.206  0.0841  0.1292  0.5176
 4234TIP3    H134117   1.172   5.559   1.204 -1.4319 -0.4718  0.1782
 4234TIP3    H234118   1.202   5.700   1.156 -0.7074 -1.4142 -2.3042
 4235TIP3   OH234119   5.982   6.004  16.959  0.4488  0.2847 -0.2939
 4235TIP3    H134120   5.901   6.004  17.010 -0.9446 -0.9455 -2.3474
 4235TIP3    H234121   6.013   6.094  16.963  0.6521  0.1946  2.9545
 4236TIP3   OH234122   6.763   5.212  15.014  0.5282  0.0775  0.1566
 4236TIP3    H134123   6.755   5.278  14.945 -0.1470 -0.4565 -0.2841
 4236TIP3    H234124   6.856   5.213  15.037  0.6695  0.6169 -0.4004
 4237TIP3   OH234125   6.675   3.541   5.794  0.6318  0.2564 -0.5367
 4237TIP3    H134126   6.598   3.599   5.795 -0.1178 -0.6093 -2.3677
 4237TIP3    H234127   6.657   3.477   5.862 -0.7896 -0.4858 -1.5427
 4238TIP3   OH234128   6.197   5.507  11.117 -0.1211  0.1219  0.8053
 4238TIP3    H134129   6.130   5.575  11.118 -0.6329 -0.3589  0.1688
 4238TIP3    H234130   6.207   5.482  11.209 -0.3902  0.6059  0.9704
 4239TIP3   OH234131   2.117   4.872   4.220  0.2731  0.1548  0.3823
 4239TIP3    H134132   2.211   4.857   4.232  0.0723 -1.0191  0.6094
 4239TIP3    H234133   2.076   4.839   4.300 -0.4571 -0.9788 -0.4137
 4240TIP3   OH234134   6.650   6.243   5.959 -0.0807  0.0599 -0.5766
 4240TIP3    H134135   6.677   6.185   5.888 -0.8231 -0.1481 -0.7018
 4240TIP3    H234136   6.593   6.188   6.014 -0.3295  0.5062 -0.3815
 4241TIP3   OH234137   6.794   4.371   0.873 -0.4955  0.0208  0.2146
 4241TIP3    H134138   6.863   4.422   0.830 -0.3797 -0.6844 -0.4642
 4241TIP3    H234139   6.727   4.359   0.805 -0.5121 -0.7303  0.3505
 4242TIP3   OH234140   5.933   3.463   5.630  0.2848  0.3200 -0.3950
 4242TIP3    H134141   5.956   3.509   5.549  0.2635 -0.1225 -0.6572
 4242TIP3    H234142   5.917   3.372   5.602 -0.1541  0.2598  0.0367
 4243TIP3   OH234143   3.277   3.841  12.525  0.0199 -0.7662  0.0852
 4243TIP3    H134144   3.325   3.902  12.469 -0.0859 -3.0702 -2.7568
 4243TIP3    H234145   3.337   3.822  12.597  0.2475  2.1787  0.7843
 4244TIP3   OH234146   5.608   0.165   0.323 -0.0662  0.2303  0.1970
 4244TIP3    H134147   5.596   0.143   0.415  1.5042  1.8146  0.8306
 4244TIP3    H234148   5.572   0.254   0.315  1.4021  0.8142 -0.2700
 4245TIP3   OH234149   5.894   2.869  14.092 -0.1307 -0.4401 -0.2311
 4245TIP3    H134150   5.978   2.822  14.086  0.5062  0.7011 -0.4462
 4245TIP3    H234151   5.830   2.800  14.113  0.8545 -1.3238 -0.0336
 4246TIP3   OH234152   5.043   4.894  14.766 -0.3092  0.1345  0.2961
 4246TIP3    H134153   5.130   4.870  14.799 -0.4302 -0.3025  0.2998
 4246TIP3    H234154   5.033   4.843  14.686  0.1832  1.5514 -0.7138
 4247TIP3   OH234155   4.777   1.180  15.136  0.3654 -0.0527 -0.3306
 4247TIP3    H134156   4.701   1.121  15.132  0.1416  0.0939  1.1533
 4247TIP3    H234157   4.744   1.263  15.100  0.6349 -0.7278 -2.2714
 4248TIP3   OH234158   6.457   3.821   5.028 -0.0078 -0.1031 -0.1639
 4248TIP3    H134159   6.442   3.784   5.115 -0.0302 -0.6330 -0.3915
 4248TIP3    H234160   6.419   3.757   4.967  0.1086  0.2082 -0.5689
 4249TIP3   OH234161   1.060   0.732   0.469  0.1166  0.1244 -0.2862
 4249TIP3    H134162   1.043   0.825   0.483  0.5671  0.2025 -0.2253
 4249TIP3    H234163   1.154   0.723   0.485  0.0156 -0.3999  0.0115
 4250TIP3   OH234164   6.583   4.989   5.442  0.3544 -0.4215  0.4569
 4250TIP3    H134165   6.674   4.957   5.448  0.8519  0.6555 -0.9349
 4250TIP3    H234166   6.532   4.921   5.486  1.6951 -1.6886  0.1635
 4251TIP3   OH234167   3.586   6.763  11.949  0.2430 -0.0956 -0.1190
 4251TIP3    H134168   3.522   6.692  11.941 -0.3128  0.3246  0.4357
 4251TIP3    H234169   3.578   6.791  12.040 -0.8842  1.8997 -0.7598
 4252TIP3   OH234170   4.129   5.061   2.455 -0.2213 -0.5587  0.0247
 4252TIP3    H134171   4.097   5.062   2.364  0.9483 -3.0208 -0.5052
 4252TIP3    H234172   4.165   5.148   2.468 -2.3510  0.5756 -1.1095
 4253TIP3   OH234173   6.636   0.671   3.532  0.4785 -0.2452  0.1617
 4253TIP3    H134174   6.700   0.620   3.582  0.2788  0.8710  1.6290
 4253TIP3    H234175   6.571   0.607   3.504  0.6016 -0.9202  1.3509
 4254TIP3   OH234176   2.252   1.598  14.392 -0.5480  0.6100 -0.0037
 4254TIP3    H134177   2.227   1.667  14.453 -0.5640  0.4558  0.1670
 4254TIP3    H234178   2.297   1.533  14.446 -1.6933 -0.1460  0.0958
 4255TIP3   OH234179   1.247   1.587   0.033  0.4794  0.2424  0.1310
 4255TIP3    H134180   1.330   1.579  -0.015  1.1204  1.3371  0.9986
 4255TIP3    H234181   1.244   1.510   0.089  2.8958  2.0231  2.9801
 4256TIP3   OH234182   1.841   1.176   1.301 -0.2222 -0.1618  0.0250
 4256TIP3    H134183   1.934   1.153   1.300  0.2675  1.6524 -1.5274
 4256TIP3    H234184   1.839   1.271   1.311 -1.9401 -0.2242  0.5695
 4257TIP3   OH234185   3.383   3.496  15.833  0.0588  0.2515  0.2360
 4257TIP3    H134186   3.434   3.570  15.800 -1.5206  2.3479  2.1793
 4257TIP3    H234187   3.430   3.468  15.912  0.3719 -0.4900 -0.2091
 4258TIP3   OH234188   1.840   3.285   5.381  0.3231  0.3135 -0.2161
 4258TIP3    H134189   1.809   3.195   5.389  0.3624  0.3770  0.8445
 4258TIP3    H234190   1.811   3.327   5.462  2.2030  0.6666  0.3041
 4259TIP3   OH234191   0.354   4.166   4.918  0.1881 -0.5061 -0.2981
 4259TIP3    H134192   0.266   4.152   4.953  0.4499  0.0025  0.6107
 4259TIP3    H234193   0.412   4.138   4.989  0.7374  0.7690 -0.2107
 4260TIP3   OH234194   5.673   6.507   2.773  0.1276 -0.0486  1.0127
 4260TIP3    H134195   5.746   6.555   2.735  0.5254  0.0054  1.8163
 4260TIP3    H234196   5.601   6.518   2.711  0.4040  1.0465  0.8745
 4261TIP3   OH234197   1.824   5.260  15.000 -0.3273 -0.1954 -0.1658
 4261TIP3    H134198   1.796   5.350  15.016  0.5957 -0.1819  1.5228
 4261TIP3    H234199   1.831   5.254  14.905  0.9855  1.9651 -0.2777
 4262TIP3   OH234200   6.730   3.758  14.428  0.6614  0.4730  0.3289
 4262TIP3    H134201   6.674   3.784  14.354  0.8229  1.4699  0.5434
 4262TIP3    H234202   6.706   3.667  14.445 -0.3819  0.6602 -0.0503
 4263TIP3   OH234203   4.488   3.061   3.920  0.3266  0.8834 -0.0958
 4263TIP3    H134204   4.498   3.097   3.832 -0.0028  0.8948 -0.1314
 4263TIP3    H234205   4.569   3.015   3.937  0.5914  1.3012 -0.2125
 4264TIP3   OH234206   6.284   6.446  16.439 -1.0063  0.5096 -0.0397
 4264TIP3    H134207   6.364   6.401  16.412 -0.1826  1.6648  0.3985
 4264TIP3    H234208   6.248   6.391  16.509  1.1380  1.5511  1.9988
 4265TIP3   OH234209   5.175   4.016   1.977 -0.4927  0.3582 -0.5519
 4265TIP3    H134210   5.207   4.081   2.039  1.2507 -1.9022  1.0710
 4265TIP3    H234211   5.249   3.957   1.962 -2.8018 -3.2688  0.7989
 4266TIP3   OH234212   4.958   6.451   3.502 -0.6737  0.5149  0.1837
 4266TIP3    H134213   4.919   6.477   3.586  0.7607  0.2681  0.9631
 4266TIP3    H234214   5.050   6.477   3.510  0.0682 -1.7217 -0.3224
 4267TIP3   OH234215   1.016   1.653  16.071  0.0891  0.1538  0.2759
 4267TIP3    H134216   0.930   1.613  16.088  0.8227 -1.1181  1.1940
 4267TIP3    H234217   0.997   1.726  16.012 -1.2971 -1.7077 -1.7604
 4268TIP3   OH234218   3.800   1.295   5.442  0.0192  0.5810 -0.1192
 4268TIP3    H134219   3.776   1.241   5.518  0.6390  0.8713  0.2924
 4268TIP3    H234220   3.787   1.385   5.472  2.0742  0.7741  0.3016
 4269TIP3   OH234221   6.379   6.143  14.009 -0.6293 -0.1228  0.1324
 4269TIP3    H134222   6.469   6.170  14.031  0.1003 -1.6230 -0.8705
 4269TIP3    H234223   6.378   6.140  13.914 -0.7900 -3.0620  0.1372
 4270TIP3   OH234224   1.183   6.724   5.580 -0.2242  0.2535  0.1325
 4270TIP3    H134225   1.163   6.808   5.538 -0.6144  0.4018  0.6067
 4270TIP3    H234226   1.110   6.710   5.640  0.5082  0.2271  1.0387
 4271TIP3   OH234227   1.575   0.606  14.873 -0.2977 -0.3791 -0.3501
 4271TIP3    H134228   1.670   0.604  14.890 -0.3280  3.2188  1.1376
 4271TIP3    H234229   1.567   0.642  14.785 -0.1694  2.9561  0.8832
 4272TIP3   OH234230   1.170   6.046  17.118 -0.5130 -1.3846  0.0711
 4272TIP3    H134231   1.202   5.969  17.166 -0.6322 -0.7807  1.1382
 4272TIP3    H234232   1.198   6.031  17.027  1.0425 -1.8217  0.5995
 4273TIP3   OH234233   1.064   4.977  13.642  0.2926 -0.1524 -0.2020
 4273TIP3    H134234   0.994   4.927  13.601  1.3371  0.8553 -3.5100
 4273TIP3    H234235   1.029   5.065  13.651  0.7606  0.1151 -0.9187
 4274TIP3   OH234236   5.365   0.370   1.903 -0.4623  0.2931  0.3195
 4274TIP3    H134237   5.423   0.409   1.969 -0.6648  1.8255 -0.3467
 4274TIP3    H234238   5.343   0.284   1.937  0.0108  0.7686  1.9051
 4275TIP3   OH234239   6.012   0.891   0.840 -0.3345 -0.6232  0.2527
 4275TIP3    H134240   5.958   0.880   0.761  0.1650  1.3252 -0.4007
 4275TIP3    H234241   5.971   0.833   0.904 -2.6692  0.0588 -0.4990
 4276TIP3   OH234242   1.040   4.760   3.033  0.0787 -0.1039  0.1544
 4276TIP3    H134243   1.017   4.675   2.996  2.0799  0.4750 -2.7742
 4276TIP3    H234244   1.133   4.770   3.015  0.5524  1.6165  2.8966
 4277TIP3   OH234245   6.169   6.369   4.294  0.8024  0.1689 -0.4186
 4277TIP3    H134246   6.134   6.456   4.274  0.1562  0.2587  0.9991
 4277TIP3    H234247   6.094   6.310   4.285  0.5561  0.1707  1.3013
 4278TIP3   OH234248   1.478   1.859  14.856  0.4118 -0.4625  0.3684
 4278TIP3    H134249   1.403   1.800  14.858  0.9778 -1.2820  3.5857
 4278TIP3    H234250   1.440   1.945  14.837 -1.2400 -0.9756  1.1468
 4279TIP3   OH234251   4.571   2.152  17.143  0.4330 -0.0380  0.4537
 4279TIP3    H134252   4.593   2.227  17.089  0.0499  0.2832  0.7347
 4279TIP3    H234253   4.604   2.077  17.095  0.9628  0.3243  0.2482
 4280TIP3   OH234254   4.454   2.552   2.513  0.1067 -0.6639 -0.4051
 4280TIP3    H134255   4.440   2.533   2.420 -0.0934 -0.4759 -0.4141
 4280TIP3    H234256   4.372   2.526   2.555  0.3827 -1.2201 -0.2110
 4281TIP3   OH234257   0.593   0.054   4.826  0.0092 -0.0644  0.3083
 4281TIP3    H134258   0.569  -0.036   4.806 -0.8724  0.0756  0.6535
 4281TIP3    H234259   0.509   0.099   4.837  0.4365  0.7244  0.4600
 4282TIP3   OH234260   5.116   1.327   2.728 -0.3971  0.1096  0.1659
 4282TIP3    H134261   5.057   1.382   2.676  0.4691 -0.4107 -1.4292
 4282TIP3    H234262   5.201   1.369   2.720 -0.3397  0.3804  1.7585
 4283TIP3   OH234263   5.156   4.880  13.967  0.1627  0.0561 -0.6429
 4283TIP3    H134264   5.139   4.970  13.942  1.5320  0.1415 -1.3539
 4283TIP3    H234265   5.090   4.828  13.920  0.2783  0.5612 -1.3760
 4284TIP3   OH234266   1.358   0.611   0.358 -0.1165  0.7403 -0.2944
 4284TIP3    H134267   1.291   0.546   0.337 -0.6551  1.0299  0.4811
 4284TIP3    H234268   1.332   0.689   0.308  1.0537  0.1135 -1.9808
 4285TIP3   OH234269   3.864   3.020  11.480 -0.2578 -0.0750  0.5463
 4285TIP3    H134270   3.880   3.113  11.490  0.2676  0.0130 -0.8287
 4285TIP3    H234271   3.811   3.013  11.400 -0.1929 -0.9513  0.5641
 4286TIP3   OH234272   5.856   4.035   5.855 -0.1966  0.5731  0.1767
 4286TIP3    H134273   5.943   3.999   5.874 -0.2401  0.1617 -0.3777
 4286TIP3    H234274   5.862   4.127   5.881  0.5866  0.6951 -0.4072
 4287TIP3   OH234275   5.998   0.370  11.100  0.0174  0.1057  0.2450
 4287TIP3    H134276   5.962   0.458  11.110 -1.1617 -0.3313 -0.0936
 4287TIP3    H234277   6.030   0.347  11.188 -1.9177 -0.0802  0.9376
 4288TIP3   OH234278   2.555   2.285   2.803  0.2886 -0.0821  0.4011
 4288TIP3    H134279   2.616   2.348   2.764  2.8827 -1.3493  2.1173
 4288TIP3    H234280   2.529   2.229   2.731  0.8928  0.6901 -0.4375
 4289TIP3   OH234281   1.060   0.716   1.211  0.4707  0.4312 -0.3429
 4289TIP3    H134282   1.150   0.685   1.224  0.2844 -0.7482 -1.5664
 4289TIP3    H234283   1.012   0.638   1.183 -0.9880  1.0001  0.4853
 4290TIP3   OH234284   1.225   5.563   3.818 -0.2485  0.0103  0.3544
 4290TIP3    H134285   1.286   5.498   3.854  0.1704  0.4819  0.5181
 4290TIP3    H234286   1.278   5.642   3.809 -0.8342  0.4239  0.4712
 4291TIP3   OH234287   0.968   1.596   4.507 -0.3378  0.0722 -0.3778
 4291TIP3    H134288   0.931   1.682   4.487  0.1965  0.4497  0.2404
 4291TIP3    H234289   0.993   1.601   4.599  2.3665  0.2766 -1.0416
 4292TIP3   OH234290   1.824   0.886  13.213  0.2185 -0.0260  0.0248
 4292TIP3    H134291   1.870   0.817  13.262  1.3688 -0.7448 -1.9703
 4292TIP3    H234292   1.767   0.839  13.152 -1.3343  0.8585  0.7342
 4293TIP3   OH234293   5.386   6.123  16.391  0.3228 -0.3664  0.1691
 4293TIP3    H134294   5.430   6.070  16.325 -0.3463 -2.3626  1.2447
 4293TIP3    H234295   5.293   6.121  16.367  0.5569  3.5115 -1.8738
 4294TIP3   OH234296   0.554   4.039  15.789  0.6775 -0.0866 -0.1047
 4294TIP3    H134297   0.557   4.095  15.867 -1.2125 -0.7779  0.5149
 4294TIP3    H234298   0.565   3.950  15.822 -1.2537 -0.4911 -0.4300
 4295TIP3   OH234299   2.657   3.022  13.413 -0.2779 -0.2278 -0.5272
 4295TIP3    H134300   2.669   2.932  13.443  2.2601  0.1481 -0.2341
 4295TIP3    H234301   2.702   3.025  13.329 -2.4795  0.1921 -1.7689
 4296TIP3   OH234302   4.870   3.610   3.324 -0.0785  0.0977  0.4857
 4296TIP3    H134303   4.898   3.574   3.408  0.9587 -0.0719  0.0718
 4296TIP3    H234304   4.801   3.550   3.294  1.2417 -1.2668  0.0608
 4297TIP3   OH234305   6.467   5.112   4.494 -0.4541  0.0503  0.0802
 4297TIP3    H134306   6.535   5.060   4.536  1.0060  1.2547 -0.6909
 4297TIP3    H234307   6.451   5.069   4.410 -3.1438 -2.1709  1.5631
 4298TIP3   OH234308   4.036   2.988  12.457  0.2089 -0.1721  0.0627
 4298TIP3    H134309   4.107   3.003  12.394  1.2967  0.0987  1.3083
 4298TIP3    H234310   4.069   3.024  12.539 -0.6075 -1.7291  1.1262
 4299TIP3   OH234311   3.369   2.569   1.075 -0.8998  0.0297  0.1358
 4299TIP3    H134312   3.441   2.506   1.067  0.3665  1.4125  0.3192
 4299TIP3    H234313   3.398   2.646   1.028 -1.6005  1.1905  1.5206
 4300TIP3   OH234314   3.060   5.295  15.596 -0.2430 -0.1693 -0.2123
 4300TIP3    H134315   3.142   5.246  15.602 -0.9941 -1.6757 -1.3965
 4300TIP3    H234316   3.079   5.367  15.536  0.0743 -0.8499 -0.9409
 4301TIP3   OH234317   4.075   3.597  13.529 -0.1363  0.3976  0.2155
 4301TIP3    H134318   4.079   3.507  13.495  0.7974  0.4324  0.2250
 4301TIP3    H234319   3.982   3.620  13.523 -0.3692 -0.5291  0.1122
 4302TIP3   OH234320   5.481   3.740  12.236 -0.1372  0.0687  0.1827
 4302TIP3    H134321   5.477   3.826  12.193 -0.6576 -0.3277 -0.6009
 4302TIP3    H234322   5.458   3.758  12.327  0.7626  0.9037  0.2612
 4303TIP3   OH234323   4.352   4.197  12.589 -0.0803  0.8107  0.2257
 4303TIP3    H134324   4.394   4.144  12.521  0.4040 -1.1097  1.9075
 4303TIP3    H234325   4.328   4.133  12.657 -1.1199  2.5556  1.5698
 4304TIP3   OH234326   6.455   0.479   1.944  0.2737 -0.2884 -0.0611
 4304TIP3    H134327   6.497   0.540   2.005  1.9224  0.8912 -2.2095
 4304TIP3    H234328   6.362   0.482   1.966  0.6595  1.0388  1.5526
 4305TIP3   OH234329   4.579   4.089   1.080 -0.3787 -0.5957  0.3475
 4305TIP3    H134330   4.518   4.059   1.148 -1.1078  0.2603  0.0953
 4305TIP3    H234331   4.618   4.009   1.045 -0.4492 -1.0850  1.3522
 4306TIP3   OH234332   6.080   5.754   3.305  0.3840 -0.0348 -0.1805
 4306TIP3    H134333   6.091   5.719   3.393 -1.2569 -0.4465 -0.1010
 4306TIP3    H234334   6.113   5.685   3.247  0.4492 -0.2244  0.0800
 4307TIP3   OH234335   5.392   2.654   1.563 -0.5102  0.9612 -0.3523
 4307TIP3    H134336   5.370   2.746   1.549  0.7432  1.0955 -1.6577
 4307TIP3    H234337   5.463   2.636   1.502 -0.2336 -0.6960  0.3828
 4308TIP3   OH234338   2.269   2.897   2.259 -0.1404 -0.4712  0.1593
 4308TIP3    H134339   2.178   2.923   2.272  0.2895  1.9914 -1.0755
 4308TIP3    H234340   2.269   2.847   2.178 -0.2964  0.4453 -0.4234
 4309TIP3   OH234341   0.179   5.264  12.146 -0.7351 -0.3257 -0.0946
 4309TIP3    H134342   0.232   5.258  12.066 -0.2555  0.2817  0.1761
 4309TIP3    H234343   0.192   5.180  12.190 -0.3024 -0.3194 -0.2146
 4310TIP3   OH234344   5.195   6.769  16.382  0.2017  0.2160 -0.7070
 4310TIP3    H134345   5.103   6.797  16.380  0.5158  1.2757 -0.8969
 4310TIP3    H234346   5.230   6.809  16.462  0.6624  0.3249 -0.9637
 4311TIP3   OH234347   2.468   4.562   3.807  0.3975  0.1521  0.2027
 4311TIP3    H134348   2.422   4.491   3.853 -1.0953  1.0410  0.1167
 4311TIP3    H234349   2.425   4.568   3.722  0.0188  1.6130  0.4694
 4312TIP3   OH234350   2.339   5.544   2.713  0.3676  0.3518  0.0081
 4312TIP3    H134351   2.300   5.462   2.684 -1.2339  2.0096 -2.9931
 4312TIP3    H234352   2.290   5.567   2.792 -1.2195 -0.1213 -0.8130
 4313TIP3   OH234353   0.628   4.161   0.649  0.4797  0.3545 -0.6749
 4313TIP3    H134354   0.632   4.163   0.554  0.2861  4.1086 -0.7419
 4313TIP3    H234355   0.597   4.248   0.674  0.1307 -0.6170  2.8294
 4314TIP3   OH234356   3.649   1.102   0.857  0.1563  0.6453 -0.2414
 4314TIP3    H134357   3.676   1.185   0.818 -1.3234  1.1830 -0.2017
 4314TIP3    H234358   3.651   1.040   0.784 -0.2093  1.0760 -0.6249
 4315TIP3   OH234359   4.801   5.121   2.047 -0.6766  0.0618 -0.5035
 4315TIP3    H134360   4.814   5.035   2.008 -2.0267 -0.4330  0.0632
 4315TIP3    H234361   4.730   5.108   2.109 -0.6490  1.5111 -0.1397
 4316TIP3   OH234362   3.011   0.185  15.715  0.1096  0.1028 -0.2161
 4316TIP3    H134363   3.068   0.253  15.750  0.4376 -0.2096 -0.1390
 4316TIP3    H234364   3.032   0.107  15.766  2.3914 -1.0220 -2.6500
 4317TIP3   OH234365   2.152   2.837   5.537  0.0524 -0.7437  0.5431
 4317TIP3    H134366   2.236   2.873   5.563  0.7862 -2.4212  0.6022
 4317TIP3    H234367   2.093   2.860   5.609  0.4302  0.4369  0.5004
 4318TIP3   OH234368   2.887   6.728  16.919 -0.0901 -0.6059 -0.5042
 4318TIP3    H134369   2.840   6.794  16.869  0.2049  0.3141  0.4182
 4318TIP3    H234370   2.952   6.777  16.969  0.7343 -1.6823 -0.4827
 4319TIP3   OH234371   5.181   4.451  10.194  0.2054 -0.0555  0.3007
 4319TIP3    H134372   5.198   4.376  10.250  2.5615 -1.0686 -1.5980
 4319TIP3    H234373   5.258   4.507  10.204 -0.4130  0.9051 -0.1507
 4320TIP3   OH234374   4.058   4.287  12.087  0.1203 -0.5480  0.2677
 4320TIP3    H134375   4.001   4.321  12.156 -0.1383 -0.4965  0.0304
 4320TIP3    H234376   4.137   4.340  12.093  0.4158 -1.0601  1.0370
 4321TIP3   OH234377   1.767   2.077  16.480 -0.0601  0.4390 -0.3765
 4321TIP3    H134378   1.774   2.101  16.388 -0.9373 -0.9196 -0.8287
 4321TIP3    H234379   1.817   1.996  16.488 -1.6445 -0.5685 -0.1456
 4322TIP3   OH234380   3.837   4.257  12.524  0.3006  0.2724  0.0138
 4322TIP3    H134381   3.893   4.268  12.601 -1.0119  3.6227  0.6630
 4322TIP3    H234382   3.750   4.241  12.561 -0.8296  4.3112 -0.4862
 4323TIP3   OH234383   4.624   0.995   1.491 -0.2080  0.6830 -0.4330
 4323TIP3    H134384   4.539   0.957   1.513  0.4372 -0.9549 -0.6208
 4323TIP3    H234385   4.637   0.974   1.398  1.2130 -0.8138  0.0481
 4324TIP3   OH234386   1.069   1.207  13.038  0.3272  0.2397 -0.1795
 4324TIP3    H134387   1.107   1.139  12.983 -1.0186 -1.0524  0.3905
 4324TIP3    H234388   0.998   1.244  12.985 -1.1018 -1.1443  0.6563
 4325TIP3   OH234389   5.755   2.929  15.370  0.0234 -0.0639 -0.2613
 4325TIP3    H134390   5.684   2.896  15.315  1.2790 -0.0718 -1.9891
 4325TIP3    H234391   5.749   3.025  15.362 -0.2400 -0.0399  0.2041
 4326TIP3   OH234392   5.480   3.146   5.070  0.8491 -0.0442 -0.6441
 4326TIP3    H134393   5.536   3.223   5.064  0.2572  0.3424 -1.4311
 4326TIP3    H234394   5.391   3.180   5.072  0.5646 -0.7030 -1.2537
 4327TIP3   OH234395   3.265   1.856   0.325 -0.4754 -0.0864  0.1058
 4327TIP3    H134396   3.336   1.819   0.376  2.0538 -0.9130 -3.6468
 4327TIP3    H234397   3.233   1.783   0.271 -2.2774  0.9291 -0.2834
 4328TIP3   OH234398   0.413   5.321   3.791 -0.0404  0.1976  0.0934
 4328TIP3    H134399   0.468   5.254   3.833 -0.1733  0.3216  0.4744
 4328TIP3    H234400   0.423   5.398   3.847 -0.8992  0.1081  0.3864
 4329TIP3   OH234401   4.711   2.263   1.746  0.1751 -0.4349  0.3296
 4329TIP3    H134402   4.625   2.304   1.739 -0.2622 -1.4711 -0.6474
 4329TIP3    H234403   4.771   2.335   1.762 -0.3212  0.8430 -2.9701
 4330TIP3   OH234404   5.072   1.019   1.157 -0.1739  0.0827 -0.3298
 4330TIP3    H134405   5.074   1.112   1.178 -0.2534  0.0136 -0.0075
 4330TIP3    H234406   5.024   1.014   1.074 -0.7581  0.2695 -0.0090
 4331TIP3   OH234407   5.456   0.688  15.404 -0.6040 -0.0531 -0.6093
 4331TIP3    H134408   5.425   0.750  15.470  0.9342 -1.1455  1.2259
 4331TIP3    H234409   5.394   0.615  15.407  0.4332 -0.9213  0.9875
 4332TIP3   OH234410   4.562   2.765  15.863  0.5115  0.4574 -0.2628
 4332TIP3    H134411   4.501   2.741  15.793  1.9560 -0.0956 -1.3930
 4332TIP3    H234412   4.538   2.855  15.887  0.4910  0.9743 -2.0746
 4333TIP3   OH234413   4.789   0.888   4.066 -0.2153  0.1651 -0.5310
 4333TIP3    H134414   4.729   0.856   3.999  0.0933 -0.2803 -0.5960
 4333TIP3    H234415   4.775   0.983   4.067 -0.4704  0.1358 -0.9790
 4334TIP3   OH234416   1.852   0.401   5.409  0.0090  0.6307  0.0049
 4334TIP3    H134417   1.783   0.370   5.469  1.0263 -1.3363  0.2338
 4334TIP3    H234418   1.859   0.332   5.343  0.8327  1.4706 -0.8069
 4335TIP3   OH234419   5.263   1.614   0.844  0.0486 -0.1629  1.1006
 4335TIP3    H134420   5.278   1.673   0.917  0.8645 -0.8562  1.5209
 4335TIP3    H234421   5.333   1.634   0.782  0.4377 -0.7790  1.3227
 4336TIP3   OH234422   0.136   2.510  16.225 -0.2304 -0.0505 -0.1572
 4336TIP3    H134423   0.049   2.513  16.184 -0.4594  2.0743  0.3568
 4336TIP3    H234424   0.158   2.602  16.240  2.5741 -0.4588 -1.1875
 4337TIP3   OH234425   3.882   3.712   5.781 -0.1360 -0.4864  0.0764
 4337TIP3    H134426   3.834   3.748   5.706 -0.8549  2.0530  1.6250
 4337TIP3    H234427   3.815   3.671   5.834 -0.4114  1.4937  1.3619
 4338TIP3   OH234428   1.080   1.908  17.080  0.0660 -0.0826  0.1065
 4338TIP3    H134429   1.168   1.920  17.115 -0.0290  2.7841 -0.3458
 4338TIP3    H234430   1.032   1.863  17.150  1.6379 -0.8791  0.7199
 4339TIP3   OH234431   5.774   1.031  14.284 -0.4848 -0.6779 -0.0893
 4339TIP3    H134432   5.684   0.999  14.284  0.7620 -4.9325 -1.5574
 4339TIP3    H234433   5.804   1.017  14.373 -1.0869  0.3298  0.2902
 4340TIP3   OH234434   1.963   3.842  11.650  0.6000  0.2802 -0.2803
 4340TIP3    H134435   1.879   3.866  11.688  0.4997  0.0599 -0.3666
 4340TIP3    H234436   2.026   3.857  11.721  0.2747 -1.3042  0.4008
 4341TIP3   OH234437   1.148   2.274   5.899 -0.0590  0.3367  0.0095
 4341TIP3    H134438   1.071   2.219   5.890 -0.5106  1.0352 -0.5377
 4341TIP3    H234439   1.197   2.235   5.971 -0.5890 -0.5032 -0.0684
 4342TIP3   OH234440   1.169   1.535  11.208  0.3616  0.6512  0.6971
 4342TIP3    H134441   1.216   1.553  11.126 -1.1176 -0.2800 -0.4061
 4342TIP3    H234442   1.206   1.452  11.239 -0.1330  0.1994  0.1169
 4343TIP3   OH234443   3.697   6.726   0.941  0.0587  0.1836  0.1981
 4343TIP3    H134444   3.778   6.774   0.926  0.3161  0.1664  1.4182
 4343TIP3    H234445   3.715   6.672   1.018 -1.5662  1.2809  1.4141
 4344TIP3   OH234446   0.615   0.112  14.061  0.2406 -0.1676  0.1171
 4344TIP3    H134447   0.677   0.040  14.068 -0.0832 -0.2697  3.0926
 4344TIP3    H234448   0.670   0.191  14.059  0.5653 -0.3998 -2.3891
 4345TIP3   OH234449   0.801   6.061   2.660  0.1084 -0.1820 -0.0135
 4345TIP3    H134450   0.719   6.071   2.708 -0.7793  0.0417 -1.5169
 4345TIP3    H234451   0.851   6.140   2.680  0.1020 -0.4459  1.1285
 4346TIP3   OH234452   3.916   5.388   5.755  0.0571  0.4168 -0.2469
 4346TIP3    H134453   3.935   5.393   5.848 -1.0871  1.9088 -0.0615
 4346TIP3    H234454   3.918   5.478   5.724 -0.8199  0.0751 -1.3918
 4347TIP3   OH234455   2.788   5.723  15.509 -0.0004  0.5675  0.4481
 4347TIP3    H134456   2.842   5.747  15.584  0.2343 -0.2564  0.5425
 4347TIP3    H234457   2.698   5.736  15.539  0.0498 -0.7653  1.2380
 4348TIP3   OH234458   2.478   2.930   5.271  0.0791  0.1681 -0.8445
 4348TIP3    H134459   2.430   2.985   5.209 -0.3636  0.5274 -0.2025
 4348TIP3    H234460   2.568   2.965   5.270 -0.2252  0.9989 -0.3556
 4349TIP3   OH234461   5.021   4.577   4.317 -0.1196  0.1798 -0.0626
 4349TIP3    H134462   4.984   4.525   4.246 -1.1590  0.2724  0.3946
 4349TIP3    H234463   5.106   4.536   4.335 -0.6245 -0.9334 -0.1608
 4350TIP3   OH234464   3.771   6.287   4.883  0.2420  0.5387 -0.1272
 4350TIP3    H134465   3.806   6.199   4.899  1.6337  0.9704 -0.6966
 4350TIP3    H234466   3.749   6.320   4.970  1.6529  0.3987  0.3044
 4351TIP3   OH234467   2.597   3.273  13.791  0.0457  0.1093  0.6701
 4351TIP3    H134468   2.535   3.210  13.755  0.7131  1.1437 -2.6665
 4351TIP3    H234469   2.678   3.257  13.742  0.7406  2.3466  0.9794
 4352TIP3   OH234470   2.743   0.848  17.057 -0.4840  0.2964  0.1703
 4352TIP3    H134471   2.802   0.904  17.108 -0.4369 -0.9525  1.5140
 4352TIP3    H234472   2.730   0.771  17.111 -0.7739 -0.8937 -1.5398
 4353TIP3   OH234473   3.737   6.570   1.143  0.2007 -0.0426 -0.3478
 4353TIP3    H134474   3.689   6.516   1.205  0.7633  0.7372  0.8010
 4353TIP3    H234475   3.825   6.532   1.142 -0.2682 -1.2454 -2.1723
 4354TIP3   OH234476   4.594   1.732  11.176 -0.0493 -0.4231 -0.3347
 4354TIP3    H134477   4.515   1.783  11.157  0.9757  1.6556  0.6547
 4354TIP3    H234478   4.632   1.714  11.090  0.1062  1.4937 -0.7190
 4355TIP3   OH234479   6.387   3.965  16.755  0.2681  0.2998  0.1545
 4355TIP3    H134480   6.339   3.902  16.809  0.8120 -1.0480 -0.8569
 4355TIP3    H234481   6.321   4.004  16.697  0.3346 -1.7054 -1.3914
 4356TIP3   OH234482   1.416   3.852   0.096 -0.0159 -0.4121 -0.0772
 4356TIP3    H134483   1.458   3.802   0.166 -0.4424 -0.1710  0.3602
 4356TIP3    H234484   1.427   3.944   0.123 -3.1884 -0.3546  1.5209
 4357TIP3   OH234485   5.424   1.241  14.784  0.1885  0.2257  0.5218
 4357TIP3    H134486   5.342   1.203  14.754  1.1179 -0.3370 -1.4344
 4357TIP3    H234487   5.406   1.335  14.791 -0.5647  0.1352 -0.0873
 4358TIP3   OH234488   1.076   6.706   2.371  0.5272 -0.0762  0.2499
 4358TIP3    H134489   1.171   6.692   2.381  0.6384  0.8647  0.5638
 4358TIP3    H234490   1.041   6.694   2.459  0.5019  0.6870  0.3436
 4359TIP3   OH234491   3.310   6.040  11.063  0.2077 -0.9118  0.4173
 4359TIP3    H134492   3.270   5.974  11.119  0.2433 -1.5499 -0.2994
 4359TIP3    H234493   3.305   6.121  11.114 -0.5887 -1.2966  0.9646
 4360TIP3   OH234494   3.566   2.318   4.888 -0.4857 -0.2336  0.3793
 4360TIP3    H134495   3.535   2.245   4.941 -0.0308  0.0984  1.1207
 4360TIP3    H234496   3.495   2.382   4.892 -0.5145 -0.2703  0.4563
 4361TIP3   OH234497   4.744   4.635   1.128  0.1168  0.0928 -0.1878
 4361TIP3    H134498   4.742   4.717   1.178  1.0436  0.2668 -0.4191
 4361TIP3    H234499   4.733   4.567   1.193  1.4983  0.3056  0.3125
 4362TIP3   OH234500   6.134   1.890   4.137 -0.2275  0.5288  0.3937
 4362TIP3    H134501   6.228   1.905   4.123 -0.1372  0.6337  1.0604
 4362TIP3    H234502   6.102   1.973   4.172 -1.0447  1.2587 -1.9284
 4363TIP3   OH234503   2.539   5.734   4.774  0.5516  0.4306 -0.0699
 4363TIP3    H134504   2.483   5.702   4.845 -0.0985 -0.5941 -1.0185
 4363TIP3    H234505   2.479   5.779   4.715  1.4727  3.8922  1.3914
 4364TIP3   OH234506   1.340   1.511  11.657 -0.1169 -0.0662  0.2318
 4364TIP3    H134507   1.372   1.594  11.621  1.9495 -1.0828 -0.4789
 4364TIP3    H234508   1.339   1.524  11.751  1.0551  0.5240  0.1878
 4365TIP3   OH234509   5.392   1.709  13.720  0.0265 -0.1911  0.2037
 4365TIP3    H134510   5.444   1.642  13.675  1.4996 -0.6741  2.4758
 4365TIP3    H234511   5.343   1.752  13.650 -0.4216 -3.1268 -1.4337
 4366TIP3   OH234512   5.494   2.733   3.148  0.3557  0.3343 -0.2488
 4366TIP3    H134513   5.427   2.800   3.157  1.5524  1.3455  2.0179
 4366TIP3    H234514   5.452   2.653   3.180 -0.3737  0.5028 -0.7700
 4367TIP3   OH234515   4.122   0.549   0.414  1.0030 -0.8142  0.2085
 4367TIP3    H134516   4.104   0.576   0.503  0.2152  0.7045 -0.3791
 4367TIP3    H234517   4.189   0.480   0.422 -0.6842 -2.3302  2.0730
 4368TIP3   OH234518   5.317   0.524   4.219 -0.4566 -0.1637 -0.2541
 4368TIP3    H134519   5.286   0.605   4.178  0.5985 -0.4225 -1.6332
 4368TIP3    H234520   5.257   0.457   4.188 -1.6086  0.1104  1.2491
 4369TIP3   OH234521   4.551   0.490   4.063 -0.5017  0.9225  0.1130
 4369TIP3    H134522   4.467   0.445   4.065  0.6511 -1.3456  1.6295
 4369TIP3    H234523   4.546   0.553   4.135 -0.6052  0.1370  0.8156
 4370TIP3   OH234524   0.598   6.685   2.628  0.7836 -0.0672  0.1322
 4370TIP3    H134525   0.679   6.729   2.602  0.2681  1.6055  1.1721
 4370TIP3    H234526   0.541   6.694   2.552 -0.1297  3.2768  1.0566
 4371TIP3   OH234527   3.419   2.805   4.845  0.0309  0.3573  0.1228
 4371TIP3    H134528   3.444   2.858   4.920 -0.4748  0.9512 -0.1217
 4371TIP3    H234529   3.473   2.837   4.773 -0.4049  0.6658 -0.0679
 4372TIP3   OH234530   0.960   5.038   4.436  0.3689 -0.0812 -0.7274
 4372TIP3    H134531   1.044   5.026   4.393  0.8738 -0.3986  0.3095
 4372TIP3    H234532   0.940   4.952   4.474  0.0575  0.2460 -0.1335
 4373TIP3   OH234533   5.246   3.937  13.191  0.9386 -0.0503 -0.5353
 4373TIP3    H134534   5.255   3.842  13.197  0.3518 -0.0529  0.8000
 4373TIP3    H234535   5.316   3.971  13.247 -1.1128  0.1564  2.0987
 4374TIP3   OH234536   1.996   4.309   4.173  0.1282 -0.0331 -0.1522
 4374TIP3    H134537   1.978   4.258   4.252 -0.6605 -1.2030 -1.0625
 4374TIP3    H234538   1.911   4.345   4.148  0.1722 -0.5398 -1.0556
 4375TIP3   OH234539   2.326   0.544  12.236 -0.3221  0.3555 -0.5765
 4375TIP3    H134540   2.294   0.624  12.276 -0.8916 -0.3390  0.4183
 4375TIP3    H234541   2.297   0.474  12.295  0.0887 -0.5928 -1.4504
 4376TIP3   OH234542   3.525   6.286  16.905 -0.0862  0.0540  0.5352
 4376TIP3    H134543   3.508   6.307  16.996 -1.4425  1.1015  0.0864
 4376TIP3    H234544   3.439   6.263  16.869  0.2035  0.8521 -0.7471
 4377TIP3   OH234545   0.926   3.394  12.757  0.7775  0.4023  0.1305
 4377TIP3    H134546   0.951   3.324  12.696 -0.5886  0.5115 -0.5824
 4377TIP3    H234547   0.832   3.382  12.771  0.7540  1.3832  0.9411
 4378TIP3   OH234548   2.896   4.945   1.481  0.3863 -0.2947 -0.3803
 4378TIP3    H134549   2.909   5.010   1.412  1.2409 -0.1177 -0.0722
 4378TIP3    H234550   2.983   4.936   1.522  0.6124 -2.4928 -1.1783
 4379TIP3   OH234551   1.840   0.468  14.859 -0.1645 -0.3874 -0.2678
 4379TIP3    H134552   1.876   0.477  14.771  1.5309  1.3644  0.5531
 4379TIP3    H234553   1.914   0.481  14.917 -1.4764 -0.2610  1.4502
 4380TIP3   OH234554   5.505   0.330  12.382 -0.4891  0.1948  0.3135
 4380TIP3    H134555   5.423   0.345  12.335 -0.4208 -1.6445 -0.4563
 4380TIP3    H234556   5.483   0.264  12.448  0.2480  0.1331  0.5021
 4381TIP3   OH234557   3.444   0.475  14.126 -0.0947  0.3700  0.2295
 4381TIP3    H134558   3.446   0.505  14.035  1.3791 -0.3614  0.0077
 4381TIP3    H234559   3.522   0.514  14.166 -1.2600  1.5321  1.4848
 4382TIP3   OH234560   1.442   0.976  13.183 -0.9308 -0.2704 -0.2319
 4382TIP3    H134561   1.530   0.989  13.146 -0.2968 -0.3674  1.1679
 4382TIP3    H234562   1.406   1.064  13.190 -0.7200 -0.1769 -0.2991
 4383TIP3   OH234563   3.374   5.226  13.123  0.2981 -0.2608  0.0116
 4383TIP3    H134564   3.414   5.144  13.095 -0.4724 -0.9440  0.8544
 4383TIP3    H234565   3.441   5.267  13.179  0.0325 -1.1615  1.0162
 4384TIP3   OH234566   0.609   2.511  14.294 -0.3795  0.2376 -0.4142
 4384TIP3    H134567   0.570   2.599  14.289 -0.4527  0.3395  1.3384
 4384TIP3    H234568   0.554   2.464  14.356  1.7615  0.1352  1.5262
 4385TIP3   OH234569   5.907   2.888  17.138  0.1496 -0.0557  0.3780
 4385TIP3    H134570   5.910   2.793  17.125 -0.4548  0.0421 -0.6268
 4385TIP3    H234571   5.873   2.922  17.055  1.1377  1.1070  0.4233
 4386TIP3   OH234572   4.020   0.959   5.377 -0.0634  0.0722  0.1253
 4386TIP3    H134573   3.943   0.921   5.335  0.8963 -1.7484 -0.0857
 4386TIP3    H234574   4.083   0.968   5.306  0.8654 -1.0977  0.7676
 4387TIP3   OH234575   5.316   0.669  11.449  0.2001  0.3954  0.4691
 4387TIP3    H134576   5.409   0.690  11.448 -0.2020  2.6030  2.0469
 4387TIP3    H234577   5.275   0.739  11.399 -0.6368 -0.6912 -0.4360
 4388TIP3   OH234578   4.972   0.872  13.869  0.0144  0.5643 -0.0257
 4388TIP3    H134579   4.944   0.798  13.815 -0.5310  1.4318 -0.9772
 4388TIP3    H234580   5.011   0.832  13.947 -0.6155 -0.7134 -0.3389
 4389TIP3   OH234581   1.236   3.321  15.420 -0.2227 -0.9437 -0.1100
 4389TIP3    H134582   1.203   3.365  15.341  1.1587  1.0698  0.3602
 4389TIP3    H234583   1.328   3.306  15.402 -0.1315 -1.4265  0.7376
 4390TIP3   OH234584   4.780   1.447   2.465  0.3168 -0.0646 -0.0701
 4390TIP3    H134585   4.733   1.425   2.545  0.2535 -0.2313 -0.1529
 4390TIP3    H234586   4.868   1.472   2.495  1.5009 -3.5692 -0.1717
 4391TIP3   OH234587   5.452   4.702   4.291  0.0689 -0.2022 -0.3226
 4391TIP3    H134588   5.522   4.653   4.248 -0.1995 -1.2343  0.3622
 4391TIP3    H234589   5.411   4.753   4.221  0.1330 -1.2365 -1.1415
 4392TIP3   OH234590   0.950   0.423  15.759 -0.1437 -0.0847 -0.0529
 4392TIP3    H134591   1.007   0.496  15.735 -0.2707 -0.1065 -0.4171
 4392TIP3    H234592   0.869   0.437  15.710 -0.1960 -0.4277 -0.0697
 4393TIP3   OH234593   3.395   1.155  16.174 -1.0912  0.2394 -0.0964
 4393TIP3    H134594   3.417   1.088  16.109 -0.3085  0.3595  0.0397
 4393TIP3    H234595   3.456   1.139  16.247 -1.9728  0.0833  0.6261
 4394TIP3   OH234596   4.195   5.876   0.216  0.5486  0.0019  0.5926
 4394TIP3    H134597   4.258   5.836   0.276  0.7272  0.0513  0.4383
 4394TIP3    H234598   4.234   5.961   0.195  0.8033 -0.2874 -0.1093
 4395TIP3   OH234599   1.949   4.701   2.800  0.1781  0.7862 -0.5030
 4395TIP3    H134600   2.026   4.651   2.772  0.0363  0.7186 -0.7783
 4395TIP3    H234601   1.985   4.781   2.837  0.5659 -0.5189  2.2280
 4396TIP3   OH234602   0.109   2.841  14.207 -0.1365  0.3129  0.4479
 4396TIP3    H134603   0.148   2.892  14.278  0.6324  0.3821 -0.0249
 4396TIP3    H234604   0.175   2.840  14.138 -0.8161  0.1164 -0.2166
 4397TIP3   OH234605   3.382   5.446   2.043  0.0276 -0.3387 -0.2492
 4397TIP3    H134606   3.392   5.454   1.948  0.8093 -0.8067 -0.2139
 4397TIP3    H234607   3.288   5.453   2.058 -0.1792 -1.0528 -1.1388
 4398TIP3   OH234608   4.562   3.520   5.323  0.5422  0.0240  0.2761
 4398TIP3    H134609   4.530   3.560   5.404 -0.3972  0.6363 -0.3815
 4398TIP3    H234610   4.645   3.566   5.306  0.9926 -0.4443  1.1293
 4399TIP3   OH234611   3.504   2.061  11.838 -0.1514 -0.9363  0.3630
 4399TIP3    H134612   3.587   2.029  11.802  1.1394  2.6060 -0.2628
 4399TIP3    H234613   3.454   2.089  11.761 -1.1921 -1.4433  0.8481
 4400TIP3   OH234614   6.707   1.775   1.341 -0.3253 -0.1900 -0.2895
 4400TIP3    H134615   6.687   1.769   1.248 -0.6799  0.3413 -0.2512
 4400TIP3    H234616   6.799   1.749   1.348 -0.8805 -2.4501 -0.5065
 4401TIP3   OH234617   6.653   0.807   6.006 -0.3502  0.0956 -0.9705
 4401TIP3    H134618   6.743   0.776   6.014 -0.5797 -0.2427  0.5144
 4401TIP3    H234619   6.651   0.855   5.923  1.4238  0.9060 -0.5817
 4402TIP3   OH234620   1.796   1.074  12.198 -1.1790 -0.0275  0.3236
 4402TIP3    H134621   1.785   1.095  12.106 -0.5446 -1.1667 -0.0362
 4402TIP3    H234622   1.827   1.155  12.239  2.9307 -0.5742 -1.2940
 4403TIP3   OH234623   4.767   5.078  11.990  0.0282 -0.1593 -0.4140
 4403TIP3    H134624   4.744   4.992  11.955  2.2994 -0.7577 -0.6019
 4403TIP3    H234625   4.846   5.062  12.041  1.1400  1.9924 -1.3710
 4404TIP3   OH234626   2.997   5.443  12.435  0.2044  0.2658  0.5374
 4404TIP3    H134627   3.054   5.366  12.424  1.5177  1.2212  0.4927
 4404TIP3    H234628   3.043   5.514  12.392 -1.6083  0.8460 -0.5796
 4405TIP3   OH234629   2.896   0.018  12.029 -0.1089  0.1886  0.1760
 4405TIP3    H134630   2.927  -0.059  11.980  1.5554  1.1884 -0.4318
 4405TIP3    H234631   2.820   0.048  11.979 -0.1907 -0.4943 -0.1315
 4406TIP3   OH234632   4.427   1.083  12.591  0.4784  0.2735 -0.7630
 4406TIP3    H134633   4.458   1.133  12.515  0.7777 -0.0520 -0.8566
 4406TIP3    H234634   4.333   1.073  12.576  0.8080 -1.3784 -2.0320
 4407TIP3   OH234635   2.484   5.719  15.086 -0.1482 -0.1522 -0.0036
 4407TIP3    H134636   2.537   5.695  15.162 -1.1288 -0.1260  0.7013
 4407TIP3    H234637   2.523   5.669  15.014  0.6031 -0.4131  0.5624
 4408TIP3   OH234638   2.447   2.840  11.848 -0.2167  0.3925  0.4424
 4408TIP3    H134639   2.392   2.771  11.809 -0.6657  0.9310  0.0884
 4408TIP3    H234640   2.386   2.892  11.900 -0.1558  1.2991 -0.3607
 4409TIP3   OH234641   2.045   1.095   2.158  0.2844 -0.9538 -0.7043
 4409TIP3    H134642   2.070   1.141   2.238  1.6901  0.0370 -1.6699
 4409TIP3    H234643   1.983   1.028   2.187 -0.1167  0.1189  1.0499
 4410TIP3   OH234644   2.441   1.315   3.652 -0.5897 -0.1442  0.1792
 4410TIP3    H134645   2.404   1.235   3.615 -0.1780 -0.0500 -0.4420
 4410TIP3    H234646   2.535   1.298   3.655 -0.5419  0.1596  0.4312
 4411TIP3   OH234647   2.148   6.030  11.395  0.2639 -0.6363  0.3753
 4411TIP3    H134648   2.140   5.987  11.309  0.4312 -0.5921  0.3368
 4411TIP3    H234649   2.223   5.987  11.436  1.3527  0.5905 -0.2422
 4412TIP3   OH234650   4.808   0.223  11.331 -0.5264  0.3818  0.1725
 4412TIP3    H134651   4.884   0.271  11.363 -1.2906  0.7505  1.5055
 4412TIP3    H234652   4.774   0.177  11.408 -1.6733  0.2565 -0.3751
 4413TIP3   OH234653   6.723   2.764   0.760  0.3000  0.4390 -0.2906
 4413TIP3    H134654   6.815   2.782   0.746  0.4517  0.2128  0.4027
 4413TIP3    H234655   6.712   2.672   0.734  0.5054  0.1305  0.6857
 4414TIP3   OH234656   3.004   5.622  16.142 -0.7789  0.0450 -0.1576
 4414TIP3    H134657   2.916   5.653  16.121 -1.0278  0.0216  0.7911
 4414TIP3    H234658   3.015   5.542  16.091 -0.8213  0.7204 -1.2498
 4415TIP3   OH234659   5.296   5.990   3.965 -0.1102  0.4438  0.0878
 4415TIP3    H134660   5.341   5.911   3.993 -2.7644 -0.9663  0.6151
 4415TIP3    H234661   5.286   5.980   3.870  1.9424  1.5287 -0.3143
 4416TIP3   OH234662   6.607   2.264   2.312  0.0049  0.2644  0.1656
 4416TIP3    H134663   6.558   2.193   2.353  0.4044 -0.2673 -0.2761
 4416TIP3    H234664   6.659   2.302   2.382  0.4708 -0.4568  0.2089
 4417TIP3   OH234665   3.245   3.727   4.749 -0.0593 -0.5541 -0.2136
 4417TIP3    H134666   3.217   3.659   4.688 -0.2049  0.0528 -0.8351
 4417TIP3    H234667   3.279   3.796   4.693  0.3729 -0.2437  0.4278
 4418TIP3   OH234668   2.353   2.530  13.638 -0.5043  0.1297  0.3388
 4418TIP3    H134669   2.304   2.461  13.593  0.8044 -0.5382 -0.1246
 4418TIP3    H234670   2.439   2.491  13.653 -0.0739  1.3152  1.0034
 4419TIP3   OH234671   3.983   3.658   2.462 -0.1089 -0.3537 -0.6524
 4419TIP3    H134672   4.006   3.733   2.516  1.9382 -1.2593 -0.1301
 4419TIP3    H234673   3.948   3.695   2.381  2.5873  1.3039 -1.1934
 4420TIP3   OH234674   4.524   0.683  15.218  0.0330  0.8393  0.1064
 4420TIP3    H134675   4.497   0.768  15.252  1.0610  1.2632 -0.1006
 4420TIP3    H234676   4.620   0.687  15.216  0.2567 -1.1457  2.2209
 4421TIP3   OH234677   2.347   3.007  12.062 -0.2614  0.1807 -0.4142
 4421TIP3    H134678   2.442   3.017  12.057  0.0046 -1.2314  0.9116
 4421TIP3    H234679   2.318   3.081  12.115  0.5069 -0.9146  1.6494
 4422TIP3   OH234680   2.872   6.535  12.333 -0.2422  0.4547  0.1586
 4422TIP3    H134681   2.856   6.521  12.240  0.6385  1.0253 -0.0938
 4422TIP3    H234682   2.854   6.451  12.374  3.0459 -0.9694 -1.0264
 4423TIP3   OH234683   3.514   0.405  16.678 -0.2350 -0.2503  0.0588
 4423TIP3    H134684   3.508   0.311  16.697 -1.1920 -0.0062  1.0337
 4423TIP3    H234685   3.457   0.446  16.742  0.4917  1.0465 -0.0936
 4424TIP3   OH234686   2.989   5.955   1.303  0.0528  0.0948  0.4759
 4424TIP3    H134687   3.030   5.982   1.385  0.8929 -0.4521  0.2531
 4424TIP3    H234688   3.061   5.955   1.240  0.1609 -2.7089  0.4741
 4425TIP3   OH234689   0.153   0.067  13.067 -0.1662 -0.0430  0.2126
 4425TIP3    H134690   0.163  -0.021  13.103 -2.7045 -1.1156 -1.3940
 4425TIP3    H234691   0.180   0.059  12.976 -0.1485  0.9232  0.1237
 4426TIP3   OH234692   2.018   1.152  16.725 -0.2121 -0.3435  0.1083
 4426TIP3    H134693   2.017   1.148  16.821  1.0391 -1.5620  0.1165
 4426TIP3    H234694   2.013   1.245  16.705  2.6603  0.2472  1.4981
 4427TIP3   OH234695   1.743   3.301   1.130 -0.2043  0.5648 -0.2533
 4427TIP3    H134696   1.728   3.367   1.063 -0.4137 -1.0317 -1.8773
 4427TIP3    H234697   1.665   3.245   1.127 -0.5886  0.8927  1.9236
 4428TIP3   OH234698   4.305   1.442  12.226 -0.1383 -0.0267  0.6492
 4428TIP3    H134699   4.291   1.431  12.132  1.8458  1.4575  0.1178
 4428TIP3    H234700   4.399   1.458  12.235 -0.0839 -1.1563  3.0198
 4429TIP3   OH234701   3.434   1.983  13.515 -0.0360 -0.4843 -0.0860
 4429TIP3    H134702   3.375   1.909  13.529  1.5458 -1.5901  1.1243
 4429TIP3    H234703   3.502   1.950  13.458  0.3459  0.2347 -0.0654
 4430TIP3   OH234704   1.207   2.902   1.443  0.2291 -0.1920  0.6037
 4430TIP3    H134705   1.209   2.861   1.530  0.1630  0.2843  0.8323
 4430TIP3    H234706   1.174   2.990   1.459 -0.7599 -0.4278 -0.0408
 4431TIP3   OH234707   6.255   2.797   5.208 -0.0168 -0.4753 -0.0523
 4431TIP3    H134708   6.194   2.859   5.167  1.3803  1.2977  0.3981
 4431TIP3    H234709   6.330   2.794   5.147 -0.7848 -3.2017 -0.9855
 4432TIP3   OH234710   0.194   5.067  11.473  0.3535 -0.3370  0.4835
 4432TIP3    H134711   0.194   5.156  11.438 -0.4892 -0.5219 -0.0095
 4432TIP3    H234712   0.141   5.072  11.552 -0.8021 -0.6503 -0.2471
 4433TIP3   OH234713   6.504   2.155   4.844  0.4511 -0.1739  0.3382
 4433TIP3    H134714   6.433   2.198   4.891  1.4520 -1.6262  3.4298
 4433TIP3    H234715   6.582   2.206   4.867  0.5905  1.5187 -3.1550
 4434TIP3   OH234716   3.090   0.403   2.344 -0.1403 -0.1100  0.2241
 4434TIP3    H134717   3.051   0.317   2.357 -1.7669  0.7030  1.0228
 4434TIP3    H234718   3.174   0.385   2.303 -0.9998 -1.9973 -0.8476
 4435TIP3   OH234719   2.310   3.431  11.424  0.5592  0.6712 -0.5132
 4435TIP3    H134720   2.355   3.360  11.468  0.2603  0.9005  0.1713
 4435TIP3    H234721   2.379   3.476  11.374  0.6528 -0.4264 -1.4227
 4436TIP3   OH234722   3.504   1.809   3.231  0.3515 -0.2849  0.0408
 4436TIP3    H134723   3.583   1.760   3.206 -0.4203 -1.9559  0.8024
 4436TIP3    H234724   3.437   1.779   3.170  0.0915  0.5832 -0.1202
 4437TIP3   OH234725   4.425   3.150   2.919 -0.0065  0.7462 -0.2997
 4437TIP3    H134726   4.380   3.185   2.996  2.7383  1.6189  1.0537
 4437TIP3    H234727   4.373   3.180   2.845 -1.7022  1.5124  1.1110
 4438TIP3   OH234728   3.446   6.386   2.844 -0.2356  0.0047 -0.8311
 4438TIP3    H134729   3.412   6.428   2.923 -2.1380 -1.4701 -0.7923
 4438TIP3    H234730   3.520   6.333   2.876  0.5481  1.2780 -0.4778
 4439TIP3   OH234731   3.653   4.229   2.163  0.0382 -0.0087  1.0489
 4439TIP3    H134732   3.639   4.154   2.105 -0.2565 -0.8529  2.1802
 4439TIP3    H234733   3.683   4.299   2.105  0.8812 -1.1679  0.0405
 4440TIP3   OH234734   4.254   3.699  15.602  0.0148 -0.1690 -0.1987
 4440TIP3    H134735   4.241   3.605  15.585  0.4486 -0.3071  0.2214
 4440TIP3    H234736   4.335   3.720  15.556 -1.0423  0.4378 -1.8751
 4441TIP3   OH234737   4.423   4.304  13.340  0.2180  0.1256  0.5673
 4441TIP3    H134738   4.446   4.217  13.374 -0.2493 -0.4769 -0.5957
 4441TIP3    H234739   4.503   4.356  13.351 -0.1803  0.2738  3.4234
 4442TIP3   OH234740   0.187   1.958  11.762  0.1571  0.0696  0.4051
 4442TIP3    H134741   0.097   1.959  11.794 -0.1073 -1.4043 -0.1879
 4442TIP3    H234742   0.180   1.922  11.673  1.0221  2.6511 -0.8050
 4443TIP3   OH234743   3.988   5.450  11.606  0.0901 -0.6498 -0.5360
 4443TIP3    H134744   3.993   5.521  11.542  0.2087 -0.4468 -0.3035
 4443TIP3    H234745   3.918   5.476  11.666  0.7782 -0.2664  0.1086
 4444TIP3   OH234746   3.042   2.891   4.869 -0.1265 -0.2446  0.1088
 4444TIP3    H134747   3.125   2.922   4.834  0.1653 -0.8584  0.2448
 4444TIP3    H234748   3.053   2.893   4.964 -0.1735 -0.5790  0.1223
 4445TIP3   OH234749   4.265   0.410  12.637 -0.4615  0.1292  0.0283
 4445TIP3    H134750   4.252   0.459  12.718 -2.1839 -1.3814  0.7527
 4445TIP3    H234751   4.325   0.339  12.662  0.5549  0.7783 -0.5352
 4446TIP3   OH234752   1.441   4.393   2.047  0.1074 -0.9531 -0.3114
 4446TIP3    H134753   1.460   4.439   1.966  0.0964 -0.7863 -0.2208
 4446TIP3    H234754   1.345   4.387   2.049  0.1497 -2.6987 -1.2692
 4447TIP3   OH234755   0.280   5.775  13.359 -0.3840 -0.6500  0.2554
 4447TIP3    H134756   0.319   5.842  13.416 -2.9535  1.0154  0.2267
 4447TIP3    H234757   0.296   5.692  13.404  2.1828  0.0209  0.7100
 4448TIP3   OH234758   2.180   1.191  16.403 -0.5127 -0.6257 -0.0848
 4448TIP3    H134759   2.219   1.212  16.488 -0.2233 -2.4066  0.2449
 4448TIP3    H234760   2.230   1.243  16.340 -1.1713  1.2633  0.8428
 4449TIP3   OH234761   3.591   0.222   2.899  0.2277  0.4126  0.5620
 4449TIP3    H134762   3.631   0.145   2.938  3.0744  0.6146 -1.6375
 4449TIP3    H234763   3.564   0.276   2.973 -1.2217 -2.3020  2.1403
 4450TIP3   OH234764   3.278   0.484  16.940 -0.1818 -0.7146  0.2515
 4450TIP3    H134765   3.190   0.472  16.974 -0.1095  1.2480  1.2514
 4450TIP3    H234766   3.332   0.426  16.993 -0.5813 -0.2635  1.1869
 4451TIP3   OH234767   5.391   2.239   4.087  0.1852 -0.3708  0.6035
 4451TIP3    H134768   5.433   2.155   4.107  0.4221 -1.1869 -2.7768
 4451TIP3    H234769   5.457   2.305   4.111  0.9725 -1.2907  1.0259
 4452TIP3   OH234770   0.678   3.416  13.269 -0.0824  0.5756  0.4163
 4452TIP3    H134771   0.620   3.446  13.339  1.3348 -0.3309  2.0813
 4452TIP3    H234772   0.708   3.330  13.299  0.2704 -0.0126 -1.5316
 4453TIP3   OH234773   3.733   0.921   3.197 -0.3808  0.0471 -0.3071
 4453TIP3    H134774   3.702   0.985   3.134 -2.1936  0.4244  0.9053
 4453TIP3    H234775   3.763   0.974   3.271  0.4038 -0.4427 -0.2634
 4454TIP3   OH234776   6.644   6.526  11.093  0.3632  0.0543 -0.3750
 4454TIP3    H134777   6.592   6.596  11.054  1.0034  0.4480 -0.5468
 4454TIP3    H234778   6.658   6.463  11.022 -1.6099 -1.1149  0.1913
 4455TIP3   OH234779   5.569   1.867  11.620 -0.0484  0.1426  0.1359
 4455TIP3    H134780   5.481   1.832  11.634  0.2134  0.4636  3.3062
 4455TIP3    H234781   5.556   1.961  11.609 -0.0950  0.2146  0.7929
 4456TIP3   OH234782   4.903   2.353  12.874  0.5285 -0.1181  0.1788
 4456TIP3    H134783   4.989   2.348  12.914 -0.6166 -0.1435  2.8450
 4456TIP3    H234784   4.880   2.446  12.878 -0.4008 -0.3818  1.4649
 4457TIP3   OH234785   3.625   5.758  17.117 -0.3676 -0.5319 -0.0240
 4457TIP3    H134786   3.530   5.763  17.113 -0.4825 -0.6187  1.6709
 4457TIP3    H234787   3.644   5.743  17.210  1.3951  1.8917  0.1131
 4458TIP3   OH234788   5.231   1.298   1.195  0.0736  0.6132  0.6294
 4458TIP3    H134789   5.230   1.392   1.210 -1.7589  0.7446 -0.0256
 4458TIP3    H234790   5.245   1.289   1.101  1.4785  0.1596  0.8588
 4459TIP3   OH234791   0.902   6.614   4.348  0.3798 -0.3436 -0.0062
 4459TIP3    H134792   0.880   6.597   4.439  0.3142  1.1858  0.2948
 4459TIP3    H234793   0.819   6.637   4.307  0.5728  0.0329 -0.1907
 4460TIP3   OH234794   0.456   6.577  13.341 -0.2746 -0.0640  0.4601
 4460TIP3    H134795   0.365   6.601  13.358 -0.4124 -1.0713  1.2414
 4460TIP3    H234796   0.450   6.503  13.280  0.1132  1.2339 -1.2466
 4461TIP3   OH234797   0.107   5.600   3.359 -0.5378 -0.0070  0.3455
 4461TIP3    H134798   0.022   5.585   3.317 -0.8760  1.9336  0.2223
 4461TIP3    H234799   0.170   5.599   3.287 -0.7118  0.3387  0.1859
 4462TIP3   OH234800   3.271   3.317  16.131  0.4273  0.2462  0.2489
 4462TIP3    H134801   3.354   3.359  16.106  0.2148  0.1823 -0.6208
 4462TIP3    H234802   3.220   3.388  16.171  0.2643  0.7266 -0.7540
 4463TIP3   OH234803   4.057   3.385   0.886  0.3614  0.1105 -0.8935
 4463TIP3    H134804   3.980   3.332   0.865  0.9617 -1.4295  0.5747
 4463TIP3    H234805   4.030   3.474   0.866 -1.1738 -0.5736 -2.1365
 4464TIP3   OH234806   5.611   1.572   6.132 -0.4498  0.5183 -0.2826
 4464TIP3    H134807   5.598   1.541   6.222 -2.2749 -0.2839 -0.7769
 4464TIP3    H234808   5.665   1.651   6.141 -0.9509  0.6834  1.5463
 4465TIP3   OH234809   1.151   4.300  14.271 -0.4942  0.4543 -0.0991
 4465TIP3    H134810   1.196   4.280  14.189 -0.1291 -0.1077  0.2311
 4465TIP3    H234811   1.059   4.280  14.254 -0.0475 -2.5720  0.4963
 4466TIP3   OH234812   3.602   3.556   5.871  0.3483  0.4618  0.0293
 4466TIP3    H134813   3.566   3.475   5.906  1.0850 -0.4099 -1.1193
 4466TIP3    H234814   3.579   3.623   5.935 -2.1095 -0.2548 -0.0146
 4467TIP3   OH234815   4.497   5.933   0.260 -0.7418 -0.4203  0.0609
 4467TIP3    H134816   4.456   5.996   0.201 -0.7784 -1.1939 -0.7680
 4467TIP3    H234817   4.460   5.952   0.346 -1.6118 -0.0598 -0.3841
 4468TIP3   OH234818   2.452   1.695   3.169  0.0445  0.4529 -0.2895
 4468TIP3    H134819   2.357   1.697   3.159  0.0316 -1.0918 -0.7737
 4468TIP3    H234820   2.484   1.677   3.080  0.7985  1.0644 -0.1470
 4469TIP3   OH234821   6.031   6.250   4.745  0.1997  0.0603  0.5401
 4469TIP3    H134822   5.965   6.181   4.747  0.8405 -0.5554  1.4119
 4469TIP3    H234823   6.114   6.203   4.753  0.7088  0.8677  0.1251
 4470TIP3   OH234824   5.525   0.696   1.241  0.5365 -0.2560 -0.3051
 4470TIP3    H134825   5.550   0.674   1.331 -0.1477 -0.4234 -0.1499
 4470TIP3    H234826   5.543   0.789   1.233  1.3722 -0.4080 -0.2560
 4471TIP3   OH234827   5.594   6.707   4.886 -0.7053  0.1665  0.3605
 4471TIP3    H134828   5.527   6.773   4.902  1.3929  2.7287 -0.5716
 4471TIP3    H234829   5.657   6.751   4.828  2.0727 -1.8348  1.6391
 4472TIP3   OH234830   4.667   3.925   2.140  0.5447 -0.5574 -0.3184
 4472TIP3    H134831   4.619   3.864   2.197 -1.1081  0.7565 -0.2012
 4472TIP3    H234832   4.743   3.951   2.191 -0.0142 -0.7046  0.6151
 4473TIP3   OH234833   3.212   5.880   5.802  0.2473 -0.1168  0.6346
 4473TIP3    H134834   3.153   5.822   5.753 -0.6599  0.7266  0.6893
 4473TIP3    H234835   3.165   5.899   5.883  0.4669  0.8085  0.5534
 4474TIP3   OH234836   0.426   5.457   4.484  0.3052 -0.0651 -0.4070
 4474TIP3    H134837   0.521   5.455   4.497  0.2069  1.6121  0.8873
 4474TIP3    H234838   0.390   5.420   4.564 -0.1538 -0.3804 -0.7513
 4475TIP3   OH234839   4.669   5.366  15.286 -0.1746  0.0887 -0.2099
 4475TIP3    H134840   4.594   5.327  15.240 -0.8977  0.2322  0.8150
 4475TIP3    H234841   4.642   5.370  15.378  0.4685  1.6277 -0.0515
 4476TIP3   OH234842   4.149   1.349   5.494  0.0809  0.3543  0.1453
 4476TIP3    H134843   4.176   1.297   5.570 -1.0404  1.1114  1.0936
 4476TIP3    H234844   4.076   1.402   5.526  0.5564  1.8081 -1.0446
 4477TIP3   OH234845   5.299   0.294  11.289 -0.0137  0.4887  0.3103
 4477TIP3    H134846   5.231   0.361  11.281 -0.2155  0.3619  0.8928
 4477TIP3    H234847   5.357   0.327  11.358  0.6471  0.7004 -0.3395
 4478TIP3   OH234848   3.030   0.763   2.639  0.8818  0.5619  0.2911
 4478TIP3    H134849   2.995   0.677   2.615  2.5160  0.0903 -0.5808
 4478TIP3    H234850   3.117   0.765   2.600  0.5430  3.0000 -0.5192
 4479TIP3   OH234851   5.835   5.211  11.975 -0.6949 -0.8439  0.5656
 4479TIP3    H134852   5.850   5.262  11.896 -1.6169  1.1119  1.5759
 4479TIP3    H234853   5.741   5.220  11.992 -0.2269  0.5109  2.9340
 4480TIP3   OH234854   5.804   3.018   2.776  0.5467  0.6166  0.5488
 4480TIP3    H134855   5.843   3.020   2.689 -1.0978  1.8783 -0.2188
 4480TIP3    H234856   5.722   2.969   2.764  0.6065  0.2379  1.5518
 4481TIP3   OH234857   1.676   2.699   2.304  0.3663 -0.0999  0.2549
 4481TIP3    H134858   1.636   2.614   2.323 -2.6546  0.6980 -1.8832
 4481TIP3    H234859   1.640   2.758   2.371 -1.1982  0.3495 -0.9170
 4482TIP3   OH234860   2.755   0.788  15.171 -0.3337  0.0223 -0.0720
 4482TIP3    H134861   2.711   0.812  15.253 -1.6509  1.3741 -1.1104
 4482TIP3    H234862   2.751   0.867  15.118 -0.5725 -1.1447 -1.8807
 4483TIP3   OH234863   3.338   5.380   0.843  0.1327  0.1705  0.4916
 4483TIP3    H134864   3.262   5.413   0.796  0.9075  0.2816 -0.7244
 4483TIP3    H234865   3.392   5.457   0.860  0.5952 -0.0754  0.1684
 4484TIP3   OH234866   2.532   1.787  11.852 -0.4480  0.4990  0.5480
 4484TIP3    H134867   2.618   1.816  11.880 -0.8332  1.4080  0.8380
 4484TIP3    H234868   2.549   1.721  11.785  0.4661  0.2026  1.0622
 4485TIP3   OH234869   2.084   4.361  12.047  0.0566 -0.4567 -0.1836
 4485TIP3    H134870   2.070   4.354  11.952  0.0575  0.7414 -0.2960
 4485TIP3    H234871   2.166   4.409  12.056  0.3391 -1.0395  0.4361
 4486TIP3   OH234872   3.331   3.122   5.197 -0.3918  0.0616 -0.2995
 4486TIP3    H134873   3.309   3.061   5.268 -1.3206  0.7526  0.0320
 4486TIP3    H234874   3.272   3.196   5.211 -1.3992 -0.2649 -2.4564
 4487TIP3   OH234875   3.888   3.661   1.640 -0.3603  0.0635  0.2758
 4487TIP3    H134876   3.871   3.570   1.614 -3.1392  0.6759 -0.3828
 4487TIP3    H234877   3.961   3.655   1.702 -0.4557 -2.6124  0.2434
 4488TIP3   OH234878   0.465   4.581   6.485 -0.2457  0.6104  0.6104
 4488TIP3    H134879   0.428   4.620   6.406 -0.8743 -3.5613 -1.4487
 4488TIP3    H234880   0.552   4.551   6.458 -1.5434 -3.4380  0.3604
 4489TIP3   OH234881   2.298   0.104  12.973 -0.1101  0.0488  0.1052
 4489TIP3    H134882   2.354   0.028  12.985  0.2808  0.3059 -0.0701
 4489TIP3    H234883   2.333   0.148  12.895  0.4188  1.0595  0.8943
 4490TIP3   OH234884   3.351   5.938  16.618  0.5156 -0.3004  0.1275
 4490TIP3    H134885   3.441   5.914  16.594 -0.0935 -1.8279 -0.7750
 4490TIP3    H234886   3.308   5.954  16.534 -0.0856  0.3829  0.5527
 4491TIP3   OH234887   1.710   2.247  15.934  0.1581  0.3510  0.0559
 4491TIP3    H134888   1.781   2.311  15.941  0.8717 -0.2703 -1.3023
 4491TIP3    H234889   1.738   2.186  15.867 -2.3411  0.9682 -1.7030
 4492TIP3   OH234890   3.527   6.375  15.443  0.6111 -0.4945  0.4584
 4492TIP3    H134891   3.497   6.322  15.517 -1.5843  1.3209  0.9979
 4492TIP3    H234892   3.517   6.317  15.367 -1.0853 -1.1052  1.0968
 4493TIP3   OH234893   0.451   5.692  17.066  0.2277 -0.7125 -0.0694
 4493TIP3    H134894   0.449   5.610  17.017  1.3417 -1.2763  0.7946
 4493TIP3    H234895   0.472   5.759  17.000 -0.4366 -1.1507 -0.7302
 4494TIP3   OH234896   4.577   5.604   4.990 -0.2342 -0.3209  0.1278
 4494TIP3    H134897   4.651   5.591   5.049 -1.0454  0.5548  1.4071
 4494TIP3    H234898   4.529   5.521   4.994  1.2924 -1.3731 -1.7117
 4495TIP3   OH234899   0.857   3.584   6.200 -0.1919  0.6740 -0.2454
 4495TIP3    H134900   0.855   3.629   6.284  0.0904 -0.2742  0.2912
 4495TIP3    H234901   0.887   3.495   6.222  0.1379  0.4956 -1.3861
 4496TIP3   OH234902   3.760   6.575   4.964  0.1867  0.4212  0.0846
 4496TIP3    H134903   3.764   6.633   4.888 -0.9352  0.0175 -0.3101
 4496TIP3    H234904   3.667   6.559   4.976  0.4314 -0.5824  0.7310
 4497TIP3   OH234905   0.717   1.665   6.097 -0.8046  0.0838  0.4328
 4497TIP3    H134906   0.661   1.742   6.111 -0.4240  0.1902  1.4385
 4497TIP3    H234907   0.770   1.659   6.177 -0.6074 -1.0386  0.2297
 4498TIP3   OH234908   1.890   5.738   3.717 -1.0232  0.0241 -0.3037
 4498TIP3    H134909   1.825   5.778   3.660 -1.8073  0.0110  0.5493
 4498TIP3    H234910   1.904   5.803   3.786  0.0000  0.0932 -0.5724
 4499TIP3   OH234911   6.322   1.615  17.072 -0.0051  0.2312  0.3784
 4499TIP3    H134912   6.411   1.586  17.092 -0.2438 -0.3141  0.6872
 4499TIP3    H234913   6.296   1.669  17.146 -0.2230 -0.2812  0.6824
 4500TIP3   OH234914   3.729   1.445   0.038 -0.2925  0.2343 -0.1413
 4500TIP3    H134915   3.766   1.437  -0.050  0.2896 -0.4172  0.1523
 4500TIP3    H234916   3.742   1.359   0.077 -1.1820  0.3110  0.3447
 4501TIP3   OH234917   6.288   5.254  12.805  0.0787  0.4157 -0.3576
 4501TIP3    H134918   6.228   5.325  12.780 -1.5200 -0.3561  1.1137
 4501TIP3    H234919   6.296   5.201  12.725 -0.8369  0.7819 -0.7066
 4502TIP3   OH234920   6.413   1.465   3.036  0.1524  0.0714 -0.3552
 4502TIP3    H134921   6.490   1.409   3.028  0.4905  0.5489 -0.5432
 4502TIP3    H234922   6.374   1.442   3.120 -0.2886 -1.1397 -0.8660
 4503TIP3   OH234923   0.216   5.945  11.106 -0.3014  0.3736 -0.1869
 4503TIP3    H134924   0.177   5.949  11.193  1.2874  0.8176  0.5489
 4503TIP3    H234925   0.214   6.035  11.074  1.1255  0.6380  0.3686
 4504TIP3   OH234926   4.468   0.860   3.390  0.0010 -0.2239 -0.4943
 4504TIP3    H134927   4.388   0.856   3.338  0.1336 -2.0012 -0.6128
 4504TIP3    H234928   4.538   0.845   3.327  0.3406 -0.0240 -0.1685
 4505TIP3   OH234929   5.692   4.613   2.327  0.5098  0.3947 -0.4439
 4505TIP3    H134930   5.788   4.615   2.325  0.6202 -2.1825 -0.1449
 4505TIP3    H234931   5.667   4.591   2.237  0.2351 -0.0316 -0.2610
 4506TIP3   OH234932   4.853   0.222  16.958 -0.0691 -0.1363  0.3236
 4506TIP3    H134933   4.889   0.242  17.044  0.4072 -1.9881  0.5956
 4506TIP3    H234934   4.816   0.305  16.928  2.2658  1.2873  1.0743
 4507TIP3   OH234935   1.096   3.290   4.420  0.1628 -0.1826  0.5311
 4507TIP3    H134936   1.103   3.349   4.495  1.4920  1.1137 -0.5365
 4507TIP3    H234937   1.033   3.224   4.447 -0.6433  1.1685  2.1642
 4508TIP3   OH234938   5.032   2.611  13.448 -0.1713 -0.0742  0.0378
 4508TIP3    H134939   5.053   2.631  13.539  0.3158  1.1647 -0.3231
 4508TIP3    H234940   5.104   2.556  13.418 -0.3908 -0.5756  0.4312
 4509TIP3   OH234941   5.717   6.368   5.180 -0.2770 -0.4443 -0.2496
 4509TIP3    H134942   5.811   6.359   5.162 -0.2020  0.0348 -0.0970
 4509TIP3    H234943   5.708   6.453   5.223 -0.9311  0.0510 -1.3148
 4510TIP3   OH234944   3.229   3.474   2.771 -0.2415  0.4262  0.0372
 4510TIP3    H134945   3.194   3.392   2.737 -1.2974  0.7481  0.3341
 4510TIP3    H234946   3.206   3.540   2.706  2.2608  0.2384 -1.1743
 4511TIP3   OH234947   0.803   0.461   3.097 -0.3609 -0.1927 -0.7332
 4511TIP3    H134948   0.818   0.402   3.170  1.6558  0.9776 -0.1203
 4511TIP3    H234949   0.794   0.404   3.020 -1.8490 -1.3961  0.2807
 4512TIP3   OH234950   4.360   1.859  14.457  0.0755  0.1229  0.0119
 4512TIP3    H134951   4.389   1.905  14.378  1.0300 -0.7289 -0.1498
 4512TIP3    H234952   4.306   1.787  14.424  2.4666 -1.7539 -0.1033
 4513TIP3   OH234953   2.094   0.650   4.692  0.3922  0.7162  0.1493
 4513TIP3    H134954   2.033   0.703   4.641 -0.7885  0.1510  0.9275
 4513TIP3    H234955   2.046   0.630   4.773  1.9156  0.9324  1.1527
 4514TIP3   OH234956   4.450   2.908  11.436 -0.7508  0.4744  0.3620
 4514TIP3    H134957   4.459   2.816  11.413 -1.9669  0.5042 -0.2963
 4514TIP3    H234958   4.495   2.916  11.520  0.2615 -0.4861 -0.0662
 4515TIP3   OH234959   6.464   0.494  11.642  0.3543 -0.0822 -0.0514
 4515TIP3    H134960   6.436   0.545  11.566 -1.3292  0.9204  1.1614
 4515TIP3    H234961   6.389   0.438  11.662 -0.2787  1.4684  2.3134
 4516TIP3   OH234962   4.745   0.779   5.615 -0.0678  0.0612 -0.4894
 4516TIP3    H134963   4.751   0.867   5.578  0.2043 -0.0141 -0.6224
 4516TIP3    H234964   4.650   0.761   5.618 -0.0922 -0.5168 -2.5923
 4517TIP3   OH234965   4.785   6.703  11.355  0.0563  0.2090 -0.4637
 4517TIP3    H134966   4.823   6.713  11.442  0.9152 -0.3859 -0.7481
 4517TIP3    H234967   4.833   6.767  11.301  0.5781 -0.4539 -0.7992
 4518TIP3   OH234968   0.252   1.437   0.340  0.6360 -0.1032 -0.8276
 4518TIP3    H134969   0.328   1.440   0.398 -1.2365  2.3869  1.8023
 4518TIP3    H234970   0.250   1.347   0.307  1.8761 -1.7255  2.9991
 4519TIP3   OH234971   0.630   0.946   3.631 -0.1586  0.3558  0.4745
 4519TIP3    H134972   0.554   0.914   3.583 -0.2165  1.1050  0.0322
 4519TIP3    H234973   0.631   1.040   3.612  1.6707  0.1542 -0.6993
 4520TIP3   OH234974   2.052   6.002   5.181  0.9090 -0.1346  0.6597
 4520TIP3    H134975   2.067   6.058   5.257  0.8370  1.4282 -0.4336
 4520TIP3    H234976   2.137   5.995   5.138  0.7048 -0.0310  0.2360
 4521TIP3   OH234977   0.742   2.233   3.331  0.5771  0.2247  0.6098
 4521TIP3    H134978   0.684   2.210   3.258 -0.3520 -0.8168  1.6514
 4521TIP3    H234979   0.827   2.197   3.305  0.3910  0.3509 -0.2092
 4522TIP3   OH234980   2.608   4.744  14.350  0.0345 -0.4958  0.1009
 4522TIP3    H134981   2.608   4.828  14.396  1.8641  0.6128 -1.7819
 4522TIP3    H234982   2.520   4.737  14.313  0.1461  1.0715 -0.5240
 4523TIP3   OH234983   2.632   1.608  12.503  0.6945 -0.1448  0.4057
 4523TIP3    H134984   2.594   1.580  12.586  4.6867 -1.0792  2.1739
 4523TIP3    H234985   2.671   1.528  12.467 -2.7015 -0.3227 -3.7111
 4524TIP3   OH234986   5.884   0.678   0.213 -0.1182 -0.4169  0.0885
 4524TIP3    H134987   5.909   0.585   0.208 -1.4577 -0.7854 -0.0355
 4524TIP3    H234988   5.825   0.691   0.139 -0.0152  0.5230  0.1602
 4525TIP3   OH234989   5.133   4.393  13.762  0.2025  0.0138 -0.0533
 4525TIP3    H134990   5.203   4.399  13.826  1.6264  0.2518 -1.5680
 4525TIP3    H234991   5.133   4.478  13.718  0.8664 -0.9031 -1.9404
 4526TIP3   OH234992   2.552   2.765   4.109  0.0092  0.4326 -0.2723
 4526TIP3    H134993   2.475   2.771   4.053  0.8287 -0.3930 -1.5310
 4526TIP3    H234994   2.518   2.736   4.194 -0.8112 -2.5606 -1.5086
 4527TIP3   OH234995   2.665   4.655   1.613  0.5133 -0.1114  0.3146
 4527TIP3    H134996   2.584   4.698   1.641  0.8005  0.4486  0.3057
 4527TIP3    H234997   2.658   4.653   1.517 -0.1226 -1.3413  0.3630
 4528TIP3   OH234998   2.936   5.193  16.073 -0.0954  0.3521  0.2401
 4528TIP3    H134999   2.841   5.200  16.062 -0.4815 -2.4333  1.1533
 4528TIP3    H235000   2.966   5.146  15.996  0.2839 -0.2525  0.7464
 4529TIP3   OH235001   5.757   3.036   0.135  0.1563 -0.3693  0.0373
 4529TIP3    H135002   5.805   2.998   0.062 -0.0206  2.1436 -1.4924
 4529TIP3    H235003   5.678   3.073   0.095 -0.4161  0.2671  1.6633
 4530TIP3   OH235004   6.551   0.032  10.917  0.2376 -0.2883  0.3999
 4530TIP3    H135005   6.635   0.016  10.875  0.4560  0.9183  0.3350
 4530TIP3    H235006   6.556   0.123  10.948 -1.6155  0.4136 -1.0807
 4531TIP3   OH235007   6.264   5.806   4.079  0.2173  0.0069 -0.1430
 4531TIP3    H135008   6.238   5.846   3.996  1.1324  0.7374 -0.1024
 4531TIP3    H235009   6.347   5.762   4.059  0.6802  0.5794  0.4839
 4532TIP3   OH235010   0.051   5.839  13.069 -0.6616 -0.4255 -0.7597
 4532TIP3    H135011   0.128   5.893  13.087 -1.6857  1.2537 -1.1706
 4532TIP3    H235012   0.068   5.756  13.113  1.1869  0.0607 -0.4993
 4533TIP3   OH235013   4.061   0.635   4.077 -0.2673 -0.3122  0.1221
 4533TIP3    H135014   4.095   0.724   4.084  0.0938 -0.4993  0.7751
 4533TIP3    H235015   3.993   0.630   4.144 -0.8677 -0.2752 -0.4685
 4534TIP3   OH235016   4.689   1.085   3.003  0.3195 -0.2776  0.1542
 4534TIP3    H135017   4.648   1.020   2.946 -0.8484  0.2329  0.3936
 4534TIP3    H235018   4.771   1.043   3.031  0.0232 -1.2781 -0.4005
 4535TIP3   OH235019   1.977   2.121   2.031  0.2995  0.0370  0.4933
 4535TIP3    H135020   2.039   2.194   2.029  1.3324 -0.5847  3.6460
 4535TIP3    H235021   1.891   2.163   2.028  0.8554  1.1485 -0.5904
 4536TIP3   OH235022   1.189   2.291  14.233 -0.2105 -0.0015  0.2446
 4536TIP3    H135023   1.110   2.252  14.196  0.5733 -1.2117 -0.1872
 4536TIP3    H235024   1.193   2.256  14.322  1.2599 -2.1602 -0.5927
 4537TIP3   OH235025   4.284   3.983  14.087  0.1331  0.3691 -0.7581
 4537TIP3    H135026   4.245   4.043  14.023  0.8031  1.9548  0.2557
 4537TIP3    H235027   4.222   3.911  14.094 -1.9114  2.0739 -0.2972
 4538TIP3   OH235028   1.749   6.199  10.442  0.8658  0.2317 -0.7806
 4538TIP3    H135029   1.822   6.227  10.386 -0.0255  0.2742 -1.9542
 4538TIP3    H235030   1.671   6.236  10.401  0.1573  0.1051  0.4050
 4539TIP3   OH235031   2.307   3.296  15.609 -0.4639 -0.3276  0.1535
 4539TIP3    H135032   2.222   3.325  15.577 -1.3825 -1.6157  1.3018
 4539TIP3    H235033   2.339   3.369  15.663 -0.0192  0.8448 -1.6016
 4540TIP3   OH235034   2.169   4.597   2.216 -0.0719  0.0896 -0.1108
 4540TIP3    H135035   2.255   4.631   2.242  0.5283  0.2923 -2.1674
 4540TIP3    H235036   2.188   4.538   2.143 -1.8195  1.7324 -2.0256
 4541TIP3   OH235037   4.029   2.256  14.372  0.3082  0.1585  0.4354
 4541TIP3    H135038   4.017   2.306  14.452  0.0735  0.5480  0.1592
 4541TIP3    H235039   3.955   2.282  14.316  1.3769  1.1610 -0.5636
 4542TIP3   OH235040   1.700   4.680  15.618 -0.0597 -0.0061 -0.3763
 4542TIP3    H135041   1.791   4.649  15.612  0.4946  1.4415  0.1055
 4542TIP3    H235042   1.703   4.770  15.585 -2.0770 -1.1190 -4.0498
 4543TIP3   OH235043   0.125   0.588   6.425  0.0794 -0.8272 -0.3942
 4543TIP3    H135044   0.129   0.682   6.409  0.6023 -0.7885 -0.0661
 4543TIP3    H235045   0.045   0.576   6.476  0.0168 -0.5601 -0.4277
 4544TIP3   OH235046   4.526   5.058  16.228 -0.1870  0.1268 -0.1658
 4544TIP3    H135047   4.486   5.113  16.161  2.3357  1.4600 -0.7157
 4544TIP3    H235048   4.615   5.041  16.196 -0.0026 -2.0563  1.2790
 4545TIP3   OH235049   3.543   5.965   5.477  0.4889  0.1038  0.0449
 4545TIP3    H135050   3.449   5.965   5.496  0.4611 -0.2193 -0.0809
 4545TIP3    H235051   3.578   6.037   5.528  0.0769  0.6060 -0.3740
 4546TIP3   OH235052   4.539   2.189  15.525  0.0081  0.2031 -0.4545
 4546TIP3    H135053   4.607   2.222  15.584 -0.7344  0.0405  0.5123
 4546TIP3    H235054   4.566   2.219  15.438  0.6206  1.2727  0.0874
 4547TIP3   OH235055   0.353   5.176  15.757  0.5901 -0.3924 -0.0579
 4547TIP3    H135056   0.312   5.090  15.744 -1.3230  0.6121 -1.0334
 4547TIP3    H235057   0.364   5.211  15.668  0.8966  0.5745  0.3507
 4548TIP3   OH235058   6.313   3.946  11.592 -0.1733 -0.2341 -0.0138
 4548TIP3    H135059   6.294   3.958  11.499 -1.3346 -0.8494  0.1323
 4548TIP3    H235060   6.396   3.898  11.593  0.0454  0.1101 -0.7181
 4549TIP3   OH235061   4.152   5.666  11.104 -0.4159  0.6224  0.5124
 4549TIP3    H135062   4.179   5.615  11.028  1.7522 -0.8289  2.1406
 4549TIP3    H235063   4.154   5.757  11.074  2.2061  0.2487 -0.7074
 4550TIP3   OH235064   4.632   5.793  13.570 -0.1488 -0.2628  0.3209
 4550TIP3    H135065   4.713   5.777  13.521 -1.0493  1.3812 -1.8921
 4550TIP3    H235066   4.628   5.888  13.577 -1.7493 -0.3408  0.6268
 4551TIP3   OH235067   2.883   2.378   6.548  0.1560 -0.4254 -0.5034
 4551TIP3    H135068   2.819   2.448   6.534 -0.0901 -0.7385 -1.0122
 4551TIP3    H235069   2.869   2.319   6.473 -0.5728 -1.7204  0.6164
 4552TIP3   OH235070   6.348   5.738  12.245 -0.2552 -0.4960  0.3623
 4552TIP3    H135071   6.418   5.775  12.192  0.2066 -0.4226  1.0182
 4552TIP3    H235072   6.370   5.645  12.253  0.6837 -0.1625  1.9630
 4553TIP3   OH235073   3.237   1.615   2.653  1.0053 -0.1073  0.3201
 4553TIP3    H135074   3.246   1.709   2.669 -0.0599 -0.0293  0.5487
 4553TIP3    H235075   3.193   1.582   2.732 -1.1050 -0.3108 -0.8595
 4554TIP3   OH235076   5.691   6.339   2.438  0.0832  0.4589  0.0007
 4554TIP3    H135077   5.699   6.256   2.485 -0.9794  0.6607  0.5721
 4554TIP3    H235078   5.663   6.314   2.350  0.2774  0.1839  0.0162
 4555TIP3   OH235079   0.990   2.249   3.480  0.4144 -1.1445  0.5309
 4555TIP3    H135080   1.014   2.206   3.398 -0.3072  2.1015 -1.5688
 4555TIP3    H235081   0.895   2.241   3.484  0.0349  1.4675 -0.8290
 4556TIP3   OH235082   5.198   0.468   1.159 -0.7662  0.0147  0.6882
 4556TIP3    H135083   5.151   0.428   1.086 -2.8625  1.2136  1.2863
 4556TIP3    H235084   5.272   0.513   1.119 -2.6149  1.8150 -0.9588
 4557TIP3   OH235085   1.399   6.129   2.250 -0.3260 -0.0332  0.8030
 4557TIP3    H135086   1.398   6.039   2.283  0.0940 -0.9586 -1.5365
 4557TIP3    H235087   1.491   6.156   2.253 -0.3916  0.1627  1.0943
 4558TIP3   OH235088   2.835   0.958   4.941  0.3984  0.7954 -0.0654
 4558TIP3    H135089   2.885   0.921   5.013  1.5736  0.6006 -0.9460
 4558TIP3    H235090   2.898   0.964   4.869 -0.6827  1.1921 -1.0084
 4559TIP3   OH235091   0.236   1.089   1.628  0.1128  0.7371 -0.4128
 4559TIP3    H135092   0.147   1.114   1.602 -1.1527 -0.4819  2.2841
 4559TIP3    H235093   0.223   1.038   1.708  3.1615 -0.8126 -0.7746
 4560TIP3   OH235094   2.791   6.282   0.007 -0.0993  0.0375 -0.0304
 4560TIP3    H135095   2.818   6.369  -0.023 -0.6109  0.3118  0.2960
 4560TIP3    H235096   2.831   6.272   0.093  0.7270 -0.4356 -0.4570
 4561TIP3   OH235097   2.134   3.972   5.160  0.1352  0.1155 -0.1361
 4561TIP3    H135098   2.216   4.021   5.156  0.6086 -0.6829 -0.5061
 4561TIP3    H235099   2.070   4.029   5.117  0.5042  0.7210  0.0986
 4562TIP3   OH235100   1.027   3.999  14.863 -0.1741 -0.2390 -0.0374
 4562TIP3    H135101   1.017   3.905  14.880  1.1046 -0.0557  2.1533
 4562TIP3    H235102   1.121   4.012  14.854 -0.0605  1.1436  2.3280
 4563TIP3   OH235103   0.762   0.398  11.508 -0.6959 -0.0464  0.3647
 4563TIP3    H135104   0.740   0.474  11.561 -1.2395 -0.2659  0.4546
 4563TIP3    H235105   0.703   0.329  11.539 -0.1382 -0.5378  0.3598
 4564TIP3   OH235106   1.207   4.243  11.493 -0.4854 -0.4109  0.3379
 4564TIP3    H135107   1.176   4.321  11.539  0.3434  1.1775 -1.6345
 4564TIP3    H235108   1.284   4.215  11.542  0.1595  1.0048  0.1919
 4565TIP3   OH235109   2.661   3.159  15.951 -0.1956  0.0232  0.1883
 4565TIP3    H135110   2.698   3.133  15.867 -2.9046  2.4109 -1.9376
 4565TIP3    H235111   2.707   3.240  15.974  1.7743 -1.5070  2.0601
 4566TIP3   OH235112   2.240   5.304  10.705  0.4145 -0.4423  0.4180
 4566TIP3    H135113   2.158   5.343  10.735 -0.6657 -0.8752 -1.7851
 4566TIP3    H235114   2.277   5.262  10.783 -1.9205 -1.0343  1.2698
 4567TIP3   OH235115   6.627   1.098   4.967 -0.0487 -0.0023 -0.3209
 4567TIP3    H135116   6.593   1.119   5.054  1.8086  3.4092 -0.2642
 4567TIP3    H235117   6.572   1.149   4.907 -0.1970 -0.9442 -1.0152
 4568TIP3   OH235118   3.504   5.556   2.725 -0.8448 -0.3679 -0.0133
 4568TIP3    H135119   3.536   5.619   2.790  1.8194 -0.8420 -0.7800
 4568TIP3    H235120   3.490   5.608   2.646 -1.3655 -0.2826  0.1296
 4569TIP3   OH235121   3.927   4.094   3.910  0.4455  0.0532 -0.4638
 4569TIP3    H135122   3.957   4.148   3.983 -0.7998 -0.0189  0.1260
 4569TIP3    H235123   3.915   4.007   3.948 -2.0660  0.4263 -0.2249
 4570TIP3   OH235124   0.467   2.914   5.528 -0.2441  0.1830 -0.5501
 4570TIP3    H135125   0.454   2.999   5.485 -2.2221 -0.3086 -1.0357
 4570TIP3    H235126   0.380   2.873   5.526  0.8205 -2.2251 -1.1416
 4571TIP3   OH235127   3.950   1.830  14.322 -0.1397 -0.0780  0.2109
 4571TIP3    H135128   3.917   1.918  14.300 -0.7507 -0.6423 -1.2424
 4571TIP3    H235129   3.913   1.812  14.409 -3.8760 -0.6808 -1.3113
 4572TIP3   OH235130   0.338   1.255  13.094  0.0218  0.1141  0.3400
 4572TIP3    H135131   0.381   1.184  13.046 -1.2386 -0.0010 -0.6800
 4572TIP3    H235132   0.310   1.216  13.176  1.2352  0.0151  0.7225
 4573TIP3   OH235133   6.084   1.015  15.431 -0.0407  0.3090  0.0192
 4573TIP3    H135134   5.988   1.013  15.426 -0.1566  1.3105  1.4720
 4573TIP3    H235135   6.105   0.956  15.503  0.4843 -0.3430 -0.6591
 4574TIP3   OH235136   6.528   0.677  16.168 -0.3564 -0.2755 -0.2357
 4574TIP3    H135137   6.607   0.625  16.153 -1.0953 -2.0424  1.5386
 4574TIP3    H235138   6.546   0.726  16.248 -0.2489  1.0876 -1.0647
 4575TIP3   OH235139   4.385   0.908  11.079 -0.1226  0.0216  0.6843
 4575TIP3    H135140   4.296   0.918  11.044  0.1579  1.8235  0.3641
 4575TIP3    H235141   4.442   0.922  11.004  0.4436 -0.8267  0.9487
 4576TIP3   OH235142   2.316   2.521   4.082 -0.2205 -0.3958  0.1179
 4576TIP3    H135143   2.222   2.516   4.100  0.1942 -0.0885  2.9106
 4576TIP3    H235144   2.327   2.599   4.028 -1.4938 -0.0462  0.3485
 4577TIP3   OH235145   2.491   0.499  11.646 -0.7464  0.3109 -0.2434
 4577TIP3    H135146   2.399   0.481  11.627 -1.4149  0.5791  2.2633
 4577TIP3    H235147   2.540   0.460  11.574 -2.5596 -4.1859  0.6193
 4578TIP3   OH235148   6.686   2.538  11.428 -0.5225  0.8815  0.2629
 4578TIP3    H135149   6.619   2.518  11.493 -0.2189 -0.3776  0.2197
 4578TIP3    H235150   6.665   2.482  11.353  0.6399  0.3366  0.3067
 4579TIP3   OH235151   3.808   3.492   4.133 -0.0200  0.9089 -0.1099
 4579TIP3    H135152   3.879   3.526   4.187  0.2434  0.2677 -0.0418
 4579TIP3    H235153   3.780   3.567   4.079  1.1016  1.0148 -0.5614
 4580TIP3   OH235154   6.542   2.751   6.781 -0.6390  0.3797  0.2872
 4580TIP3    H135155   6.532   2.801   6.700 -0.9944 -0.0025  0.0954
 4580TIP3    H235156   6.627   2.706   6.771 -0.4076  0.7884  0.3806
 4581TIP3   OH235157   2.160   3.280   1.460 -0.0964  0.2981 -0.4220
 4581TIP3    H135158   2.128   3.216   1.396 -0.5348 -0.5674  0.6314
 4581TIP3    H235159   2.255   3.281   1.447 -0.2436  0.6594 -1.5483
 4582TIP3   OH235160   0.295   5.396  11.850 -0.2346 -0.0106  0.2516
 4582TIP3    H135161   0.379   5.442  11.843 -0.5732  0.6928  0.6478
 4582TIP3    H235162   0.318   5.308  11.879  0.4152 -0.0409 -0.3193
 4583TIP3   OH235163   2.390   4.072   3.054  0.0480 -0.6943  0.3324
 4583TIP3    H135164   2.396   4.019   3.133 -1.4715 -1.8548 -0.2692
 4583TIP3    H235165   2.441   4.023   2.989  0.8188 -0.0396  0.4315
 4584TIP3   OH235166   1.590   5.678  13.206  0.3335  0.2369 -0.3798
 4584TIP3    H135167   1.600   5.606  13.143  0.7884  0.6124 -0.7344
 4584TIP3    H235168   1.619   5.641  13.289  1.2686  0.2260 -0.7029
 4585TIP3   OH235169   4.998   5.110  11.269  0.3462 -0.6979 -0.3475
 4585TIP3    H135170   4.936   5.182  11.263 -0.1805 -1.1166 -0.0336
 4585TIP3    H235171   5.084   5.151  11.257  0.0457 -0.0387 -0.2722
 4586TIP3   OH235172   0.254   1.582  14.458  0.1776  0.0516 -0.0133
 4586TIP3    H135173   0.225   1.662  14.502  1.7753  0.8660 -0.3983
 4586TIP3    H235174   0.227   1.593  14.367 -1.5721 -0.8704  0.3391
 4587TIP3   OH235175   3.569   2.078   2.985  0.3325 -0.3390 -0.5569
 4587TIP3    H135176   3.659   2.058   3.010 -0.1397 -1.4696  0.3668
 4587TIP3    H235177   3.532   1.993   2.959 -0.7882 -0.1106  0.1993
 4588TIP3   OH235178   6.096   5.954  11.140  0.6422  0.7557 -0.1136
 4588TIP3    H135179   6.097   5.963  11.235 -0.9013 -2.2640  0.2950
 4588TIP3    H235180   6.048   6.032  11.110 -1.9548  0.0820  1.9382
 4589TIP3   OH235181   4.245   2.683   1.459  0.6353 -0.2566 -0.4171
 4589TIP3    H135182   4.285   2.602   1.428  0.6437 -0.8673  1.0873
 4589TIP3    H235183   4.261   2.683   1.553 -1.5687  0.2058  0.0269
 4590TIP3   OH235184   2.742   3.011  13.827 -0.3681 -0.1248 -0.1478
 4590TIP3    H135185   2.716   2.928  13.785 -1.9272  0.6708 -0.8439
 4590TIP3    H235186   2.680   3.021  13.899  0.5368 -0.1038  0.6411
 4591TIP3   OH235187   4.078   0.132   3.850  0.2899 -0.2054  0.2482
 4591TIP3    H135188   4.087   0.181   3.768 -3.4504  0.6678  0.2088
 4591TIP3    H235189   4.076   0.199   3.918 -0.6904 -0.6017  0.6215
 4592TIP3   OH235190   6.608   5.420   3.603  0.1368  0.3316  0.4946
 4592TIP3    H135191   6.611   5.460   3.690  0.2597  0.1260  0.5861
 4592TIP3    H235192   6.698   5.422   3.572 -0.0565  1.3232 -0.0551
 4593TIP3   OH235193   3.357   5.800  11.487 -0.6031  0.0049  0.8977
 4593TIP3    H135194   3.287   5.736  11.504 -1.6098  1.0269  0.6920
 4593TIP3    H235195   3.383   5.831  11.574 -0.4184 -0.3582  0.9737
 4594TIP3   OH235196   0.182   0.753   1.333  0.6142 -0.4652  0.0715
 4594TIP3    H135197   0.237   0.682   1.300 -1.9600 -3.0031  0.8089
 4594TIP3    H235198   0.226   0.785   1.411  2.7412  0.1281 -1.2772
 4595TIP3   OH235199   4.573   3.392   0.921  0.2065  0.0486 -0.1706
 4595TIP3    H135200   4.626   3.394   0.841 -0.8083  0.2444 -0.8585
 4595TIP3    H235201   4.485   3.371   0.891  0.0751 -1.3944  1.0728
 4596TIP3   OH235202   5.209   2.297   3.145 -0.2873  0.5941  0.3239
 4596TIP3    H135203   5.268   2.222   3.141  1.0119  1.5011  1.3248
 4596TIP3    H235204   5.247   2.361   3.084 -1.0765  0.6496 -0.1212
 4597TIP3   OH235205   5.038   2.726  13.699  0.5262 -0.2720 -0.2710
 4597TIP3    H135206   5.030   2.716  13.793 -0.5125  0.1113 -0.3045
 4597TIP3    H235207   5.104   2.794  13.687 -0.1123  0.4430  0.2140
 4598TIP3   OH235208   3.829   2.892   5.662 -0.5692 -0.5561  0.2543
 4598TIP3    H135209   3.907   2.840   5.682 -0.4146  0.3054  2.0640
 4598TIP3    H235210   3.845   2.924   5.573  0.6388 -1.2612  0.1835
 4599TIP3   OH235211   1.407   6.569  13.515 -0.1174  0.0403 -0.2652
 4599TIP3    H135212   1.452   6.495  13.475 -1.4388 -0.3289 -1.1287
 4599TIP3    H235213   1.325   6.533  13.548  0.5272  0.5243  2.0738
 4600TIP3   OH235214   2.988   1.008   5.601 -0.3410  0.1495  0.4233
 4600TIP3    H135215   3.054   1.024   5.533 -0.3912 -1.4445 -0.0519
 4600TIP3    H235216   2.912   0.974   5.554 -0.7498 -0.0139  1.1807
 4601TIP3   OH235217   0.322   0.350   6.167 -0.0046 -0.1579 -0.3789
 4601TIP3    H135218   0.319   0.417   6.235  0.5948 -0.7863  0.2861
 4601TIP3    H235219   0.411   0.356   6.131  0.1173 -0.7096 -0.1828
 4602TIP3   OH235220   2.403   2.536   6.024 -0.2889 -0.0167  0.2032
 4602TIP3    H135221   2.310   2.523   6.008 -0.1537  0.6274 -1.2656
 4602TIP3    H235222   2.407   2.581   6.109 -1.1864 -1.5840  1.1209
 4603TIP3   OH235223   5.180   4.975  11.771  0.4535  0.5986  0.2008
 4603TIP3    H135224   5.165   4.984  11.677 -0.7430  2.2105  0.5033
 4603TIP3    H235225   5.189   4.881  11.785  0.6248  0.3325 -1.5184
 4604TIP3   OH235226   4.351   2.183   1.436 -0.4681 -0.4061  0.5160
 4604TIP3    H135227   4.334   2.122   1.508  1.9382 -2.3056 -0.4106
 4604TIP3    H235228   4.316   2.139   1.359 -0.8797  0.5498  0.1327
 4605TIP3   OH235229   5.478   0.500   2.122  0.4285 -0.5509 -0.3517
 4605TIP3    H135230   5.399   0.531   2.167  0.6627 -1.2219  0.5299
 4605TIP3    H235231   5.500   0.418   2.165  0.8580 -1.0464 -1.4699
 4606TIP3   OH235232   2.966   0.659   4.959  0.7814 -0.9222 -0.2777
 4606TIP3    H135233   2.930   0.701   5.037  0.8789 -3.0640  1.0327
 4606TIP3    H235234   2.891   0.646   4.901  0.7450  0.8823 -0.6982
 4607TIP3   OH235235   3.842   3.343   0.507 -0.0460 -0.7190 -0.1278
 4607TIP3    H135236   3.773   3.332   0.442  0.9162 -1.3690 -1.0767
 4607TIP3    H235237   3.879   3.255   0.518 -0.5628 -0.7440  1.7544
 4608TIP3   OH235238   2.548   3.629   0.836  0.4060  0.4627 -0.1157
 4608TIP3    H135239   2.517   3.628   0.745 -1.9125  0.8416  0.5916
 4608TIP3    H235240   2.504   3.555   0.877  0.7738  0.7893  0.8862
 4609TIP3   OH235241   3.128   1.414  13.631 -0.2072 -0.1639 -0.1439
 4609TIP3    H135242   3.155   1.323  13.625  1.2517  0.3397 -2.1833
 4609TIP3    H235243   3.148   1.451  13.545  1.4669  2.6677  1.3121
 4610TIP3   OH235244   2.606   5.935   3.578  0.3091  0.3912 -0.1490
 4610TIP3    H135245   2.554   5.948   3.657  1.9954 -0.4537  1.1509
 4610TIP3    H235246   2.541   5.925   3.508 -1.2233  4.2633  0.4957
 4611TIP3   OH235247   5.939   4.957   6.165 -0.2843  0.5141 -0.3133
 4611TIP3    H135248   5.959   4.930   6.075  2.9282 -1.2761  0.7521
 4611TIP3    H235249   6.010   5.017   6.189 -0.0189 -0.4461  1.5395
 4612TIP3   OH235250   6.372   2.727  13.248 -0.2559  0.1022 -0.2782
 4612TIP3    H135251   6.458   2.734  13.288 -1.4129  0.5710  2.3905
 4612TIP3    H235252   6.379   2.653  13.187  2.3365  0.9914 -1.1693
 4613TIP3   OH235253   6.509   5.277   2.495  0.3473  0.1924 -0.5182
 4613TIP3    H135254   6.424   5.238   2.472 -1.3021  2.9569  0.4577
 4613TIP3    H235255   6.548   5.214   2.556 -1.4587 -0.6541 -0.1724
 4614TIP3   OH235256   0.503   2.142   6.623 -0.0935 -0.4098 -1.0475
 4614TIP3    H135257   0.568   2.164   6.689 -0.2628 -1.2546 -0.5814
 4614TIP3    H235258   0.442   2.215   6.623 -0.5723 -0.7741  0.3517
 4615TIP3   OH235259   5.849   3.817  14.828  0.0120 -0.0388 -0.2628
 4615TIP3    H135260   5.934   3.779  14.806  1.1023  1.5107  1.0188
 4615TIP3    H235261   5.850   3.828  14.923 -0.0514  3.3354 -0.5144
 4616TIP3   OH235262   2.176   6.629  17.175  0.1230  0.0002  0.0917
 4616TIP3    H135263   2.144   6.544  17.147  1.5658 -0.3980 -0.4496
 4616TIP3    H235264   2.196   6.675  17.093  1.0697  0.1546  0.3969
 4617TIP3   OH235265   0.555   1.926   1.395  0.0989 -0.8217 -0.0979
 4617TIP3    H135266   0.495   1.892   1.462  0.0027 -0.3971  0.0367
 4617TIP3    H235267   0.590   1.849   1.352  1.4106 -1.1781  1.5126
 4618TIP3   OH235268   3.511   6.632  15.384  0.0134  0.6250  0.1188
 4618TIP3    H135269   3.517   6.536  15.392  1.0637  0.4874 -1.6865
 4618TIP3    H235270   3.507   6.663  15.474 -1.5156 -1.1633  0.7433
 4619TIP3   OH235271   6.622   2.396  14.358  0.4842 -0.4059 -0.6854
 4619TIP3    H135272   6.594   2.469  14.302 -1.9693 -0.0225  0.8897
 4619TIP3    H235273   6.604   2.318  14.306  1.1416  0.0116 -1.5764
 4620TIP3   OH235274   2.761   6.189   4.688 -0.0720 -0.1081 -0.5638
 4620TIP3    H135275   2.830   6.239   4.644 -0.3923  1.8556  1.0670
 4620TIP3    H235276   2.807   6.122   4.738  0.6097  0.6298 -0.1921
 4621TIP3   OH235277   5.866   5.769   5.243 -0.1411 -0.0626 -0.0592
 4621TIP3    H135278   5.837   5.848   5.289 -1.5477  0.6331 -1.9654
 4621TIP3    H235279   5.931   5.800   5.180 -1.0115 -0.3068 -1.1120
 4622TIP3   OH235280   0.084   6.400   2.004  0.4590 -0.2490  0.1317
 4622TIP3    H135281  -0.011   6.405   2.013  0.1274  0.0523 -2.7432
 4622TIP3    H235282   0.111   6.490   1.985  1.1113 -0.5864 -0.5723
 4623TIP3   OH235283   3.328   6.151   2.775 -0.0459  0.2235  0.4501
 4623TIP3    H135284   3.354   6.243   2.769 -1.8978  0.8984  1.7982
 4623TIP3    H235285   3.334   6.131   2.869 -1.9828 -0.2614  0.5103
 4624TIP3   OH235286   2.180   6.285  13.152  0.4969  0.2238  0.2046
 4624TIP3    H135287   2.134   6.365  13.179  0.1572 -0.0083  0.3194
 4624TIP3    H235288   2.239   6.266  13.225  0.4880  0.3003  0.2326
 4625TIP3   OH235289   5.776   4.835  11.731  0.0120  0.3431 -0.0459
 4625TIP3    H135290   5.762   4.866  11.642  0.5118  0.2460 -0.1637
 4625TIP3    H235291   5.772   4.739  11.724 -0.0660  0.3387  0.0556
 4626TIP3   OH235292   1.238   5.316  12.338  0.2746  0.1546  0.5388
 4626TIP3    H135293   1.176   5.301  12.409  1.2096 -1.0484  1.1395
 4626TIP3    H235294   1.255   5.410  12.341 -0.7232  0.3324  1.0240
 4627TIP3   OH235295   1.587   0.511   4.938 -0.3045  0.4511  0.0189
 4627TIP3    H135296   1.645   0.469   5.002 -0.4527  0.0628 -0.1015
 4627TIP3    H235297   1.575   0.600   4.972  1.9109  1.1927 -0.9452
 4628TIP3   OH235298   1.374   3.570   2.537 -0.1215 -0.3275 -0.0180
 4628TIP3    H135299   1.428   3.519   2.598  0.1460 -0.2202 -0.1638
 4628TIP3    H235300   1.331   3.636   2.593 -0.5006 -0.7312  0.1766
 4629TIP3   OH235301   0.412   0.073  17.084  0.0317 -0.7778 -0.3180
 4629TIP3    H135302   0.495   0.054  17.129  0.8522  0.8186 -1.0648
 4629TIP3    H235303   0.345   0.033  17.139  1.2667 -1.8340  0.4822
 4630TIP3   OH235304   3.347   4.842  10.604 -0.0605  0.6379 -0.4305
 4630TIP3    H135305   3.289   4.766  10.610 -0.7113  1.2023  0.7000
 4630TIP3    H235306   3.317   4.901  10.673  0.3443  2.0022 -1.3887
 4631TIP3   OH235307   5.616   3.301  11.705 -0.8106 -0.6286 -0.1257
 4631TIP3    H135308   5.665   3.381  11.684 -0.5207 -0.5356  0.8515
 4631TIP3    H235309   5.679   3.247  11.753 -1.1833 -1.2012 -0.2739
 4632TIP3   OH235310   3.720   0.858  11.373  0.2292 -0.3644  0.2006
 4632TIP3    H135311   3.743   0.767  11.390 -0.0945 -0.2851  1.1046
 4632TIP3    H235312   3.761   0.878  11.289 -1.2183 -1.9009 -0.9477
 4633TIP3   OH235313   6.641   0.573  11.410 -0.3376  0.0071 -0.4312
 4633TIP3    H135314   6.577   0.626  11.362  0.2763  0.6129 -0.5960
 4633TIP3    H235315   6.690   0.636  11.462 -1.9849 -0.7805  2.2388
 4634TIP3   OH235316   6.333   6.726   1.083 -0.0448 -0.1109 -0.1647
 4634TIP3    H135317   6.302   6.732   0.992 -0.1175  0.9889 -0.0829
 4634TIP3    H235318   6.285   6.651   1.119 -0.6389 -0.0523 -0.7978
 4635TIP3   OH235319   6.161   0.107   3.668  0.4844 -0.3211 -0.1846
 4635TIP3    H135320   6.144   0.115   3.762 -0.2492 -2.4381 -0.0903
 4635TIP3    H235321   6.239   0.053   3.662  0.7956  0.1808 -0.8116
 4636TIP3   OH235322   3.082   1.297   4.777 -0.6662 -0.9108  0.4022
 4636TIP3    H135323   3.098   1.208   4.746 -1.2519 -1.0328  0.4374
 4636TIP3    H235324   2.987   1.304   4.780 -0.6216 -0.1549  0.0387
 4637TIP3   OH235325   0.250   0.279   0.542 -1.0905 -0.5416  0.2027
 4637TIP3    H135326   0.279   0.288   0.451 -0.5152 -0.5922  0.3746
 4637TIP3    H235327   0.164   0.320   0.544 -0.3336  1.1563  0.0467
 4638TIP3   OH235328   3.728   0.389  14.818  0.5728  0.5848 -0.0623
 4638TIP3    H135329   3.787   0.332  14.867  1.5510  0.5859 -1.2000
 4638TIP3    H235330   3.784   0.459  14.786 -0.3925  1.5392  0.2980
 4639TIP3   OH235331   5.566   4.483  11.232 -0.4144 -0.2391  0.3010
 4639TIP3    H135332   5.629   4.555  11.235 -1.2560  0.5059  0.4575
 4639TIP3    H235333   5.492   4.518  11.183 -0.0477 -1.6555 -1.3596
 4640TIP3   OH235334   0.860   2.763  15.981 -0.2435  0.4137  0.0416
 4640TIP3    H135335   0.926   2.795  16.042 -0.1812  0.7487 -0.1994
 4640TIP3    H235336   0.794   2.832  15.979  0.0518  0.6871 -0.7278
 4641TIP3   OH235337   3.106   6.250   5.065 -0.2895  0.2914  0.0131
 4641TIP3    H135338   3.159   6.294   4.998  0.1322  0.6625  0.5829
 4641TIP3    H235339   3.019   6.290   5.056  0.0563  1.1837  0.4418
 4642TIP3   OH235340   3.747   5.841  15.463  0.3655  1.1764  0.1044
 4642TIP3    H135341   3.723   5.921  15.416  1.6447  2.0374  0.8488
 4642TIP3    H235342   3.682   5.776  15.435  0.6713  1.8186 -2.2803
 4643TIP3   OH235343   4.639   5.001   3.364  0.6849 -0.5663 -0.7749
 4643TIP3    H135344   4.587   5.070   3.406 -1.3054 -1.6625 -1.3006
 4643TIP3    H235345   4.631   4.926   3.423  3.1522 -0.3218 -0.0055
 4644TIP3   OH235346   2.836   3.493  14.329  0.2760  0.1540  0.4242
 4644TIP3    H135347   2.909   3.553  14.346  0.0645  0.7301 -0.6253
 4644TIP3    H235348   2.800   3.475  14.416  0.0295  1.9452  0.7414
 4645TIP3   OH235349   1.973   6.511  12.890  0.4237 -0.2047 -0.8215
 4645TIP3    H135350   1.889   6.475  12.917 -0.3976  0.0239 -2.9093
 4645TIP3    H235351   2.013   6.543  12.971 -1.2891 -0.6984  0.2652
 4646TIP3   OH235352   3.548   6.098   5.935  0.6132 -0.1220  0.1986
 4646TIP3    H135353   3.640   6.127   5.933  0.5987 -0.0410  0.7024
 4646TIP3    H235354   3.510   6.143   6.011  0.6094 -1.5137  1.0533
 4647TIP3   OH235355   2.920   3.655  13.445 -0.2824 -0.5376 -0.0611
 4647TIP3    H135356   2.959   3.708  13.376 -0.6066  2.3519  1.8106
 4647TIP3    H235357   2.826   3.659  13.428 -0.2235 -2.1026 -0.9184
 4648TIP3   OH235358   2.317   0.208   2.815 -0.1597 -0.3984 -0.0294
 4648TIP3    H135359   2.239   0.184   2.865 -0.6122  1.8526  0.4538
 4648TIP3    H235360   2.380   0.140   2.836 -1.1656 -0.8980  1.6219
 4649TIP3   OH235361   5.875   4.215  11.185  0.1259 -0.3534  0.2451
 4649TIP3    H135362   5.821   4.137  11.175 -0.7004  0.0971  1.0972
 4649TIP3    H235363   5.868   4.260  11.100  0.5566 -1.1548 -0.2237
 4650TIP3   OH235364   3.545   4.116   0.330 -0.5410  0.3537  0.6512
 4650TIP3    H135365   3.540   4.090   0.422  0.0769 -0.2458  0.5191
 4650TIP3    H235366   3.630   4.159   0.322 -0.0577 -0.6830  0.0940
 4651TIP3   OH235367   0.231   1.415   3.852  0.4527  0.3358  0.5677
 4651TIP3    H135368   0.148   1.392   3.892  0.5333 -0.2792  0.3992
 4651TIP3    H235369   0.274   1.472   3.915 -0.0518  0.5669  0.6992
 4652TIP3   OH235370   6.086   5.454   1.927 -0.0345  0.1500 -0.6609
 4652TIP3    H135371   6.180   5.450   1.941  0.4015 -0.1365 -3.2191
 4652TIP3    H235372   6.052   5.373   1.965  0.9261 -0.3467 -0.8416
 4653TIP3   OH235373   0.481   4.851   1.742  0.4391 -0.4948 -0.3104
 4653TIP3    H135374   0.508   4.919   1.804  1.5700 -1.9915  0.9401
 4653TIP3    H235375   0.564   4.814   1.711 -0.1607 -1.5653 -0.6529
 4654TIP3   OH235376   4.208   4.222   0.017 -0.0033  0.9370 -0.1916
 4654TIP3    H135377   4.132   4.280   0.025 -0.2546  0.5263  0.6198
 4654TIP3    H235378   4.272   4.272  -0.034 -0.8391  1.2688 -0.9262
 4655TIP3   OH235379   0.385   5.040  15.411 -0.1003  0.1565 -0.2280
 4655TIP3    H135380   0.469   5.031  15.365  0.2698 -0.3258  0.5203
 4655TIP3    H235381   0.376   4.958  15.460 -0.2849  0.8120  0.8626
 4656TIP3   OH235382   1.048   3.166  12.145  0.3538 -0.0487  0.7429
 4656TIP3    H135383   0.959   3.131  12.137 -0.0834  1.3201 -0.7740
 4656TIP3    H235384   1.091   3.142  12.063  1.2751 -0.3187  1.2849
 4657TIP3   OH235385   2.566   4.124  11.569  0.2505  0.9500 -0.5189
 4657TIP3    H135386   2.528   4.096  11.486  0.9043  0.6440 -0.7162
 4657TIP3    H235387   2.543   4.054  11.631 -0.3288  1.2298 -0.4119
 4658TIP3   OH235388   0.505   6.004   0.563 -0.4129  0.4345  0.0847
 4658TIP3    H135389   0.490   6.004   0.468  0.8724  0.8427 -0.1428
 4658TIP3    H235390   0.598   5.984   0.572 -0.4925  0.5493  1.2635
 4659TIP3   OH235391   1.954   1.087  16.985 -0.0480  0.4603  0.6395
 4659TIP3    H135392   1.996   1.001  16.975  0.6488  0.6731  1.5247
 4659TIP3    H235393   1.869   1.068  17.024 -0.4117  0.0826 -0.3283
 4660TIP3   OH235394   5.395   0.475   3.390  0.2343 -0.2294 -0.3027
 4660TIP3    H135395   5.395   0.393   3.341  0.0648 -0.8835  0.7539
 4660TIP3    H235396   5.461   0.462   3.458  2.3592  1.6382 -1.8612
 4661TIP3   OH235397   1.798   6.629  11.691 -0.5444  0.2984 -0.9263
 4661TIP3    H135398   1.849   6.577  11.628 -0.9643  0.9776 -1.8495
 4661TIP3    H235399   1.711   6.588  11.690 -0.5183  0.2379 -0.6966
 4662TIP3   OH235400   5.249   3.705  16.996 -0.0403  0.2879 -0.0303
 4662TIP3    H135401   5.275   3.624  17.041  0.5384  0.0416 -0.7826
 4662TIP3    H235402   5.182   3.743  17.053 -0.3671 -0.7481  0.3141
 4663TIP3   OH235403   4.103   6.598  15.497 -0.0580  0.6825 -0.0026
 4663TIP3    H135404   4.058   6.553  15.425 -2.3431  0.8788  1.2015
 4663TIP3    H235405   4.083   6.690  15.484 -1.6830  0.6071  1.5667
 4664TIP3   OH235406   4.176   1.147   4.327  0.4335 -1.2294 -0.1879
 4664TIP3    H135407   4.223   1.126   4.247 -0.6221  1.2103 -1.5320
 4664TIP3    H235408   4.187   1.241   4.339 -2.2564 -0.9144  0.5951
 4665TIP3   OH235409   6.522   3.744  17.030 -0.5576  0.0187 -0.4179
 4665TIP3    H135410   6.586   3.695  17.082 -1.0370  1.3151  1.5439
 4665TIP3    H235411   6.563   3.755  16.945  1.0649 -0.7283  0.2271
 4666TIP3   OH235412   4.542   1.524  14.692 -0.2272 -0.4547  0.2167
 4666TIP3    H135413   4.615   1.581  14.717  0.3065 -1.4587  0.9994
 4666TIP3    H235414   4.465   1.580  14.703  0.3832  0.5321 -0.3575
 4667TIP3   OH235415   2.628   0.788   5.945  0.0942 -0.2651 -0.0063
 4667TIP3    H135416   2.602   0.703   5.908 -0.3132  0.0297 -0.4186
 4667TIP3    H235417   2.635   0.773   6.039 -0.1861 -0.7020 -0.0539
 4668TIP3   OH235418   1.219   5.716   5.276 -0.0194  0.4341 -0.0246
 4668TIP3    H135419   1.164   5.638   5.270 -0.4499  0.7282  0.0538
 4668TIP3    H235420   1.215   5.755   5.188  1.6997 -0.6262 -0.6258
 4669TIP3   OH235421   1.290   4.900  16.466  0.3737 -0.3721 -0.3997
 4669TIP3    H135422   1.209   4.904  16.414  0.1290 -1.2789 -0.1082
 4669TIP3    H235423   1.352   4.955  16.418  0.0723 -0.9696 -1.5203
 4670TIP3   OH235424   0.709   3.778   6.076 -0.1189 -0.5247 -0.0006
 4670TIP3    H135425   0.745   3.709   6.133  0.0168  0.3916  1.0558
 4670TIP3    H235426   0.710   3.739   5.988  1.3513 -1.3335  0.3348
 4671TIP3   OH235427   0.524   2.223  14.697 -0.0741 -0.6731  0.0233
 4671TIP3    H135428   0.583   2.277  14.749  0.1655  0.8287 -1.6859
 4671TIP3    H235429   0.474   2.172  14.761  2.1198 -1.0078  1.5627
 4672TIP3   OH235430   3.246   0.078   3.660  0.0900 -0.1651 -0.1776
 4672TIP3    H135431   3.280   0.146   3.603 -1.1404 -1.5318 -2.7103
 4672TIP3    H235432   3.200   0.126   3.729 -2.9555  1.7717 -3.2240
 4673TIP3   OH235433   4.082   5.665  15.787  0.0789 -0.3471  0.0338
 4673TIP3    H135434   4.142   5.719  15.736  1.2171 -0.0132  1.6616
 4673TIP3    H235435   3.998   5.674  15.741  1.3632 -1.5271 -2.8164
 4674TIP3   OH235436   6.198   3.815  12.195  0.4220 -0.1822  0.5905
 4674TIP3    H135437   6.251   3.797  12.117  1.1509  0.5039  0.9143
 4674TIP3    H235438   6.108   3.822  12.163  0.5658 -1.0197 -0.0191
 4675TIP3   OH235439   4.611   5.929   3.138 -0.3439  0.2302  0.1870
 4675TIP3    H135440   4.516   5.926   3.143 -0.3412  1.3987  2.9986
 4675TIP3    H235441   4.639   5.948   3.227  2.4940  0.8078 -0.7142
 4676TIP3   OH235442   5.864   1.165  12.558  0.8822 -0.2698  0.8178
 4676TIP3    H135443   5.918   1.233  12.517 -0.4458 -0.3644 -1.2584
 4676TIP3    H235444   5.854   1.099  12.491 -2.1012 -0.0597  0.9341
 4677TIP3   OH235445   6.285   5.021   3.220  0.2246  0.0363  0.6137
 4677TIP3    H135446   6.323   5.056   3.139 -1.1931 -0.2198 -0.2063
 4677TIP3    H235447   6.275   4.927   3.203 -0.7455  0.0961  0.7932
 4678TIP3   OH235448   4.475   5.321   5.405  0.2146  0.6499  0.2525
 4678TIP3    H135449   4.497   5.256   5.471 -1.1063 -1.1979 -0.9979
 4678TIP3    H235450   4.557   5.365   5.384  0.8905  0.3284  2.0842
 4679TIP3   OH235451   1.254   3.321  12.836  0.3786 -0.0025  0.2556
 4679TIP3    H135452   1.209   3.307  12.752 -1.3698  1.8479  0.7916
 4679TIP3    H235453   1.342   3.287  12.822 -0.1505 -0.6485 -2.0051
 4680TIP3   OH235454   6.124   0.157   5.117  0.3916 -0.3589  0.4934
 4680TIP3    H135455   6.069   0.234   5.133 -0.2234 -0.3757 -1.3354
 4680TIP3    H235456   6.067   0.083   5.139  0.4991 -0.3320  0.8730
 4681TIP3   OH235457   6.137   4.848  16.486  0.5449 -0.1090 -0.0072
 4681TIP3    H135458   6.155   4.758  16.512 -0.3725 -0.2291  0.2343
 4681TIP3    H235459   6.193   4.901  16.542  3.3235 -0.5971 -2.0857
 4682TIP3   OH235460   6.395   3.582   0.132 -0.4622 -0.5431  0.0731
 4682TIP3    H135461   6.446   3.526   0.075 -0.7751 -2.2393  1.3843
 4682TIP3    H235462   6.455   3.608   0.202 -0.8683 -1.0089  0.6098
 4683TIP3   OH235463   6.723   4.884   0.946 -0.2250 -0.1667 -0.0998
 4683TIP3    H135464   6.685   4.881   0.858 -1.6467  0.2887  0.4740
 4683TIP3    H235465   6.781   4.808   0.950 -0.3535 -0.3449 -1.3264
 4684TIP3   OH235466   4.981   2.874  12.385 -0.2223  0.3552  0.1749
 4684TIP3    H135467   4.997   2.936  12.455 -0.7553 -0.8518  1.4136
 4684TIP3    H235468   5.041   2.802  12.401 -1.6750 -0.8299  0.5831
 4685TIP3   OH235469   3.139   4.487  13.356 -0.0109  0.6077 -0.4723
 4685TIP3    H135470   3.202   4.424  13.391 -1.1128  0.3669  1.1667
 4685TIP3    H235471   3.077   4.434  13.306 -1.2355  0.2342  1.3291
 4686TIP3   OH235472   5.537   1.044  15.462  0.1226  0.2175 -0.8886
 4686TIP3    H135473   5.561   1.070  15.552  3.8018 -1.4973 -1.1656
 4686TIP3    H235474   5.450   1.006  15.471  0.7365 -0.8338  2.2594
 4687TIP3   OH235475   4.321   3.835  16.133 -0.6163 -0.1110  0.3791
 4687TIP3    H135476   4.285   3.747  16.140 -2.3225  0.6540  2.0675
 4687TIP3    H235477   4.414   3.822  16.114 -1.2288 -2.2075 -1.6508
 4688TIP3   OH235478   3.188   2.069   4.585  0.3659 -0.2055  0.0342
 4688TIP3    H135479   3.237   2.152   4.581  0.6154 -0.3525  0.0324
 4688TIP3    H235480   3.221   2.018   4.512  0.4031 -0.4127  0.1946
 4689TIP3   OH235481   5.154   5.267   3.370  0.1115  0.5163 -0.4521
 4689TIP3    H135482   5.118   5.304   3.290  2.0366 -2.1983 -2.7768
 4689TIP3    H235483   5.104   5.188   3.386 -0.0166  0.8349  0.8689
 4690TIP3   OH235484   4.170   3.457   2.127  0.4851 -0.1158 -0.0057
 4690TIP3    H135485   4.090   3.455   2.180  1.6619  1.6821  2.0434
 4690TIP3    H235486   4.194   3.365   2.116 -1.1942 -0.6418  0.3731
 4691TIP3   OH235487   5.502   2.827  14.861 -0.4825 -0.1357 -0.1929
 4691TIP3    H135488   5.549   2.822  14.944 -0.3125  0.1392 -0.2716
 4691TIP3    H235489   5.421   2.777  14.876  0.2214 -1.3409 -0.3278
 4692TIP3   OH235490   0.146   5.458   3.099  0.4384  0.3102  0.2891
 4692TIP3    H135491   0.082   5.529   3.091  0.5979  0.4148 -0.0919
 4692TIP3    H235492   0.230   5.502   3.105  0.5780  0.1402 -0.4090
 4693TIP3   OH235493   6.594   0.275  11.026  0.1625 -0.4022  0.3830
 4693TIP3    H135494   6.577   0.289  11.119 -1.0815 -0.0304  0.1246
 4693TIP3    H235495   6.593   0.363  10.988  1.2969 -0.4981  0.1074
 4694TIP3   OH235496   5.140   6.711   0.018  0.0464 -0.4986  0.1376
 4694TIP3    H135497   5.078   6.755   0.077 -0.5375 -1.9091  0.6022
 4694TIP3    H235498   5.092   6.634  -0.014  1.5996 -1.6925  0.6027
 4695TIP3   OH235499   0.976   0.774   5.724 -0.0666 -0.0071  0.8259
 4695TIP3    H135500   0.976   0.863   5.688  1.4350  0.5741  2.1285
 4695TIP3    H235501   0.885   0.746   5.717 -0.5700  1.6095  0.3114
 4696TIP3   OH235502   1.402   5.278   3.206 -0.5733  0.1828  0.2345
 4696TIP3    H135503   1.432   5.199   3.251 -0.1971  0.6084  0.7306
 4696TIP3    H235504   1.392   5.343   3.275  0.5426  1.0010 -0.3514
 4697TIP3   OH235505   3.565   0.998  13.705  0.3264 -0.4379  0.2339
 4697TIP3    H135506   3.607   1.012  13.620  1.5026 -0.3807  0.8105
 4697TIP3    H235507   3.565   0.903  13.717 -2.4426 -0.7273 -1.0720
 4698TIP3   OH235508   4.346   2.071  16.161  0.1210 -0.3551 -0.1671
 4698TIP3    H135509   4.368   2.022  16.082 -0.7228 -1.0141 -0.0065
 4698TIP3    H235510   4.267   2.028  16.195 -1.0804  1.5318 -0.4073
 4699TIP3   OH235511   5.852   3.647  16.345 -0.3628  0.4323  0.3561
 4699TIP3    H135512   5.845   3.553  16.328  1.0310 -0.0170  2.0405
 4699TIP3    H235513   5.946   3.664  16.351 -0.6167  1.7845  0.8710
 4700TIP3   OH235514   5.014   2.255  14.461 -0.1669 -0.2722  0.4657
 4700TIP3    H135515   5.092   2.309  14.442  0.3870 -1.3682 -0.5003
 4700TIP3    H235516   4.982   2.288  14.545 -0.5396  2.3457 -0.6042
 4701TIP3   OH235517   2.953   2.128   1.580 -0.0625  0.0412  0.0211
 4701TIP3    H135518   2.950   2.129   1.676 -1.0295  1.5358  0.0068
 4701TIP3    H235519   3.036   2.169   1.557 -0.5901  1.2507  0.2248
 4702TIP3   OH235520   4.243   2.242  13.344  0.2274 -0.0609 -0.0284
 4702TIP3    H135521   4.181   2.231  13.416  0.3186  0.7603  0.1944
 4702TIP3    H235522   4.275   2.332  13.355 -0.1671  0.2667 -1.4276
 4703TIP3   OH235523   2.213   4.128  10.797  0.2300 -0.3067  0.1795
 4703TIP3    H135524   2.156   4.091  10.864  0.3148 -0.8741 -0.0572
 4703TIP3    H235525   2.220   4.060  10.730 -1.2648  0.8781 -1.2798
 4704TIP3   OH235526   0.069   5.798  12.340 -0.4010  0.3898 -0.6681
 4704TIP3    H135527   0.145   5.851  12.360  0.6532 -1.0990 -0.5381
 4704TIP3    H235528   0.066   5.794  12.244 -0.1453  0.2244 -0.6694
 4705TIP3   OH235529   6.237   3.413  16.556 -0.2840  0.2748 -0.1503
 4705TIP3    H135530   6.186   3.472  16.613 -0.6480  0.5298 -0.7302
 4705TIP3    H235531   6.319   3.400  16.603 -0.8216 -0.0220  0.7310
 4706TIP3   OH235532   1.796   1.180   4.503 -0.4049 -0.3764  0.9631
 4706TIP3    H135533   1.782   1.101   4.556 -2.0496 -0.4691  0.4409
 4706TIP3    H235534   1.889   1.178   4.481 -0.4404 -2.2434  0.8516
 4707TIP3   OH235535   0.299   6.428  16.335 -0.1934  0.0785  0.2498
 4707TIP3    H135536   0.381   6.422  16.286 -0.1166  1.4373  0.1564
 4707TIP3    H235537   0.236   6.465  16.272  0.0452  2.3747  1.2676
 4708TIP3   OH235538   1.363   5.827   2.050 -0.0580  0.3285  0.3073
 4708TIP3    H135539   1.430   5.895   2.060  0.6589 -0.3800  0.3333
 4708TIP3    H235540   1.305   5.860   1.981 -0.0322  1.2146  0.6945
 4709TIP3   OH235541   3.873   0.449  15.245  0.2271 -0.4271  0.1838
 4709TIP3    H135542   3.932   0.523  15.228  0.1813 -0.2783  0.6539
 4709TIP3    H235543   3.787   0.490  15.256  0.2184 -0.5424  0.5360
 4710TIP3   OH235544   1.824   4.477   2.912  0.0351 -0.0543  0.1469
 4710TIP3    H135545   1.729   4.465   2.914 -0.0792  0.8762  0.9131
 4710TIP3    H235546   1.837   4.565   2.876  0.5881  0.0020  0.4679
 4711TIP3   OH235547   2.350   1.036  15.998  0.1700 -0.5050 -0.7915
 4711TIP3    H135548   2.275   1.018  16.055  0.5139 -2.0154 -0.7735
 4711TIP3    H235549   2.401   0.955  15.999  1.6735  0.4055 -1.0161
 4712TIP3   OH235550   0.910   2.396  15.761  0.1203 -0.4599  0.5768
 4712TIP3    H135551   0.999   2.432  15.762  0.2199 -0.6798  1.8109
 4712TIP3    H235552   0.853   2.473  15.756  0.3683 -0.2514  0.9272
 4713TIP3   OH235553   2.596   0.892  12.059  0.1199 -0.0165 -0.1597
 4713TIP3    H135554   2.675   0.841  12.077  0.8409  1.6102  1.6646
 4713TIP3    H235555   2.528   0.826  12.047  1.6527 -1.4594 -1.4959
 4714TIP3   OH235556   3.598   2.510  14.321  0.1320  0.2816 -0.0279
 4714TIP3    H135557   3.642   2.573  14.378  0.9147  0.9293 -1.2776
 4714TIP3    H235558   3.550   2.564  14.259  0.6484 -0.3345 -0.9963
 4715TIP3   OH235559   3.261   0.152  11.189 -0.4781  0.1015 -0.2890
 4715TIP3    H135560   3.355   0.159  11.173 -0.5452  0.8869 -0.3781
 4715TIP3    H235561   3.228   0.095  11.120 -0.1504  0.2841 -0.5953
 4716TIP3   OH235562   0.550   5.003   1.397 -0.3441 -0.4753  0.0134
 4716TIP3    H135563   0.526   5.052   1.476  2.1719 -1.3687  1.4448
 4716TIP3    H235564   0.644   5.017   1.388 -0.3191 -1.5902 -2.0300
 4717TIP3   OH235565   4.134   4.714  15.763 -0.6856 -0.4953  0.4594
 4717TIP3    H135566   4.062   4.727  15.701 -1.4714 -0.8003  1.2958
 4717TIP3    H235567   4.126   4.623  15.790 -0.1367 -0.4599  0.7522
 4718TIP3   OH235568   3.970   1.235  14.524  0.4432 -0.1407  0.2935
 4718TIP3    H135569   3.968   1.330  14.512 -0.1996 -0.2204 -0.2632
 4718TIP3    H235570   4.063   1.213  14.525  0.5957  0.4768  0.2885
 4719TIP3   OH235571   0.010   5.118   1.037  0.3914  0.1276  0.2096
 4719TIP3    H135572  -0.077   5.155   1.050  0.3461  0.2841 -0.5272
 4719TIP3    H235573  -0.005   5.038   0.987  0.7269  0.5140 -0.5187
 4720TIP3   OH235574   6.184   0.244   4.551  0.0571 -0.3316  0.2749
 4720TIP3    H135575   6.204   0.164   4.503 -0.1516 -0.7793  0.9077
 4720TIP3    H235576   6.249   0.246   4.622 -0.0443 -0.0355  0.3601
 4721TIP3   OH235577   3.681   3.746   3.643  0.1968 -0.4100  0.7193
 4721TIP3    H135578   3.761   3.770   3.596 -0.1571  1.4141  0.9694
 4721TIP3    H235579   3.696   3.777   3.732 -1.1013  0.7043  0.5732
 4722TIP3   OH235580   5.623   2.124   2.040 -0.1892  0.5783  0.4943
 4722TIP3    H135581   5.614   2.090   2.129  0.1149  0.5663  0.5191
 4722TIP3    H235582   5.707   2.169   2.040  0.8144 -1.2085 -0.3808
 4723TIP3   OH235583   3.762   6.090   5.641  0.0041 -0.3052  0.2733
 4723TIP3    H135584   3.810   6.010   5.658 -2.7948 -1.7134  2.4400
 4723TIP3    H235585   3.778   6.145   5.718 -2.0827 -1.0187  1.2967
 4724TIP3   OH235586   5.234   1.042   1.736 -0.3040 -0.3474 -0.2735
 4724TIP3    H135587   5.267   1.114   1.683 -1.2457  1.2478  1.2047
 4724TIP3    H235588   5.184   0.988   1.675  0.1216  0.4192 -1.3367
 4725TIP3   OH235589   0.468   3.605  16.152 -0.6958 -0.4162  0.1891
 4725TIP3    H135590   0.508   3.608  16.238  4.7856  0.9172 -1.9955
 4725TIP3    H235591   0.479   3.693  16.116 -2.7264 -0.9105 -1.9670
 4726TIP3   OH235592   1.660   6.381   4.773  0.0521 -0.2052  0.1027
 4726TIP3    H135593   1.607   6.389   4.694 -0.1848  1.1874  0.3822
 4726TIP3    H235594   1.680   6.471   4.798  0.8992 -0.6525  1.1186
 4727TIP3   OH235595   3.384   4.788   0.591  0.1040  0.2416  0.1808
 4727TIP3    H135596   3.418   4.709   0.551 -0.7462  0.0545 -0.2043
 4727TIP3    H235597   3.461   4.839   0.616  0.6667 -1.0251  1.1016
 4728TIP3   OH235598   6.207   6.545   3.167  0.0652 -0.0472 -1.0778
 4728TIP3    H135599   6.119   6.568   3.136  0.7205  3.1160 -0.9092
 4728TIP3    H235600   6.194   6.508   3.254 -1.0862  0.3644 -1.0659
 4729TIP3   OH235601   0.781   5.046   6.038  0.0501  0.4898  0.4124
 4729TIP3    H135602   0.789   5.133   6.078 -1.0891  0.8261 -0.0144
 4729TIP3    H235603   0.806   5.060   5.947 -1.9665  0.8505 -0.1436
 4730TIP3   OH235604   2.676   6.351  13.669 -0.6127 -0.1970 -0.5562
 4730TIP3    H135605   2.619   6.417  13.629 -0.8678 -0.7832 -1.1680
 4730TIP3    H235606   2.689   6.285  13.601  1.8635  0.5546 -0.9098
 4731TIP3   OH235607   0.987   2.744  13.878 -0.1437  0.2748  0.2850
 4731TIP3    H135608   1.052   2.801  13.917 -0.0189  0.1484  0.2618
 4731TIP3    H235609   1.035   2.690  13.815 -0.4231  0.7931 -0.3864
 4732TIP3   OH235610   0.825   2.026  13.862 -0.3894 -0.3214  0.4904
 4732TIP3    H135611   0.761   2.096  13.875  1.1323  1.0299  0.9705
 4732TIP3    H235612   0.853   2.035  13.771  1.3828  1.1385  1.1276
 4733TIP3   OH235613   5.597   3.191   5.302  0.6036  0.3822 -0.6700
 4733TIP3    H135614   5.592   3.139   5.382  1.6061  0.4108 -0.5785
 4733TIP3    H235615   5.552   3.137   5.236 -1.0693  0.7796  0.0926
 4734TIP3   OH235616   5.483   4.910  16.392 -0.5274 -0.8056 -0.2053
 4734TIP3    H135617   5.426   4.904  16.315 -0.9289 -0.5304  0.0667
 4734TIP3    H235618   5.424   4.937  16.463 -0.1170 -0.8403  0.1472
 4735TIP3   OH235619   4.690   3.267  13.471 -0.0989 -0.0488 -0.0209
 4735TIP3    H135620   4.650   3.351  13.448 -0.1404 -0.2581 -0.7255
 4735TIP3    H235621   4.737   3.240  13.393  1.1536  0.0223  0.6784
 4736TIP3   OH235622   3.121   5.457   2.088  0.0686 -0.6175  0.0561
 4736TIP3    H135623   3.088   5.530   2.140 -0.6985 -0.6392 -0.3896
 4736TIP3    H235624   3.048   5.432   2.032  0.7089 -0.9499 -0.6483
 4737TIP3   OH235625   6.356   6.385  15.040 -0.5435  0.7799  0.1133
 4737TIP3    H135626   6.368   6.293  15.017 -1.7088  0.2827  1.3919
 4737TIP3    H235627   6.356   6.431  14.956  3.0900  0.0741 -0.4464
 4738TIP3   OH235628   2.469   4.367  11.427  0.1703 -0.4238 -0.2652
 4738TIP3    H135629   2.503   4.292  11.474 -0.1500 -0.4698 -0.1023
 4738TIP3    H235630   2.384   4.337  11.392 -0.2922  0.0817  0.4042
 4739TIP3   OH235631   1.070   1.943   5.216 -0.2882 -0.0266 -0.1394
 4739TIP3    H135632   1.096   1.916   5.304 -3.0792  1.2487  1.2138
 4739TIP3    H235633   1.150   1.937   5.165  1.2530 -1.7606  2.2170
 4740TIP3   OH235634   0.640   4.520   5.815  0.5380 -0.2142 -0.0747
 4740TIP3    H135635   0.589   4.600   5.828 -2.2455 -1.7750 -0.4234
 4740TIP3    H235636   0.693   4.537   5.737 -1.9864  0.4542 -1.7568
 4741TIP3   OH235637   6.503   4.223   3.790 -0.1873  0.2218 -0.3446
 4741TIP3    H135638   6.568   4.190   3.727 -0.1671 -0.5161  0.0445
 4741TIP3    H235639   6.439   4.152   3.798  0.2130 -0.0268  1.0246
 4742TIP3   OH235640   0.312   0.911   0.204  0.4192  0.4601  0.1638
 4742TIP3    H135641   0.295   0.844   0.270 -0.5939 -0.0008 -0.5473
 4742TIP3    H235642   0.238   0.971   0.211  0.2476  0.3496 -0.6128
 4743TIP3   OH235643   4.933   6.080   2.265 -0.6141 -0.5526  0.7368
 4743TIP3    H135644   4.972   5.992   2.268  2.2039  0.5948  1.2086
 4743TIP3    H235645   4.928   6.100   2.172 -1.0258 -1.0828  0.6356
 4744TIP3   OH235646   4.051   0.659   0.163  0.5934 -0.0137  0.6471
 4744TIP3    H135647   4.097   0.613   0.233  1.4037 -1.2235 -0.6178
 4744TIP3    H235648   4.106   0.736   0.145  1.6887 -0.9655 -0.2328
 4745TIP3   OH235649   3.595   4.817   1.417 -0.2057 -0.1483  0.7125
 4745TIP3    H135650   3.512   4.831   1.372  1.1536  0.1280 -1.9376
 4745TIP3    H235651   3.608   4.722   1.415  1.5443 -0.0490 -3.2127
 4746TIP3   OH235652   2.346   5.348   5.542  0.1999 -0.5183  0.0245
 4746TIP3    H135653   2.389   5.308   5.617  1.8686 -0.5891 -0.9282
 4746TIP3    H235654   2.368   5.291   5.468 -2.7556 -1.3859 -0.3272
 4747TIP3   OH235655   4.847   4.891  15.091 -0.1961 -0.1630  0.2304
 4747TIP3    H135656   4.805   4.860  15.011 -0.1147  0.7109 -0.1627
 4747TIP3    H235657   4.776   4.933  15.140  0.0992  0.8686 -0.2040
 4748TIP3   OH235658   2.774   4.907  13.493  0.1904  0.1286 -0.4274
 4748TIP3    H135659   2.781   4.828  13.440 -0.8954 -0.0500 -0.3144
 4748TIP3    H235660   2.680   4.922  13.503  0.3732  0.6277  0.7505
 4749TIP3   OH235661   0.280   1.368  11.383  0.5221  0.4545 -0.3791
 4749TIP3    H135662   0.195   1.324  11.379  0.3866  0.8201 -2.4077
 4749TIP3    H235663   0.276   1.421  11.463 -0.6086 -0.5788  0.2858
 4750TIP3   OH235664   0.331   5.525  15.587  1.2397 -0.0216  0.3654
 4750TIP3    H135665   0.249   5.494  15.626 -0.3215 -0.3935 -2.8111
 4750TIP3    H235666   0.372   5.446  15.551  1.1009  0.5658 -1.1801
 4751TIP3   OH235667   0.390   1.330  16.521  0.7913 -0.4631  0.0073
 4751TIP3    H135668   0.466   1.344  16.577 -0.1617  0.4018  1.1226
 4751TIP3    H235669   0.315   1.351  16.576 -0.3050 -1.6863 -0.9450
 4752TIP3   OH235670   5.443   5.965   6.195 -0.0838 -0.4826 -0.2251
 4752TIP3    H135671   5.374   5.902   6.177 -1.2653  0.8568 -0.5729
 4752TIP3    H235672   5.423   6.040   6.139 -1.5261  2.1633  3.4259
 4753TIP3   OH235673   4.870   4.319  14.553 -0.0716  0.1908  0.6075
 4753TIP3    H135674   4.816   4.242  14.537 -0.2336  0.5627 -0.7145
 4753TIP3    H235675   4.927   4.325  14.477  0.9133  0.5885  1.3493
 4754TIP3   OH235676   6.022   0.720  13.791  0.0809  0.4390 -0.4066
 4754TIP3    H135677   5.981   0.634  13.803  1.2882  0.0017  0.9054
 4754TIP3    H235678   5.983   0.774  13.859  0.9059  0.3035  0.1856
 4755TIP3   OH235679   5.297   4.144  12.900 -0.0292 -0.3761  0.1393
 4755TIP3    H135680   5.275   4.202  12.827 -0.5412 -0.9115 -0.1397
 4755TIP3    H235681   5.327   4.063  12.859 -0.3734 -0.7019  0.5123
 4756TIP3   OH235682   0.065   4.226  16.084  0.1683 -0.0103  0.2666
 4756TIP3    H135683  -0.004   4.264  16.031 -0.1147  1.0653  1.3638
 4756TIP3    H235684   0.097   4.298  16.138  3.3766 -0.0149 -1.4161
 4757TIP3   OH235685   1.431   2.877   1.665  0.4386  0.8310  0.1587
 4757TIP3    H135686   1.463   2.875   1.756  3.8628 -2.0551 -0.8954
 4757TIP3    H235687   1.494   2.931   1.619 -0.6283  1.3175 -0.7744
 4758TIP3   OH235688   2.366   4.891  15.567  0.4882  0.1525 -0.5685
 4758TIP3    H135689   2.442   4.840  15.597 -0.1272 -0.1715  0.4730
 4758TIP3    H235690   2.397   4.982  15.566  1.3895 -0.1375 -1.7850
 4759TIP3   OH235691   1.370   0.623  12.993 -0.4773  0.1430  0.5038
 4759TIP3    H135692   1.458   0.607  12.960 -0.5146 -0.9250  0.9011
 4759TIP3    H235693   1.340   0.538  13.026 -3.1577 -0.5691 -3.1132
 4760TIP3   OH235694   3.460   3.353  13.016  0.7355 -0.2308 -0.1481
 4760TIP3    H135695   3.535   3.366  13.074  0.3873  0.0374  0.2497
 4760TIP3    H235696   3.388   3.330  13.074  0.8316 -1.9263 -0.6511
 4761TIP3   OH235697   4.731   4.101  14.471  0.3243 -0.4779  0.3752
 4761TIP3    H135698   4.707   4.014  14.501 -0.0498 -0.7006 -0.5332
 4761TIP3    H235699   4.785   4.086  14.393 -1.5152  0.1039 -1.0785
 4762TIP3   OH235700   1.346   6.563  15.434 -0.5180 -0.1330 -0.1128
 4762TIP3    H135701   1.314   6.613  15.510  0.7240  2.0315 -0.9273
 4762TIP3    H235702   1.295   6.596  15.360  2.1333  2.0796 -1.1281
 4763TIP3   OH235703   3.968   5.182  14.847 -0.0621  0.5386 -0.0524
 4763TIP3    H135704   3.964   5.123  14.922 -0.1757  1.5950  0.7989
 4763TIP3    H235705   4.041   5.241  14.867  1.5191 -0.6799 -1.9404
 4764TIP3   OH235706   3.719   3.807   5.553  0.3060  0.2601 -0.0800
 4764TIP3    H135707   3.744   3.835   5.465  0.3241 -0.6801 -0.3882
 4764TIP3    H235708   3.643   3.750   5.539 -0.1398  0.6714  0.5798
 4765TIP3   OH235709   0.467   0.855   2.198 -0.1867  0.1723 -0.9710
 4765TIP3    H135710   0.490   0.910   2.273  0.3392 -3.2270  1.6226
 4765TIP3    H235711   0.541   0.864   2.139  1.0993  0.2855  0.5858
 4766TIP3   OH235712   0.882   4.145  16.092  0.0459  0.7024 -0.3892
 4766TIP3    H135713   0.910   4.141  16.001  0.1326 -0.6030 -0.3196
 4766TIP3    H235714   0.911   4.062  16.130 -0.0257  1.2021  0.8229
 4767TIP3   OH235715   6.418   2.275  10.996 -0.5215  0.1377 -0.0190
 4767TIP3    H135716   6.340   2.330  10.986 -0.2432  0.7923  1.2085
 4767TIP3    H235717   6.489   2.327  10.960 -0.7178 -0.7947 -1.9269
 4768TIP3   OH235718   1.642   4.053  16.490 -0.4187  0.2290  0.0953
 4768TIP3    H135719   1.669   4.125  16.434 -0.6767  0.1353 -0.1548
 4768TIP3    H235720   1.722   4.024  16.533 -0.0556 -0.2395 -0.8580
 4769TIP3   OH235721   0.238   3.948  15.441 -0.3222  0.0070 -0.0766
 4769TIP3    H135722   0.232   3.858  15.474  0.6423  0.7647  2.4237
 4769TIP3    H235723   0.227   4.003  15.519  1.9550  1.9961 -1.0279
 4770TIP3   OH235724   4.351   0.267  11.957  0.0958 -0.4250 -0.0039
 4770TIP3    H135725   4.357   0.362  11.947  0.2732 -0.0171  3.0157
 4770TIP3    H235726   4.295   0.238  11.886  1.6588  1.6429 -2.2156
 4771TIP3   OH235727   0.672   2.587  15.900 -0.1236  0.5313 -0.2446
 4771TIP3    H135728   0.739   2.633  15.952  2.0825 -0.7613 -1.7609
 4771TIP3    H235729   0.639   2.519  15.959  2.4524 -1.0182 -0.4125
 4772TIP3   OH235730   0.975   1.226   2.877 -0.5090 -0.0369 -0.0124
 4772TIP3    H135731   1.005   1.154   2.932 -0.5331  0.2888  0.4289
 4772TIP3    H235732   1.014   1.304   2.916 -1.3118  0.3073  0.1295
 4773TIP3   OH235733   6.559   1.646  15.745 -0.3444 -0.2907 -0.1949
 4773TIP3    H135734   6.584   1.664  15.654  0.6067  0.1822  0.1407
 4773TIP3    H235735   6.537   1.733  15.781 -0.6838 -0.4698  0.0338
 4774TIP3   OH235736   3.933   4.744  14.577  0.1686 -0.4236 -0.0140
 4774TIP3    H135737   3.928   4.838  14.596 -0.3923 -0.3541 -0.4752
 4774TIP3    H235738   4.007   4.713  14.629  0.4682  0.3058  0.0085
 4775TIP3   OH235739   2.266   6.150   4.480  0.8448 -0.3064 -0.1939
 4775TIP3    H135740   2.200   6.219   4.479  1.9937  0.8193 -0.8813
 4775TIP3    H235741   2.256   6.105   4.396  1.1401  0.0563 -0.4254
 4776TIP3   OH235742   1.914   0.685   2.108 -0.2714 -0.1354 -0.1308
 4776TIP3    H135743   1.912   0.593   2.136 -0.2840  0.4203  1.8193
 4776TIP3    H235744   2.006   0.711   2.118 -0.5809  0.5504  1.0777
 4777TIP3   OH235745   1.503   3.272   5.305 -0.3858  0.5021 -0.1340
 4777TIP3    H135746   1.576   3.259   5.365 -1.3568 -4.0221  0.4570
 4777TIP3    H235747   1.542   3.261   5.218 -0.1053 -0.4667  0.1025
 4778TIP3   OH235748   2.043   4.495   1.813  0.5794  0.1224 -0.7065
 4778TIP3    H135749   1.981   4.517   1.882 -1.0549 -1.6383 -1.5393
 4778TIP3    H235750   2.111   4.444   1.858  0.5016  0.5352 -0.0996
 4779TIP3   OH235751   2.376   4.132  16.997 -0.0795 -0.0849 -0.4728
 4779TIP3    H135752   2.458   4.166  16.962  1.6230  0.3047  3.3378
 4779TIP3    H235753   2.322   4.210  17.010 -0.1852 -0.0706 -1.0014
 4780TIP3   OH235754   4.314   6.617   2.591  0.6505  0.0434  0.5473
 4780TIP3    H135755   4.366   6.675   2.536 -1.3788  0.6630 -0.8477
 4780TIP3    H235756   4.242   6.673   2.623 -1.3614 -1.6210 -0.8300
 4781TIP3   OH235757   0.843   4.204  15.170 -0.1352 -0.4123 -0.7452
 4781TIP3    H135758   0.861   4.111  15.157  0.3903 -0.3503 -0.4861
 4781TIP3    H235759   0.924   4.248  15.146 -0.1840 -0.0669 -0.2993
 4782TIP3   OH235760   2.629   5.033  10.975  0.0407  0.1410  0.3033
 4782TIP3    H135761   2.698   4.972  10.949 -1.1180 -2.4428  2.7797
 4782TIP3    H235762   2.676   5.111  11.004  1.7420 -0.4662 -0.6586
 4783TIP3   OH235763   4.080   2.060   0.095  0.0259 -0.4379  0.1833
 4783TIP3    H135764   4.173   2.041   0.082  0.3154  0.1574  1.2073
 4783TIP3    H235765   4.080   2.128   0.163 -1.1679 -0.6126  0.3650
 4784TIP3   OH235766   2.886   2.219   4.860 -0.3493 -0.6700  0.0360
 4784TIP3    H135767   2.815   2.157   4.844 -1.1907 -0.4476  2.6054
 4784TIP3    H235768   2.863   2.296   4.809 -0.4920 -1.5682 -1.3220
 4785TIP3   OH235769   5.340   2.824   2.319  0.0411  0.2938 -0.2579
 4785TIP3    H135770   5.431   2.804   2.299  0.0262 -0.2273  0.1891
 4785TIP3    H235771   5.299   2.738   2.331 -0.8953  0.4382 -2.1013
 4786TIP3   OH235772   5.427   5.357  14.665  0.8371 -0.4119  1.1225
 4786TIP3    H135773   5.407   5.379  14.756 -2.2781  1.2653  0.1813
 4786TIP3    H235774   5.451   5.440  14.625 -0.2700 -0.6647 -0.1188
 4787TIP3   OH235775   0.715   2.406  13.769 -0.1716  0.1110 -0.0918
 4787TIP3    H135776   0.738   2.477  13.828 -2.7319  1.4540 -0.5469
 4787TIP3    H235777   0.669   2.343  13.824  0.5367 -0.3544 -0.0227
 4788TIP3   OH235778   3.813   3.910  12.030 -0.0951  0.2462  0.2562
 4788TIP3    H135779   3.817   3.957  12.114 -2.6719  2.3651 -0.6526
 4788TIP3    H235780   3.855   3.968  11.968  0.3605 -0.5777 -0.2221
 4789TIP3   OH235781   2.536   0.152   3.564  0.2083  0.1339  0.2755
 4789TIP3    H135782   2.584   0.136   3.645 -0.4977 -1.3179  0.4480
 4789TIP3    H235783   2.450   0.181   3.592 -0.8227 -2.5872  0.1801
 4790TIP3   OH235784   0.481   4.458   2.168 -0.5365  0.2349  0.4751
 4790TIP3    H135785   0.403   4.436   2.220 -0.6896 -1.9220 -0.5555
 4790TIP3    H235786   0.540   4.384   2.182 -0.2650 -0.0305 -1.7389
 4791TIP3   OH235787   5.760   6.658   2.325  0.3974  0.1930  0.7422
 4791TIP3    H135788   5.724   6.700   2.403  0.0986  1.9125 -0.2578
 4791TIP3    H235789   5.802   6.730   2.277 -0.6404 -0.5273 -1.3646
 4792TIP3   OH235790   2.959   0.938   0.994  0.1729 -0.7489  0.3847
 4792TIP3    H135791   2.965   0.959   0.901  1.6486  2.0691  0.9798
 4792TIP3    H235792   2.923   0.850   0.997  0.2239 -0.9970 -2.8395
 4793TIP3   OH235793   4.299   1.648   2.303 -0.4587  0.6407 -0.5934
 4793TIP3    H135794   4.386   1.607   2.302 -0.9797 -0.5387  0.2527
 4793TIP3    H235795   4.257   1.616   2.223 -0.7858 -0.3589 -0.0431
 4794TIP3   OH235796   6.720   0.364  15.341  0.1121 -0.3315  0.3168
 4794TIP3    H135797   6.627   0.376  15.322  0.1591  1.6250  1.1255
 4794TIP3    H235798   6.743   0.437  15.398  2.1727 -0.7528  0.1142
 4795TIP3   OH235799   1.565   5.857  15.666  0.6659  0.3939  0.2257
 4795TIP3    H135800   1.656   5.885  15.664  0.5357  0.8222  0.0416
 4795TIP3    H235801   1.541   5.845  15.574  0.6162  0.0176  0.2856
 4796TIP3   OH235802   0.190   2.745   5.757  0.5350 -0.0826  0.3041
 4796TIP3    H135803   0.191   2.834   5.722  1.1061 -0.8102 -1.6425
 4796TIP3    H235804   0.278   2.712   5.741  0.4034 -0.9228  1.2401
 4797TIP3   OH235805   0.208   2.452   1.261  0.1814  0.0826  0.9557
 4797TIP3    H135806   0.228   2.531   1.310 -0.9765  0.8551  0.2228
 4797TIP3    H235807   0.181   2.483   1.175  3.5392 -1.2449 -0.7947
 4798TIP3   OH235808   2.189   0.526  15.390 -0.2348 -0.1754  0.0966
 4798TIP3    H135809   2.214   0.560  15.476  0.3148 -0.1047 -0.0848
 4798TIP3    H235810   2.271   0.522  15.342 -0.4070 -1.0424 -0.1409
 4799TIP3   OH235811   4.076   2.370   3.090 -0.0284 -0.2370 -0.0659
 4799TIP3    H135812   4.069   2.280   3.059 -1.3110 -0.6570  1.3271
 4799TIP3    H235813   3.988   2.406   3.080  0.1026  0.3649  0.7880
 4800TIP3   OH235814   6.553   1.912   5.083 -0.4331  0.0229 -0.4133
 4800TIP3    H135815   6.575   1.862   5.162  0.2645 -0.9703 -1.2188
 4800TIP3    H235816   6.578   2.002   5.104  0.1214 -0.2974  0.3526
 4801TIP3   OH235817   0.808   5.738   1.922  0.1071 -0.1413  0.0895
 4801TIP3    H135818   0.834   5.683   1.848  0.0020 -1.1413  0.7762
 4801TIP3    H235819   0.815   5.680   1.998  0.5781  0.9812  0.9169
 4802TIP3   OH235820   5.510   1.283  11.180 -0.2698 -0.1208  0.2594
 4802TIP3    H135821   5.584   1.263  11.122 -0.3100 -0.3281  0.2784
 4802TIP3    H235822   5.443   1.318  11.122 -0.5548 -0.9540  0.0759
 4803TIP3   OH235823   0.403   5.688  14.955 -0.1419 -0.2203 -0.4059
 4803TIP3    H135824   0.466   5.758  14.974  3.2564 -2.8097 -1.2162
 4803TIP3    H235825   0.355   5.720  14.879  0.4820  1.6414 -0.0892
 4804TIP3   OH235826   4.010   1.259  16.335 -0.0231  0.8730 -0.1666
 4804TIP3    H135827   4.100   1.226  16.336 -0.1995  0.4001  0.1613
 4804TIP3    H235828   3.977   1.236  16.248  0.2037  1.1463 -0.3283
 4805TIP3   OH235829   0.204   1.654   6.509 -0.1979  0.1007  0.2588
 4805TIP3    H135830   0.204   1.586   6.577  0.7878  1.2908  1.5000
 4805TIP3    H235831   0.149   1.724   6.544 -0.2702  0.4423 -0.5041
 4806TIP3   OH235832   1.689   5.581   5.395 -0.4043 -0.0155  0.3557
 4806TIP3    H135833   1.624   5.531   5.345  1.2648 -0.7838 -1.1484
 4806TIP3    H235834   1.708   5.657   5.340  1.0519 -0.5821  0.0445
 4807TIP3   OH235835   1.265   4.183  16.732 -0.0466 -0.1924  0.2644
 4807TIP3    H135836   1.267   4.140  16.646 -1.0425 -0.9238  0.5886
 4807TIP3    H235837   1.277   4.112  16.795 -0.3160  0.2026  0.7701
 4808TIP3   OH235838   5.252   5.395   5.730 -0.3841 -0.4707  0.1119
 4808TIP3    H135839   5.189   5.459   5.764  0.8042  0.3988  0.7348
 4808TIP3    H235840   5.290   5.355   5.808 -0.6440 -1.4946 -0.2708
 4809TIP3   OH235841   0.692   4.226  11.866  0.0475 -0.0373 -0.3755
 4809TIP3    H135842   0.640   4.236  11.945 -0.4689 -0.7036 -0.6262
 4809TIP3    H235843   0.777   4.266  11.888 -0.2098  0.1003  0.3839
 4810TIP3   OH235844   2.190   2.495  12.410 -0.2701 -0.2942 -0.1186
 4810TIP3    H135845   2.181   2.428  12.478  2.2523  0.1250  0.7603
 4810TIP3    H235846   2.119   2.477  12.349 -1.6987 -1.6565  1.8188
 4811TIP3   OH235847   0.337   4.868   1.169 -0.3507  0.6397  0.3154
 4811TIP3    H135848   0.303   4.886   1.081 -1.9402 -0.2606  0.7127
 4811TIP3    H235849   0.399   4.797   1.156 -1.0623  0.0577 -0.0161
 4812TIP3   OH235850   5.929   0.047  16.877  0.0351 -0.3074  0.5479
 4812TIP3    H135851   5.889   0.010  16.956  1.8687 -1.1225  1.1608
 4812TIP3    H235852   5.997   0.105  16.910  0.9908 -0.8401 -0.4078
 4813TIP3   OH235853   4.727   2.147   0.157 -0.2873 -0.4559  0.5735
 4813TIP3    H135854   4.823   2.145   0.150 -0.2448  0.4931  0.8140
 4813TIP3    H235855   4.697   2.153   0.066 -0.1086 -0.3834  0.5177
 4814TIP3   OH235856   5.122   5.692  13.014 -0.4036  0.1004 -1.0620
 4814TIP3    H135857   5.199   5.736  13.051 -0.7830 -2.1409  3.0980
 4814TIP3    H235858   5.054   5.760  13.014  0.2465  0.8168  0.4234
 4815TIP3   OH235859   1.714   0.340   3.548 -0.3772  0.3147 -0.4353
 4815TIP3    H135860   1.809   0.329   3.553 -0.3714 -0.1241 -1.3452
 4815TIP3    H235861   1.699   0.430   3.575  0.2228  0.1610  0.4533
 4816TIP3   OH235862   0.085   4.476  12.451 -0.0226  0.2533 -0.5779
 4816TIP3    H135863   0.027   4.424  12.395 -0.8550  0.2255  0.2751
 4816TIP3    H235864   0.173   4.443  12.433 -0.0285  1.4054 -3.1418
 4817TIP3   OH235865   4.108   5.337   6.058  0.1650 -0.3092 -0.3727
 4817TIP3    H135866   4.138   5.402   5.995  2.1196 -0.4145  0.3615
 4817TIP3    H235867   4.189   5.298   6.092 -0.8993 -3.2659 -0.9086
 4818TIP3   OH235868   4.460   6.364   5.540  0.0449 -0.4224  0.1848
 4818TIP3    H135869   4.466   6.398   5.450  1.5068  1.1769  0.8419
 4818TIP3    H235870   4.526   6.295   5.544  0.2202 -0.2549  0.1481
 4819TIP3   OH235871   6.679   2.586  11.983 -0.0101  0.1027 -0.5940
 4819TIP3    H135872   6.605   2.597  11.923  1.7849  0.1439 -2.9310
 4819TIP3    H235873   6.707   2.496  11.970  0.2461  0.0181  0.4425
 4820TIP3   OH235874   4.306   0.514   1.496 -0.1474  0.1368 -0.0662
 4820TIP3    H135875   4.324   0.602   1.461 -0.0735 -0.7390 -2.4334
 4820TIP3    H235876   4.229   0.525   1.551 -0.7429  1.5480 -1.1171
 4821TIP3   OH235877   0.731   3.617   0.040 -0.4245  0.2007 -0.1950
 4821TIP3    H135878   0.759   3.548   0.100  1.0120 -0.3827 -1.4677
 4821TIP3    H235879   0.653   3.581  -0.003 -0.4093 -0.1294  0.0503
 4822TIP3   OH235880   0.802   5.499   5.675  0.1135 -0.7371  0.0088
 4822TIP3    H135881   0.875   5.558   5.655 -0.2676 -0.9381 -2.1123
 4822TIP3    H235882   0.827   5.461   5.760  1.0425  1.3530  0.7670
 4823TIP3   OH235883   2.099   0.184   1.782  0.5373 -0.0463  0.3736
 4823TIP3    H135884   2.087   0.109   1.840 -0.5465  0.0436  0.2791
 4823TIP3    H235885   2.026   0.242   1.803 -0.0034 -0.1048 -1.2339
 4824TIP3   OH235886   0.168   6.452  14.376  0.6124  0.5259  0.6300
 4824TIP3    H135887   0.226   6.378  14.357  1.3736  1.1586  0.4427
 4824TIP3    H235888   0.226   6.527  14.383 -0.1247  1.0653  1.1044
 4825TIP3   OH235889   5.394   4.951  17.044  0.0467  0.3681 -0.2292
 4825TIP3    H135890   5.372   4.975  16.954 -1.1561  1.0645  0.2145
 4825TIP3    H235891   5.328   4.885  17.068  0.5469 -0.0384  0.0413
 4826TIP3   OH235892   4.864   5.723  14.504  0.5385 -0.3214 -0.1291
 4826TIP3    H135893   4.853   5.812  14.539 -0.4005 -0.5342  0.1501
 4826TIP3    H235894   4.902   5.736  14.417 -0.5996  0.4358 -0.5468
 4827TIP3   OH235895   3.566   0.215   1.781 -0.2185  0.2378  0.2652
 4827TIP3    H135896   3.590   0.230   1.690  0.4973  0.5719  0.5041
 4827TIP3    H235897   3.474   0.188   1.777  0.0029 -0.4641 -0.6134
 4828TIP3   OH235898   5.765   5.942   5.677  0.7043 -0.0610 -0.1340
 4828TIP3    H135899   5.676   5.952   5.643  0.1911 -1.4262  0.7051
 4828TIP3    H235900   5.775   6.015   5.739 -0.0191 -0.1822  0.1356
 4829TIP3   OH235901   2.376   2.500  12.007 -0.2185 -0.2963  0.0163
 4829TIP3    H135902   2.364   2.405  12.009  2.2692 -0.6897 -0.1455
 4829TIP3    H235903   2.383   2.521  11.914  1.5981 -0.3907  0.0827
 4830TIP3   OH235904   4.919   3.095   5.503 -0.6602 -0.2453  0.9607
 4830TIP3    H135905   4.952   3.175   5.544  1.2409 -0.5987  0.2257
 4830TIP3    H235906   4.858   3.126   5.436 -1.4073  0.4712  1.9336
 4831TIP3   OH235907   4.695   2.857   3.091  1.0226 -0.3036  0.0116
 4831TIP3    H135908   4.725   2.832   3.179  1.3163  0.6707  0.2007
 4831TIP3    H235909   4.774   2.888   3.047  1.2323 -2.4298 -1.2367
 4832TIP3   OH235910   0.797   6.150  11.921 -0.1804  0.0650 -0.3891
 4832TIP3    H135911   0.846   6.095  11.983 -0.7515 -0.1941 -0.1659
 4832TIP3    H235912   0.729   6.094  11.887 -2.2069  1.1877  1.5189
 4833TIP3   OH235913   5.374   3.799  11.872  0.5099 -0.1447 -0.0987
 4833TIP3    H135914   5.306   3.825  11.810  0.2410  1.3783  0.7736
 4833TIP3    H235915   5.348   3.841  11.954  1.6877 -0.8143  0.6427
 4834TIP3   OH235916   6.402   3.653   1.307  0.2819 -0.3614 -0.1986
 4834TIP3    H135917   6.404   3.697   1.392  1.4258 -0.6441 -0.0633
 4834TIP3    H235918   6.328   3.694   1.261  1.0962  1.4813  0.0347
 4835TIP3   OH235919   3.079   1.238  14.727  0.1601  0.5409 -0.1273
 4835TIP3    H135920   3.140   1.312  14.734 -0.4419  1.0604 -0.2973
 4835TIP3    H235921   3.136   1.161  14.722  0.7738  0.7396  2.5606
 4836TIP3   OH235922   0.158   0.504   1.549 -0.0319 -0.3095 -0.2921
 4836TIP3    H135923   0.150   0.440   1.478  1.7708  0.0560 -0.8689
 4836TIP3    H235924   0.240   0.550   1.531  0.1041  0.2902  1.6400
 4837TIP3   OH235925   0.006   3.539  13.941 -0.3123  0.1152  0.2515
 4837TIP3    H135926  -0.064   3.602  13.927 -0.5712  0.1700  1.6390
 4837TIP3    H235927  -0.015   3.466  13.883 -1.5381  0.1226  0.6629
 4838TIP3   OH235928   2.057   6.028  14.506  0.1181 -0.3243  0.3319
 4838TIP3    H135929   2.072   5.948  14.556 -0.8967 -0.5224  0.3420
 4838TIP3    H235930   1.979   6.067  14.546  0.3743  0.4706  0.0756
 4839TIP3   OH235931   1.760   1.857   5.396  0.2806 -0.0330 -0.5546
 4839TIP3    H135932   1.739   1.764   5.385 -0.2211  0.0806 -0.5591
 4839TIP3    H235933   1.712   1.901   5.327 -0.7904  0.4024  0.4323
 4840TIP3   OH235934   5.971   5.195   5.269  0.4529 -0.0195  0.1652
 4840TIP3    H135935   5.899   5.218   5.327 -1.2522 -0.0137 -1.8363
 4840TIP3    H235936   5.930   5.144   5.198  2.4515 -0.2274 -0.9240
 4841TIP3   OH235937   4.851   2.840  14.928 -0.0657  0.2912 -1.0696
 4841TIP3    H135938   4.792   2.873  14.997  1.6941  1.3823 -0.0038
 4841TIP3    H235939   4.937   2.839  14.969  0.4816 -2.9925 -2.0037
 4842TIP3   OH235940   6.289   3.335  10.574  0.2674 -0.3763 -0.0426
 4842TIP3    H135941   6.207   3.342  10.623  0.4015  0.0171  0.1275
 4842TIP3    H235942   6.358   3.347  10.639  0.4622 -0.6889 -0.1876
 4843TIP3   OH235943   3.128   5.970  10.478 -0.2119  0.5484  0.3136
 4843TIP3    H135944   3.175   6.051  10.499 -0.6456  0.6507  0.8996
 4843TIP3    H235945   3.050   5.972  10.534  0.2028 -0.6908  0.9715
 4844TIP3   OH235946   0.800   2.979   1.439 -0.4682 -0.4462 -0.0580
 4844TIP3    H135947   0.738   3.051   1.442 -0.9614 -0.7713 -1.5374
 4844TIP3    H235948   0.829   2.976   1.348  1.7878 -0.2754  0.5849
 4845TIP3   OH235949   5.567   3.569  12.838  0.1200  0.2243  0.6389
 4845TIP3    H135950   5.485   3.590  12.882 -0.7232 -0.8121 -0.3728
 4845TIP3    H235951   5.593   3.650  12.794 -0.3688  0.5460  0.9412
 4846TIP3   OH235952   1.321   1.564  12.698 -0.0961 -0.0089 -0.1557
 4846TIP3    H135953   1.302   1.551  12.604  0.2355 -4.4543  0.1713
 4846TIP3    H235954   1.235   1.558  12.740 -0.0112 -0.7316 -0.0576
 4847TIP3   OH235955   4.388   4.173   3.271 -0.2977 -0.4097  0.5151
 4847TIP3    H135956   4.460   4.142   3.217 -0.5252  3.0391 -2.0870
 4847TIP3    H235957   4.426   4.182   3.359  1.9734 -0.2890 -0.4166
 4848TIP3   OH235958   5.084   3.768   1.146 -0.2819 -0.3799 -0.0146
 4848TIP3    H135959   5.009   3.710   1.157 -0.7514  0.2285  0.0641
 4848TIP3    H235960   5.052   3.836   1.086 -0.2478  0.6446  1.0993
 4849TIP3   OH235961   2.247   0.569  11.534  0.4537 -0.0479 -0.4231
 4849TIP3    H135962   2.156   0.549  11.556  0.7384 -1.7895 -0.7196
 4849TIP3    H235963   2.240   0.618  11.451 -0.1744 -1.6707 -1.3874
 4850TIP3   OH235964   1.597   5.853  13.903 -0.0339  0.2216  0.0204
 4850TIP3    H135965   1.544   5.811  13.971  0.2113 -0.0785  0.0327
 4850TIP3    H235966   1.541   5.921  13.866 -0.7418 -0.6652 -0.5673
 4851TIP3   OH235967   2.071   3.479   5.556  0.7678 -0.2073 -0.2362
 4851TIP3    H135968   2.086   3.393   5.515 -0.6263  0.2892 -1.9429
 4851TIP3    H235969   2.029   3.459   5.639  0.6224 -1.2097 -0.5308
 4852TIP3   OH235970   4.185   1.078  15.800 -0.0383  0.3227  0.2196
 4852TIP3    H135971   4.230   1.162  15.808  1.9889 -0.5940 -0.9424
 4852TIP3    H235972   4.215   1.027  15.875  1.1874 -0.4047 -0.7294
 4853TIP3   OH235973   3.335   6.353   2.492  0.2928  0.3346 -0.0694
 4853TIP3    H135974   3.423   6.331   2.462  0.0422  0.0876 -0.6212
 4853TIP3    H235975   3.330   6.448   2.485  0.5770  0.3671  0.1387
 4854TIP3   OH235976   6.127   1.060   5.137  0.5054  0.0934  0.1684
 4854TIP3    H135977   6.153   1.027   5.051 -3.3327 -1.3688 -0.6349
 4854TIP3    H235978   6.207   1.053   5.190  2.5611 -0.6514 -2.7339
 4855TIP3   OH235979   5.242   3.062   1.909 -0.4019  0.1321 -0.9492
 4855TIP3    H135980   5.188   3.027   1.980 -0.1720  1.4335 -0.0977
 4855TIP3    H235981   5.178   3.096   1.845 -0.7251  3.0415  0.7376
 4856TIP3   OH235982   6.065   0.995  11.123 -0.1152 -0.3911  0.1672
 4856TIP3    H135983   6.015   0.959  11.050  1.5580 -0.0505 -1.2346
 4856TIP3    H235984   6.149   0.949  11.119  0.8318  1.2197  0.4506
 4857TIP3   OH235985   2.790   5.188  15.559  0.6514  0.7899 -0.2845
 4857TIP3    H135986   2.881   5.216  15.565  0.3320  1.5730  1.3326
 4857TIP3    H235987   2.739   5.268  15.574 -0.2979  0.2153 -0.3585
 4858TIP3   OH235988   5.297   6.629   6.384 -0.8806  0.6895 -0.5327
 4858TIP3    H135989   5.320   6.720   6.397 -0.8694  0.6041  0.0737
 4858TIP3    H235990   5.213   6.619   6.429  0.6796 -0.3887  2.3336
 4859TIP3   OH235991   3.957   2.049  14.032 -0.1612 -0.4461  0.5580
 4859TIP3    H135992   3.914   2.081  14.111  0.0532 -3.1203  1.8595
 4859TIP3    H235993   3.885   2.011  13.980 -0.0923 -0.0747  0.1882
 4860TIP3   OH235994   3.072   4.752   4.407  0.1585  0.2204  0.2128
 4860TIP3    H135995   3.107   4.732   4.320 -1.1278  0.8253 -0.4777
 4860TIP3    H235996   3.139   4.722   4.468  0.1722 -2.1872 -0.8855
 4861TIP3   OH235997   2.239   0.227  17.057 -0.4205  0.8180  0.1536
 4861TIP3    H135998   2.173   0.280  17.102 -0.7501 -1.7128  2.9362
 4861TIP3    H235999   2.195   0.144  17.039  0.8323  0.5026 -1.7060
 4862TIP3   OH236000   6.269   5.815  16.046 -0.1960  0.1905  0.0617
 4862TIP3    H136001   6.244   5.858  15.964 -1.0747 -3.6158 -1.8937
 4862TIP3    H236002   6.192   5.826  16.103 -1.2608 -0.5267 -1.1856
 4863TIP3   OH236003   2.375   0.286  10.337  0.5953  0.0467  0.4299
 4863TIP3    H136004   2.282   0.280  10.357  0.1769 -1.4359 -1.7005
 4863TIP3    H236005   2.414   0.208  10.376  0.9607  0.5863  1.1848
 4864TIP3   OH236006   2.811   3.781  15.601  0.0039  0.4551 -0.4000
 4864TIP3    H136007   2.834   3.698  15.642 -1.7078  0.5883  0.9580
 4864TIP3    H236008   2.797   3.842  15.674 -0.6365  1.4016 -1.2683
 4865TIP3   OH236009   5.946   3.199  12.607  0.6175  0.4610 -0.5414
 4865TIP3    H136010   5.912   3.285  12.582 -0.1333  0.5841  0.8420
 4865TIP3    H236011   5.924   3.190  12.699  0.3209 -1.3891 -0.7604
 4866TIP3   OH236012   2.380   3.997   0.854  0.1769 -0.3044  0.2461
 4866TIP3    H136013   2.384   3.947   0.935 -0.8255 -1.0288 -0.1392
 4866TIP3    H236014   2.470   3.997   0.821  0.3677 -1.0115  0.7496
 4867TIP3   OH236015   1.392   5.444   4.005  0.0770  0.1044  0.4772
 4867TIP3    H136016   1.462   5.390   4.041 -1.0063 -0.4846  1.7879
 4867TIP3    H236017   1.405   5.530   4.046  0.3597  0.1587  0.2771
 4868TIP3   OH236018   6.365   4.541  14.758  0.1593 -0.3457  0.0133
 4868TIP3    H136019   6.422   4.522  14.833 -1.3821  0.6739  1.5387
 4868TIP3    H236020   6.277   4.546  14.796 -0.2129  6.0842 -0.4969
 4869TIP3   OH236021   5.442   1.753  12.739  0.1871  0.3319  0.0662
 4869TIP3    H136022   5.392   1.731  12.817  0.8384  1.5426  0.8610
 4869TIP3    H236023   5.399   1.831  12.704 -0.0622 -0.1625 -0.7625
 4870TIP3   OH236024   1.166   2.352   6.587 -0.3100 -0.1918  0.2786
 4870TIP3    H136025   1.213   2.355   6.504 -0.5660 -0.2703  0.1302
 4870TIP3    H236026   1.218   2.294   6.642 -0.3639 -0.4789  0.0294
 4871TIP3   OH236027   1.984   5.094  15.335 -0.2543 -0.0893 -0.5716
 4871TIP3    H136028   1.896   5.104  15.298 -0.6107 -0.7939  0.0525
 4871TIP3    H236029   2.042   5.140  15.273 -1.2220  1.7121 -0.2112
 4872TIP3   OH236030   4.883   1.436  14.867  0.5224 -0.3423 -0.1791
 4872TIP3    H136031   4.860   1.523  14.837 -0.3245  0.0406  1.4447
 4872TIP3    H236032   4.802   1.401  14.903  1.6334 -0.3079  2.6139
 4873TIP3   OH236033   6.133   5.105   4.943 -0.3236 -0.2315  0.7367
 4873TIP3    H136034   6.129   5.201   4.947 -1.7003 -0.2516  0.4464
 4873TIP3    H236035   6.076   5.082   4.870 -0.2624 -1.2924  1.0098
 4874TIP3   OH236036   4.010   2.571   3.319 -0.3861  0.0554  0.3191
 4874TIP3    H136037   3.931   2.529   3.286 -1.4932  2.4325 -0.2130
 4874TIP3    H236038   4.016   2.654   3.271  0.4907  1.5378  2.8010
 4875TIP3   OH236039   5.638   2.810  13.666  0.0808  0.1580  0.5129
 4875TIP3    H136040   5.549   2.835  13.690  0.0160  1.8806 -1.2853
 4875TIP3    H236041   5.649   2.842  13.576  2.5816  0.1806  0.7532
 4876TIP3   OH236042   3.206   0.928  12.063 -0.0746 -0.1697  0.4800
 4876TIP3    H136043   3.149   0.945  11.988 -0.1483 -1.5228  0.2160
 4876TIP3    H236044   3.146   0.923  12.138  0.0989  2.3150  0.8675
 4877TIP3   OH236045   2.863   2.170   1.869 -0.3366 -0.0997 -0.4665
 4877TIP3    H136046   2.816   2.232   1.814 -0.6877 -1.8096 -2.1897
 4877TIP3    H236047   2.803   2.153   1.942 -0.3287  1.3547 -0.0906
 4878TIP3   OH236048   4.570   1.623   2.283  0.1147  0.3343 -0.1308
 4878TIP3    H136049   4.629   1.549   2.298  0.1251  0.2792 -0.4394
 4878TIP3    H236050   4.593   1.686   2.352 -0.1846 -0.1219  0.3967
 4879TIP3   OH236051   1.700   3.902  11.739  0.6085  0.1715  0.5762
 4879TIP3    H136052   1.663   3.886  11.825  0.3565  2.2019  0.8796
 4879TIP3    H236053   1.637   3.864  11.678  0.0637  0.0147  1.2312
 4880TIP3   OH236054   2.767   0.066   0.630 -0.5007  0.2062  0.2797
 4880TIP3    H136055   2.847   0.119   0.633  2.0772 -3.3809  2.5443
 4880TIP3    H236056   2.729   0.074   0.717  0.6918 -2.4252  1.1567
 4881TIP3   OH236057   4.520   0.028  12.971  0.5780 -0.2417 -0.3319
 4881TIP3    H136058   4.468  -0.033  12.919  0.4957  0.0038 -0.5439
 4881TIP3    H236059   4.456   0.076  13.023  0.6028 -0.0306 -0.4951
 4882TIP3   OH236060   6.780   0.893   0.163 -0.3469 -0.0121 -0.3396
 4882TIP3    H136061   6.766   0.801   0.140  2.1813 -0.9372  1.3953
 4882TIP3    H236062   6.749   0.900   0.253 -0.5099  0.8558 -0.4559
 4883TIP3   OH236063   3.993   2.686  15.641  0.8330  0.2501  0.3109
 4883TIP3    H136064   4.059   2.630  15.599 -0.7473 -1.7942  0.4290
 4883TIP3    H236065   3.980   2.647  15.727  1.8565  2.6379  1.6246
 4884TIP3   OH236066   5.425   2.996  12.827  0.1711 -0.3593 -0.1231
 4884TIP3    H136067   5.373   2.915  12.823 -0.2835 -0.0398 -0.7679
 4884TIP3    H236068   5.476   2.996  12.745  1.3535 -0.7694  0.5880
 4885TIP3   OH236069   5.025   3.380  11.492  0.4463  0.0443 -0.2390
 4885TIP3    H136070   5.052   3.373  11.400 -1.2843 -1.9374 -0.6668
 4885TIP3    H236071   4.955   3.446  11.491 -0.9431 -1.3657 -0.7587
 4886TIP3   OH236072   6.248   6.620   1.481 -0.0523  0.3248 -0.0560
 4886TIP3    H136073   6.325   6.620   1.538  0.6345 -0.0241 -0.9476
 4886TIP3    H236074   6.265   6.690   1.418  0.0425 -0.4152 -0.8852
 4887TIP3   OH236075   3.044   1.008  11.440  0.4087 -0.7810 -0.5635
 4887TIP3    H136076   3.006   0.945  11.379 -1.6358 -1.5145  1.3201
 4887TIP3    H236077   3.102   0.957  11.496  0.8073 -0.4872 -0.7081
 4888TIP3   OH236078   5.285   2.361   1.417 -0.4124 -0.2471 -0.0567
 4888TIP3    H136079   5.276   2.385   1.510  1.2112 -0.4522  0.1885
 4888TIP3    H236080   5.224   2.288   1.405 -0.3460 -0.4888  0.9560
 4889TIP3   OH236081   1.386   3.049  13.429 -0.1206 -0.2892 -0.0187
 4889TIP3    H136082   1.345   2.976  13.476 -0.2574 -0.1847  0.0264
 4889TIP3    H236083   1.317   3.116  13.424 -0.3077 -0.5410 -0.9249
 4890TIP3   OH236084   5.372   2.277  13.896 -0.1264 -0.5288  0.7099
 4890TIP3    H136085   5.292   2.281  13.844  1.3829  0.7201 -1.6663
 4890TIP3    H236086   5.383   2.184  13.916  0.0852 -1.3728 -2.7397
 4891TIP3   OH236087   5.362   5.245  13.419  0.1097 -0.2308  0.3376
 4891TIP3    H136088   5.319   5.268  13.501 -2.1340 -0.0531 -0.7966
 4891TIP3    H236089   5.456   5.257  13.436 -0.2962 -0.0876  2.7918
 4892TIP3   OH236090   5.814   0.211   3.584 -0.0717 -0.0768  0.0049
 4892TIP3    H136091   5.786   0.127   3.619 -0.2600  0.2583  0.6863
 4892TIP3    H236092   5.813   0.270   3.660  2.6077 -0.0558  0.1048
 4893TIP3   OH236093   1.554   0.261   6.731 -0.2286  0.3999 -0.3269
 4893TIP3    H136094   1.507   0.258   6.814  0.6985  1.4525  0.2697
 4893TIP3    H236095   1.486   0.273   6.665 -1.0632 -1.3414  0.1630
 4894TIP3   OH236096   6.055   6.596  10.497 -0.0446  0.0275 -0.6087
 4894TIP3    H136097   6.045   6.687  10.525 -0.0247  1.2579 -4.1017
 4894TIP3    H236098   6.150   6.583  10.490 -0.0268 -0.5011  0.5102
 4895TIP3   OH236099   5.041   5.694  13.716 -0.4367  0.4788 -0.0528
 4895TIP3    H136100   4.976   5.651  13.662 -1.9096  2.4087  0.0699
 4895TIP3    H236101   5.062   5.630  13.784 -1.1877 -0.6763 -0.8724
 4896TIP3   OH236102   6.155   3.332   2.431 -0.0855  0.0183  0.8572
 4896TIP3    H136103   6.093   3.329   2.358  2.4376 -0.9754 -1.4551
 4896TIP3    H236104   6.179   3.424   2.438  1.5876 -0.1466 -1.5024
 4897TIP3   OH236105   3.433   6.279   0.465 -0.1305  0.0179  0.1432
 4897TIP3    H136106   3.505   6.281   0.528 -0.0064  2.7361  0.0294
 4897TIP3    H236107   3.362   6.327   0.508 -0.5475  0.6746 -1.2301
 4898TIP3   OH236108   4.545   2.879  14.885 -0.0503 -0.1177 -0.3471
 4898TIP3    H136109   4.486   2.811  14.917  0.7141 -1.2324 -1.2342
 4898TIP3    H236110   4.602   2.899  14.960 -0.0105 -0.7481 -0.2092
 4899TIP3   OH236111   0.803   5.235  15.758  0.1789  0.2270 -0.9284
 4899TIP3    H136112   0.819   5.160  15.700 -2.7347 -0.2665 -1.2395
 4899TIP3    H236113   0.846   5.211  15.840  1.9688 -0.3293 -1.9722
 4900TIP3   OH236114   0.391   4.655   4.375  0.1346 -0.0706 -0.1685
 4900TIP3    H136115   0.435   4.691   4.453 -0.2267  0.2431 -0.1037
 4900TIP3    H236116   0.316   4.608   4.410  0.0589 -0.0605 -0.3184
 4901TIP3   OH236117   5.869   0.907  16.336  0.1546 -0.4031 -0.2755
 4901TIP3    H136118   5.832   0.954  16.262 -1.0396 -0.9537 -0.0494
 4901TIP3    H236119   5.962   0.897  16.314  0.0372  0.3890 -1.1819
 4902TIP3   OH236120   5.634   2.899   1.539  0.3574  0.3832 -0.5221
 4902TIP3    H136121   5.591   2.909   1.454 -0.4359 -1.6402 -0.4056
 4902TIP3    H236122   5.654   2.989   1.566  1.2564  1.0441 -3.1367
 4903TIP3   OH236123   4.607   5.851   1.613  0.0668  0.0723 -0.4494
 4903TIP3    H136124   4.590   5.843   1.519  0.1700 -0.0498 -0.4583
 4903TIP3    H236125   4.675   5.786   1.630 -0.1733 -0.1206 -0.2317
 4904TIP3   OH236126   6.523   0.974   0.637 -0.2137 -0.4103 -0.1674
 4904TIP3    H136127   6.546   1.062   0.608 -1.2089 -0.1866 -0.3323
 4904TIP3    H236128   6.603   0.939   0.676 -0.0198  0.8475  0.6059
 4905TIP3   OH236129   4.728   2.187  16.847 -0.1038  0.4715 -1.1004
 4905TIP3    H136130   4.689   2.191  16.760  0.4151  1.9396 -1.2903
 4905TIP3    H236131   4.810   2.138  16.835  0.6699  1.8606 -1.7484
 4906TIP3   OH236132   5.060   1.650   1.919  0.2724 -0.9587 -0.0161
 4906TIP3    H136133   4.972   1.613   1.934  0.0204 -0.2830  0.1863
 4906TIP3    H236134   5.048   1.708   1.844  0.4050 -0.3863  0.3984
 4907TIP3   OH236135   3.820   5.758   0.562  0.0097  0.7720 -0.0940
 4907TIP3    H136136   3.788   5.731   0.648 -1.2842 -0.8490 -1.0190
 4907TIP3    H236137   3.907   5.721   0.556  0.4492  1.5950  0.8002
 4908TIP3   OH236138   4.475   2.102   6.255 -0.3596  0.2537  0.2962
 4908TIP3    H136139   4.440   2.026   6.302  0.4919  0.3306  1.0682
 4908TIP3    H236140   4.555   2.070   6.213  0.0020  0.7156  0.6225
 4909TIP3   OH236141   1.833   5.633  15.748 -0.1330 -0.0066  0.3440
 4909TIP3    H136142   1.916   5.584  15.748 -1.0868 -1.7057 -0.6270
 4909TIP3    H236143   1.795   5.616  15.834 -0.1516 -0.4558  0.2516
 4910TIP3   OH236144   5.028   6.470  17.129  0.0498 -0.0561  0.0735
 4910TIP3    H136145   5.093   6.414  17.086  0.7772  0.6120  0.2903
 4910TIP3    H236146   4.981   6.512  17.057  0.6857  0.4005 -0.0792
 4911TIP3   OH236147   5.889   3.542  11.311  0.4660 -0.0897 -0.7392
 4911TIP3    H136148   5.845   3.506  11.234  0.0732  0.5410 -0.8150
 4911TIP3    H236149   5.819   3.560  11.373  0.8226 -1.0192 -0.0414
 4912TIP3   OH236150   0.482   6.123  14.581  0.5300  0.3728 -0.1501
 4912TIP3    H136151   0.492   6.028  14.580 -1.3802  0.1143  0.6357
 4912TIP3    H236152   0.563   6.157  14.542  1.2703 -1.5577 -0.3702
 4913TIP3   OH236153   2.351   6.265   0.390 -0.6163  0.4269  0.0733
 4913TIP3    H136154   2.308   6.186   0.422  0.5477  0.5583  2.0992
 4913TIP3    H236155   2.281   6.330   0.381 -1.5537 -0.7270 -1.4435
 4914TIP3   OH236156   4.029   4.578  13.181  0.4210  0.0485 -0.5292
 4914TIP3    H136157   4.080   4.538  13.111 -0.1997  0.0629 -0.9997
 4914TIP3    H236158   4.031   4.672  13.163  3.1932  0.4873  1.4467
 4915TIP3   OH236159   1.365   0.112   5.927 -0.4180 -0.0460 -0.0285
 4915TIP3    H136160   1.430   0.087   5.992 -1.6019  1.2058  1.7254
 4915TIP3    H236161   1.357   0.207   5.936 -2.3844 -0.1492 -0.2716
 4916TIP3   OH236162   4.085   3.931   4.574  0.1755 -0.1058  0.0030
 4916TIP3    H136163   4.102   3.850   4.526  0.1812 -0.2495  0.2460
 4916TIP3    H236164   4.136   3.922   4.655 -0.6395 -0.3093  0.5040
 4917TIP3   OH236165   0.600   1.552   3.985 -0.4833 -0.5574 -0.5625
 4917TIP3    H136166   0.584   1.640   3.952 -0.8993 -1.3148 -2.4766
 4917TIP3    H236167   0.688   1.530   3.953 -0.2120 -0.7112  0.2546
 4918TIP3   OH236168   2.631   5.421   4.848  0.4712 -0.3471 -0.0329
 4918TIP3    H136169   2.554   5.426   4.791 -0.2688  1.3624  1.0452
 4918TIP3    H236170   2.705   5.415   4.787 -0.3779  0.0289 -1.1363
 4919TIP3   OH236171   4.472   2.997   0.367  0.5383  0.7692  0.4333
 4919TIP3    H136172   4.537   2.989   0.297  0.4449 -1.7313  0.5376
 4919TIP3    H236173   4.401   3.048   0.327  0.4521 -0.6475 -1.3910
 4920TIP3   OH236174   6.667   3.232  16.736  0.0120 -0.1790 -0.0438
 4920TIP3    H136175   6.647   3.183  16.816 -2.6622  0.3373 -0.3101
 4920TIP3    H236176   6.663   3.166  16.667  0.9033 -0.3580  0.0583
 4921TIP3   OH236177   1.958   1.919   3.719 -0.4884  0.5484  0.4067
 4921TIP3    H136178   1.912   1.840   3.690 -0.5929  0.4638  0.7991
 4921TIP3    H236179   1.910   1.991   3.680  0.0182  0.3960 -0.5342
 4922TIP3   OH236180   5.449   3.973  15.266  0.9132 -0.2847 -0.2218
 4922TIP3    H136181   5.537   3.972  15.229  0.7224  1.1086 -0.7754
 4922TIP3    H236182   5.391   3.960  15.192  0.6129  0.1442 -0.0711
 4923TIP3   OH236183   4.502   4.943  13.409 -0.2617  0.3253  0.1398
 4923TIP3    H136184   4.563   4.912  13.342 -2.6441 -1.1322 -1.5276
 4923TIP3    H236185   4.496   5.037  13.394  1.1248  0.4115 -0.0062
 4924TIP3   OH236186   3.416   3.375  15.055 -0.6754  0.2231  0.0287
 4924TIP3    H136187   3.350   3.362  14.987 -2.3506  0.5369  1.5368
 4924TIP3    H236188   3.406   3.300  15.113  2.0610 -1.0874 -1.0166
 4925TIP3   OH236189   2.591   3.100   3.422  0.0250  0.2395 -0.3361
 4925TIP3    H136190   2.579   3.087   3.328 -2.1324  2.6524 -0.5094
 4925TIP3    H236191   2.684   3.083   3.437  0.6091  0.5028 -3.0416
 4926TIP3   OH236192   3.914   6.583  16.787 -0.3332  0.0415  0.7553
 4926TIP3    H136193   3.857   6.539  16.850 -0.9059 -0.3791 -0.0301
 4926TIP3    H236194   3.854   6.614  16.719  0.4953 -1.7315 -0.8676
 4927TIP3   OH236195   4.778   4.215  14.892  0.0101 -0.4305  0.2693
 4927TIP3    H136196   4.722   4.151  14.936 -1.2976  2.0704  2.5006
 4927TIP3    H236197   4.866   4.181  14.904 -0.5036 -1.0877  2.7936
 4928TIP3   OH236198   1.876   6.640  10.905  0.3606  0.0820  0.1685
 4928TIP3    H136199   1.970   6.656  10.911  0.2679  0.3476  1.0845
 4928TIP3    H236200   1.849   6.683  10.823  0.9492  0.4361  0.1574
 4929TIP3   OH236201   2.977   4.757  16.158  0.1133  0.2162 -0.5869
 4929TIP3    H136202   2.976   4.662  16.153  0.5248  0.2326 -0.9897
 4929TIP3    H236203   2.914   4.786  16.092  1.8271  0.2823 -2.2888
 4930TIP3   OH236204   2.091   0.197  14.016 -0.0245 -0.6066  0.1957
 4930TIP3    H136205   2.040   0.278  14.006  0.0294 -0.4310  1.2808
 4930TIP3    H236206   2.173   0.215  13.969 -0.6965 -0.6679 -1.0316
 4931TIP3   OH236207   2.580   4.168  15.508 -0.3339 -0.3239 -0.1063
 4931TIP3    H136208   2.505   4.163  15.568 -0.8465  0.0633 -0.7058
 4931TIP3    H236209   2.543   4.199  15.426  0.6771  1.0440 -0.0825
 4932TIP3   OH236210   3.695   6.466   0.299  0.2684  0.5192 -0.2725
 4932TIP3    H136211   3.628   6.460   0.230 -0.1065 -0.7430  0.1692
 4932TIP3    H236212   3.749   6.541   0.274 -0.9961  1.2453 -0.9245
 4933TIP3   OH236213   3.703   4.995   3.074  0.0157  0.0020  0.4296
 4933TIP3    H136214   3.778   5.017   3.018 -0.4396  0.4549 -0.0133
 4933TIP3    H236215   3.727   4.911   3.113  0.2913 -0.3902 -0.5379
 4934TIP3   OH236216   5.441   1.658   5.807  0.1551 -0.0724  0.0504
 4934TIP3    H136217   5.450   1.747   5.775 -0.8515  0.0844  0.1965
 4934TIP3    H236218   5.531   1.631   5.829  0.5896  0.5295 -0.9621
 4935TIP3   OH236219   4.285   1.228   4.638  0.0734  0.0842 -0.1488
 4935TIP3    H136220   4.234   1.203   4.561 -0.3070 -1.8262  0.6488
 4935TIP3    H236221   4.246   1.310   4.668 -0.7917  0.0372 -1.0833
 4936TIP3   OH236222   2.581   2.374   0.776  0.5310  0.9607 -0.8120
 4936TIP3    H136223   2.626   2.299   0.738 -0.1066 -0.8351  1.6823
 4936TIP3    H236224   2.491   2.368   0.742 -0.3085 -1.2108  1.4822
 4937TIP3   OH236225   5.791   6.172  13.787  0.2315  0.0045 -0.4525
 4937TIP3    H136226   5.751   6.259  13.778  0.6785  0.1871 -0.6905
 4937TIP3    H236227   5.826   6.171  13.876 -3.4175 -1.4776  1.1620
 4938TIP3   OH236228   0.037   6.354  13.324 -0.1794 -0.1045 -0.1377
 4938TIP3    H136229  -0.025   6.414  13.366 -1.0816 -0.8993 -0.2954
 4938TIP3    H236230  -0.019   6.287  13.283  0.8085 -1.4664  0.6658
 4939TIP3   OH236231   3.438   4.532  14.685  0.1606  0.1019 -0.1645
 4939TIP3    H136232   3.496   4.476  14.633 -1.2144  0.3265 -2.0119
 4939TIP3    H236233   3.443   4.618  14.642 -0.6447  0.4175  0.3586
 4940TIP3   OH236234   4.116   5.933  11.643 -0.1492 -0.1417 -0.4079
 4940TIP3    H136235   4.026   5.952  11.616 -0.1208 -1.3283 -1.4578
 4940TIP3    H236236   4.107   5.862  11.706 -0.0477  1.0586  1.0146
 4941TIP3   OH236237   1.281   1.163  14.744 -0.0976  0.0048  0.5947
 4941TIP3    H136238   1.215   1.112  14.699 -1.3372  1.3365  0.8449
 4941TIP3    H236239   1.364   1.118  14.724 -0.9810 -1.3148 -0.2459
 4942TIP3   OH236240   3.930   0.315  10.685  0.5991 -0.2150  0.0449
 4942TIP3    H136241   3.947   0.378  10.615 -1.5639 -2.0089 -2.3023
 4942TIP3    H236242   3.999   0.249  10.675  1.5406  0.5782  1.0546
 4943TIP3   OH236243   6.638   2.944   3.163 -0.1932  0.3813  0.0051
 4943TIP3    H136244   6.601   2.873   3.215 -1.7632  1.1631 -0.0087
 4943TIP3    H236245   6.563   2.995   3.133  0.9016  2.5528  0.7048
 4944TIP3   OH236246   0.279   5.175  14.587  0.5831 -0.1813 -0.1045
 4944TIP3    H136247   0.252   5.262  14.616 -0.7799 -0.1326 -1.3788
 4944TIP3    H236248   0.345   5.192  14.519  2.6019 -0.2649  1.7124
 4945TIP3   OH236249   5.949   0.644  11.981  0.3131  0.2363 -0.4698
 4945TIP3    H136250   5.974   0.555  11.959 -0.2527  0.2649 -1.2677
 4945TIP3    H236251   5.883   0.634  12.050  2.6325  0.1702  1.9009
 4946TIP3   OH236252   1.262   4.302  12.566 -0.6276  0.5753  0.5154
 4946TIP3    H136253   1.211   4.353  12.503 -0.6879  0.5531  0.5462
 4946TIP3    H236254   1.219   4.318  12.650  0.1294  1.5120  0.7403
 4947TIP3   OH236255   6.346   4.622   1.380  0.2478 -0.0035  0.3158
 4947TIP3    H136256   6.411   4.593   1.445  0.0155  0.8591  0.9490
 4947TIP3    H236257   6.397   4.634   1.300  1.1321  1.7761  1.0894
 4948TIP3   OH236258   6.356   1.249  12.945  0.0253  0.3479  0.1925
 4948TIP3    H136259   6.317   1.232  12.859  0.4337 -1.1996  0.2891
 4948TIP3    H236260   6.281   1.259  13.003 -0.2696 -1.2963  0.1345
 4949TIP3   OH236261   1.664   5.634   1.754 -0.4616  0.5859  0.1436
 4949TIP3    H136262   1.721   5.628   1.677 -1.0737  3.5981 -0.6708
 4949TIP3    H236263   1.576   5.645   1.718 -1.0199  0.1843  1.3320
 4950TIP3   OH236264   5.432   4.799   4.004  0.1593 -0.4157  0.1290
 4950TIP3    H136265   5.360   4.809   3.942 -0.2802 -2.9467  0.1581
 4950TIP3    H236266   5.483   4.880   3.995 -1.6097  0.5941 -1.2622
 4951TIP3   OH236267   5.301   3.989   3.947 -0.0037 -0.2164  0.1491
 4951TIP3    H136268   5.368   3.955   4.007  1.1785  2.4271  0.4478
 4951TIP3    H236269   5.348   4.007   3.866 -0.1301  2.1699  0.5261
 4952TIP3   OH236270   6.760   4.490  15.632 -0.0521  0.0329  0.4213
 4952TIP3    H136271   6.706   4.456  15.703  0.6122 -2.0087  0.0231
 4952TIP3    H236272   6.698   4.535  15.574 -0.7354  0.9291  1.7943
 4953TIP3   OH236273   3.200   6.436  16.535 -0.2391  0.1303 -0.2308
 4953TIP3    H136274   3.276   6.377  16.534 -0.4887 -0.2946 -3.1212
 4953TIP3    H236275   3.125   6.378  16.522 -0.6095  0.8950 -1.7608
 4954TIP3   OH236276   1.867   1.983   3.232  0.5183  0.0783  0.7759
 4954TIP3    H136277   1.962   1.974   3.240  0.6015 -0.1417 -0.2424
 4954TIP3    H236278   1.832   1.907   3.279  0.9231 -0.8459 -0.3647
 4955TIP3   OH236279   6.505   6.526   4.589 -0.1601  0.3652  0.6001
 4955TIP3    H136280   6.540   6.476   4.516  0.5039  0.1462  1.0615
 4955TIP3    H236281   6.423   6.481   4.611 -1.8443  2.0176 -1.7347
 4956TIP3   OH236282   3.787   1.013  16.542 -0.0503 -0.2414  0.1813
 4956TIP3    H136283   3.776   0.922  16.513  0.0675 -0.3356  0.4254
 4956TIP3    H236284   3.794   1.006  16.638 -1.7571  0.1771  0.3798
 4957TIP3   OH236285   2.879   5.420  13.360  0.5559 -0.0326 -0.3091
 4957TIP3    H136286   2.948   5.443  13.422  0.3565  0.3580 -0.2241
 4957TIP3    H236287   2.810   5.485  13.376  1.5840  1.8254 -2.8046
 4958TIP3   OH236288   5.300   4.887  14.826 -0.4204  0.0053 -0.7056
 4958TIP3    H136289   5.371   4.848  14.877  0.6087 -1.0403 -2.8004
 4958TIP3    H236290   5.324   4.979  14.817 -0.0609 -0.0389 -0.2142
 4959TIP3   OH236291   0.539   2.901  16.634 -0.3957  0.0563 -0.3094
 4959TIP3    H136292   0.521   2.901  16.728 -0.6151  2.0153 -0.3095
 4959TIP3    H236293   0.504   2.985  16.603  0.6679 -0.0621 -1.9334
 4960TIP3   OH236294   5.449   0.703  16.392  0.0971  0.0191  0.4391
 4960TIP3    H136295   5.544   0.716  16.397 -0.0244  1.1621  0.1489
 4960TIP3    H236296   5.438   0.623  16.342  0.9048  0.3304 -0.2601
 4961TIP3   OH236297   5.370   3.676  16.243  0.0276 -0.2715  0.2188
 4961TIP3    H136298   5.313   3.753  16.244  0.2158 -0.1305  0.7585
 4961TIP3    H236299   5.360   3.640  16.155 -0.4593  0.0730  0.1237
 4962TIP3   OH236300   6.600   1.934  13.383  0.0100  0.1081 -0.1860
 4962TIP3    H136301   6.565   1.846  13.396 -0.1027 -0.1957 -2.1620
 4962TIP3    H236302   6.629   1.962  13.470 -1.2000 -1.3226  0.7262
 4963TIP3   OH236303   6.620   6.219  11.248 -0.4356  0.1742 -0.1584
 4963TIP3    H136304   6.682   6.195  11.180 -2.7341 -2.3820 -1.5771
 4963TIP3    H236305   6.642   6.163  11.323 -1.0716 -0.8567 -0.7222
 4964TIP3   OH236306   3.232   0.983   1.735 -0.3560 -0.3032 -0.2072
 4964TIP3    H136307   3.298   1.010   1.671 -2.6529  0.2211 -2.5483
 4964TIP3    H236308   3.176   1.060   1.746 -1.4350 -1.1504  0.5025
 4965TIP3   OH236309   5.534   2.056   3.472  0.0977  0.2855  0.0803
 4965TIP3    H136310   5.568   2.095   3.391  2.1999  1.0228  1.2367
 4965TIP3    H236311   5.556   2.120   3.540 -0.8561 -0.7028  1.3540
 4966TIP3   OH236312   1.141   6.558   5.190  0.1291  0.1167 -0.2633
 4966TIP3    H136313   1.156   6.627   5.125 -0.2310 -1.2463 -1.8572
 4966TIP3    H236314   1.222   6.507   5.190 -0.2439 -0.4848 -0.3934
 4967TIP3   OH236315   1.142   1.379  15.161 -0.5841 -0.0518 -0.1241
 4967TIP3    H136316   1.122   1.297  15.206 -0.2841  0.1728  0.4321
 4967TIP3    H236317   1.064   1.399  15.110 -0.6747 -0.6610 -0.2333
 4968TIP3   OH236318   2.852   1.019  14.428 -0.3324 -0.8203 -0.8546
 4968TIP3    H136319   2.920   1.082  14.452 -0.3986 -1.0836  0.0621
 4968TIP3    H236320   2.799   1.064  14.363 -1.0717  0.5390  0.6133
 4969TIP3   OH236321   1.471   1.890   6.129  0.3923  0.1650  0.1339
 4969TIP3    H136322   1.475   1.959   6.196 -0.1151 -0.0815  0.4279
 4969TIP3    H236323   1.448   1.811   6.178 -0.5351  0.0890 -0.4044
 4970TIP3   OH236324   2.561   2.116   4.763 -0.4826 -0.2749 -0.6147
 4970TIP3    H136325   2.534   2.191   4.815  2.7576  0.6296  0.0271
 4970TIP3    H236326   2.617   2.152   4.695  2.7767 -2.0826  0.8494
 4971TIP3   OH236327   3.238   3.458  17.194 -0.4217  0.1978  0.5055
 4971TIP3    H136328   3.217   3.541  17.237 -0.5728  0.7840 -0.6778
 4971TIP3    H236329   3.153   3.421  17.170 -0.3392 -0.1565  0.7430
 4972TIP3   OH236330   5.509   0.208  15.416  0.7241  0.0936 -0.4938
 4972TIP3    H136331   5.447   0.216  15.489  1.8864 -1.1765  0.7047
 4972TIP3    H236332   5.541   0.297  15.401  2.0029  0.1296  1.9989
 4973TIP3   OH236333   1.909   3.489   1.977  0.0746  0.2570 -0.6872
 4973TIP3    H136334   1.989   3.535   2.002 -0.4780  0.7325  0.2366
 4973TIP3    H236335   1.937   3.432   1.905  1.2020  0.5479 -0.5110
 4974TIP3   OH236336   6.345   0.480   3.933 -0.5632 -0.5044  0.3195
 4974TIP3    H136337   6.318   0.476   3.841 -0.5153 -1.8467  0.3304
 4974TIP3    H236338   6.421   0.538   3.934 -1.2311  0.4103 -0.2988
 4975TIP3   OH236339   4.404   1.924   6.481 -0.3150  0.7834  0.1049
 4975TIP3    H136340   4.484   1.947   6.529  1.4572 -1.4574 -1.5415
 4975TIP3    H236341   4.335   1.976   6.523  1.4800  0.7649  3.4405
 4976TIP3   OH236342   1.372   5.253   1.834 -0.0332  0.2540  0.3550
 4976TIP3    H136343   1.360   5.178   1.892 -1.8137 -0.4072 -0.7967
 4976TIP3    H236344   1.454   5.293   1.863  0.0216 -1.0711  2.1578
 4977TIP3   OH236345   2.652   6.381   1.439  0.6203 -0.0136 -0.1815
 4977TIP3    H136346   2.716   6.312   1.426  1.9294  0.6974  1.9843
 4977TIP3    H236347   2.588   6.343   1.500  1.9287  0.9153  1.8927
 4978TIP3   OH236348   1.637   1.917  14.263 -0.0416 -0.0213  0.0875
 4978TIP3    H136349   1.574   1.908  14.334 -0.0020  1.8136  0.4084
 4978TIP3    H236350   1.691   1.837  14.268 -0.2761 -0.1036  1.8730
 4979TIP3   OH236351   1.773   3.012   4.748  0.5538  0.1011  0.0285
 4979TIP3    H136352   1.833   3.008   4.674  0.8945 -0.2771  0.3177
 4979TIP3    H236353   1.699   2.955   4.723 -1.0250  2.6290 -1.4703
 4980TIP3   OH236354   6.776   2.015   2.806  0.2840  0.2517  0.1906
 4980TIP3    H136355   6.702   1.989   2.752 -0.1206 -0.2936  0.9891
 4980TIP3    H236356   6.773   1.956   2.881  1.2704  0.5111  0.4476
 4981TIP3   OH236357   4.497   3.373  14.378  0.1558  0.2367  0.1404
 4981TIP3    H136358   4.424   3.400  14.434  0.5944  1.2091  0.2591
 4981TIP3    H236359   4.469   3.395  14.289  0.3240  0.6589  0.1910
 4982TIP3   OH236360   5.667   1.405   2.825  0.1064 -0.2546  0.3826
 4982TIP3    H136361   5.616   1.406   2.906 -0.5535  1.6788  0.0009
 4982TIP3    H236362   5.751   1.445   2.848  0.6545 -1.4215  0.5041
 4983TIP3   OH236363   2.835   5.945   1.055  0.0052  0.1328 -0.1485
 4983TIP3    H136364   2.889   5.879   1.011  0.7705  0.0086  0.9644
 4983TIP3    H236365   2.866   5.946   1.145 -0.5554  1.4373  0.0516
 4984TIP3   OH236366   2.286   1.995   6.059  0.3978  0.5038 -0.0105
 4984TIP3    H136367   2.375   2.026   6.043  0.3305  0.7700  0.1181
 4984TIP3    H236368   2.290   1.951   6.143  0.1299  1.6970  0.6523
 4985TIP3   OH236369   3.544   5.734   2.494  0.0483 -0.4058  0.1809
 4985TIP3    H136370   3.501   5.749   2.410  2.5430  0.3227 -1.0521
 4985TIP3    H236371   3.511   5.803   2.551 -0.1339  0.3480 -0.8231
 4986TIP3   OH236372   2.609   2.647   0.510 -0.4815 -0.1269  0.3291
 4986TIP3    H136373   2.517   2.646   0.482 -0.8305 -0.5168  1.4235
 4986TIP3    H236374   2.636   2.556   0.507 -0.1739 -0.0313  0.1631
 4987TIP3   OH236375   0.866   2.324   2.881  0.3539 -0.0589  0.5525
 4987TIP3    H136376   0.944   2.349   2.832  0.2767 -2.4724 -0.9329
 4987TIP3    H236377   0.847   2.235   2.853 -1.7201 -0.3139  2.4764
 4988TIP3   OH236378   6.034   6.427   2.914 -0.2536 -0.6755  0.3066
 4988TIP3    H136379   6.007   6.515   2.889  1.0199  0.4512  2.6025
 4988TIP3    H236380   6.127   6.423   2.893 -0.2511 -1.3999  0.4342
 4989TIP3   OH236381   6.381   4.455  14.494  0.1137 -0.4060 -0.4514
 4989TIP3    H136382   6.443   4.511  14.447  1.1387 -1.1441 -0.0319
 4989TIP3    H236383   6.376   4.492  14.582  1.3687 -1.3463  0.0546
 4990TIP3   OH236384   6.175   2.232   5.328  0.2422  0.5615  0.1472
 4990TIP3    H136385   6.107   2.171   5.356 -2.1462  1.8619 -2.3960
 4990TIP3    H236386   6.161   2.311   5.380  0.2847  0.5685  0.1483
 4991TIP3   OH236387   1.480   1.179  12.834 -0.2338  0.7282  0.7414
 4991TIP3    H136388   1.543   1.125  12.882 -0.3436 -0.2486 -0.1660
 4991TIP3    H236389   1.396   1.162  12.877 -0.4528 -0.6775 -0.1626
 4992TIP3   OH236390   4.890   2.814  12.137  0.7013  0.4737  0.3676
 4992TIP3    H136391   4.849   2.730  12.157  2.6511 -0.6595 -0.1315
 4992TIP3    H236392   4.945   2.833  12.212 -0.4435  1.8464  0.9128
 4993TIP3   OH236393   4.651   0.097  14.130 -0.2840  0.2787 -0.1880
 4993TIP3    H136394   4.667   0.019  14.076 -2.1819 -0.5063  0.3002
 4993TIP3    H236395   4.682   0.073  14.217  0.0579  0.4482 -0.2617
 4994TIP3   OH236396   5.486   3.758   4.271  0.5045  0.8059  0.3311
 4994TIP3    H136397   5.493   3.746   4.176 -2.4140  1.0391 -0.0020
 4994TIP3    H236398   5.485   3.853   4.283  0.8035  0.7746  0.6229
 4995TIP3   OH236399   1.028   1.298   1.122 -0.7446  0.0238  0.5123
 4995TIP3    H136400   1.122   1.308   1.132 -0.6647  0.5573 -0.6347
 4995TIP3    H236401   1.017   1.236   1.050 -1.2328  1.2287 -0.4997
 4996TIP3   OH236402   2.131   0.067   5.282  0.3102  0.6468  0.0218
 4996TIP3    H136403   2.141   0.144   5.339  1.0562 -0.1233  0.9720
 4996TIP3    H236404   2.125   0.103   5.194  0.6236  1.8037  0.4500
 4997TIP3   OH236405   4.323   1.325  15.927 -0.4810 -0.4768  0.4055
 4997TIP3    H136406   4.274   1.406  15.943  0.5704  0.0844  0.9714
 4997TIP3    H236407   4.387   1.349  15.860 -2.2035 -1.7346 -1.8016
 4998TIP3   OH236408   2.079   0.840  16.955  0.1750  0.2507 -0.1177
 4998TIP3    H136409   2.163   0.866  16.918 -1.1425  2.1662 -1.9640
 4998TIP3    H236410   2.101   0.769  17.015  2.9629 -0.0840 -1.3648
 4999TIP3   OH236411   5.275   5.431  11.018  0.0214  0.4564  0.1925
 4999TIP3    H136412   5.242   5.498  10.958  1.4813  0.3870 -0.7294
 4999TIP3    H236413   5.370   5.430  11.004  0.1744 -0.9292  1.1002
 5000TIP3   OH236414   1.818   5.357  11.122  0.2866 -0.0293  0.1029
 5000TIP3    H136415   1.909   5.347  11.092 -0.3566 -0.9422 -1.7074
 5000TIP3    H236416   1.776   5.274  11.099 -0.9703  0.3032  1.0985
 5001TIP3   OH236417   1.060   1.621   0.669  0.0033 -0.0208 -0.2995
 5001TIP3    H136418   1.012   1.588   0.745  1.3673 -1.1113  0.1266
 5001TIP3    H236419   1.032   1.566   0.597  1.6818 -1.7202  0.2548
 5002TIP3   OH236420   0.029   2.969  11.295 -0.0782  0.2987 -0.0166
 5002TIP3    H136421  -0.017   2.889  11.267  1.3726 -0.0596 -1.5660
 5002TIP3    H236422   0.072   3.001  11.215  0.7445  1.7003  0.9414
 5003TIP3   OH236423   6.764   4.381  12.722 -0.1001 -0.2045  0.0344
 5003TIP3    H136424   6.749   4.379  12.627 -2.1268 -2.1980  0.3210
 5003TIP3    H236425   6.687   4.423  12.758 -0.2415 -1.1513  0.8994
 5004TIP3   OH236426   6.676   2.511   1.301 -0.6575 -0.2843  0.9413
 5004TIP3    H136427   6.713   2.464   1.375 -3.1736  0.6333  2.9511
 5004TIP3    H236428   6.739   2.581   1.283  0.9023 -1.6482  0.9230
 5005TIP3   OH236429   5.939   5.708   4.846 -0.4461  0.2005  0.4015
 5005TIP3    H136430   5.975   5.748   4.925 -1.3380  1.8564  0.0249
 5005TIP3    H236431   6.003   5.642   4.821  0.2705  0.2373  2.0164
 5006TIP3   OH236432   0.029   2.603  15.345  0.8286 -0.0642  0.3190
 5006TIP3    H136433  -0.023   2.610  15.425  1.0498  0.6100  0.4064
 5006TIP3    H236434  -0.036   2.595  15.275  0.6331 -2.4449  0.6950
 5007TIP3   OH236435   4.689   4.396  15.998  0.0001 -0.2377  0.0689
 5007TIP3    H136436   4.780   4.426  15.996 -0.2981  0.7617  0.6703
 5007TIP3    H236437   4.681   4.352  16.082 -0.1386 -0.0989  0.1280
 5008TIP3   OH236438   6.587   6.506  16.051  0.3379 -0.0106 -0.4032
 5008TIP3    H136439   6.616   6.597  16.056  0.5674 -0.1021 -0.0319
 5008TIP3    H236440   6.614   6.477  15.964  1.6636 -0.1876  0.0477
 5009TIP3   OH236441   3.954   6.560  16.125 -0.0323  0.7287 -0.2591
 5009TIP3    H136442   3.982   6.639  16.079  0.4465 -0.2386 -1.6825
 5009TIP3    H236443   3.990   6.570  16.213 -0.5193  2.3755 -0.2013
 5010TIP3   OH236444   6.122   4.766  12.693 -0.0536 -0.0176  0.4609
 5010TIP3    H136445   6.105   4.772  12.787 -0.4184 -0.6447  0.4374
 5010TIP3    H236446   6.068   4.835  12.655 -0.6741 -0.4102  0.6203
 5011TIP3   OH236447   4.018   6.219  14.305  0.1980  0.0742  0.3225
 5011TIP3    H136448   4.076   6.276  14.354 -1.4221  2.2662 -0.1640
 5011TIP3    H236449   3.955   6.278  14.265 -0.2030 -1.8734 -2.1362
 5012TIP3   OH236450   5.925   2.965   0.333  0.3137 -0.2719  0.2764
 5012TIP3    H136451   5.882   2.900   0.388 -0.0030 -0.5004 -0.2400
 5012TIP3    H236452   5.864   2.980   0.261  0.6036  0.2279  0.1288
 5013TIP3   OH236453   0.347   4.540  13.676  0.1298  0.3515 -0.2447
 5013TIP3    H136454   0.257   4.568  13.659  0.1910  0.6740 -0.0403
 5013TIP3    H236455   0.389   4.616  13.716 -0.5026 -0.8834  3.1415
 5014TIP3   OH236456   3.732   1.729   2.351 -0.3034 -0.2132  0.6838
 5014TIP3    H136457   3.700   1.779   2.426 -0.6624  0.1512  0.2969
 5014TIP3    H236458   3.802   1.674   2.386 -0.1979  0.2488  1.2013
 5015TIP3   OH236459   6.353   0.290   4.254 -0.0174  0.2735  0.2833
 5015TIP3    H136460   6.276   0.346   4.255  0.0495  0.3670  0.5910
 5015TIP3    H236461   6.325   0.210   4.297  0.2679  0.6090  1.1185
 5016TIP3   OH236462   0.141   3.427   2.975  0.5632  0.2792  0.3254
 5016TIP3    H136463   0.053   3.457   2.997 -0.3428 -1.2484 -1.0063
 5016TIP3    H236464   0.171   3.380   3.052 -0.4290 -0.5218  0.2360
 5017TIP3   OH236465   2.087   2.240   4.924 -0.5568  0.4075 -0.3442
 5017TIP3    H136466   2.103   2.150   4.951 -1.0204  0.7510  1.1866
 5017TIP3    H236467   2.133   2.249   4.840  1.1391 -0.6602  0.4329
 5018TIP3   OH236468   3.507   0.931  14.214  0.1777  0.2034 -0.1236
 5018TIP3    H136469   3.577   0.868  14.231  0.1174 -0.1189 -1.0281
 5018TIP3    H236470   3.551   1.008  14.178 -0.0218 -0.4640 -1.8885
 5019TIP3   OH236471   1.058   1.625   1.608  0.5575 -0.5291  0.8051
 5019TIP3    H136472   1.120   1.684   1.564 -1.3173  2.2925  1.6632
 5019TIP3    H236473   1.106   1.594   1.685  1.8348 -0.6818 -0.0201
 5020TIP3   OH236474   1.706   3.379   3.454  0.1100 -0.3466  0.3027
 5020TIP3    H136475   1.704   3.331   3.372  1.5895 -0.6412  0.3991
 5020TIP3    H236476   1.620   3.419   3.462 -0.5678 -1.5791 -0.6276
 5021TIP3   OH236477   0.044   6.375  17.078 -0.6258 -0.0074 -0.2518
 5021TIP3    H136478  -0.027   6.431  17.047 -2.2399 -1.6041  0.3697
 5021TIP3    H236479   0.083   6.424  17.150  0.8073  2.1300 -2.3638
 5022TIP3   OH236480   1.401   3.474   3.574 -0.1961  0.4095 -0.8257
 5022TIP3    H136481   1.438   3.468   3.662  1.5949  1.6590 -1.4284
 5022TIP3    H236482   1.334   3.405   3.571  1.4635 -1.3810  0.6581
 5023TIP3   OH236483   4.675   0.845  12.155  0.0385 -0.2515 -0.2743
 5023TIP3    H136484   4.590   0.865  12.115 -1.5797 -1.2747  2.3562
 5023TIP3    H236485   4.665   0.756  12.189  2.2902 -0.4883 -0.1009
 5024TIP3   OH236486   3.626   2.863   5.819  0.4050 -0.7182  0.2506
 5024TIP3    H136487   3.703   2.905   5.781  0.1683 -0.3937  0.1231
 5024TIP3    H236488   3.608   2.789   5.761  1.0592 -1.2459  0.6981
 5025TIP3   OH236489   1.731   6.662  12.576 -0.1874  0.3881  0.4107
 5025TIP3    H136490   1.669   6.596  12.609  0.8209 -0.5921  0.4195
 5025TIP3    H236491   1.785   6.614  12.514  0.7690  1.1437  0.6458
 5026TIP3   OH236492   1.433   3.425  11.617 -0.3082 -0.3592  0.1256
 5026TIP3    H136493   1.397   3.341  11.647  2.8481 -1.9960 -0.2429
 5026TIP3    H236494   1.407   3.431  11.525  0.6181 -1.7053 -0.2535
 5027TIP3   OH236495   6.422   6.680  13.024 -0.8714  0.1959  0.7714
 5027TIP3    H136496   6.335   6.678  13.064 -1.7997  1.0034 -1.1218
 5027TIP3    H236497   6.406   6.697  12.931  1.3996  2.4745  0.6881
 5028TIP3   OH236498   2.054   0.700   3.909 -0.0541  0.3240  0.2224
 5028TIP3    H136499   2.124   0.739   3.960  0.6538 -0.6380  0.0117
 5028TIP3    H236500   2.002   0.651   3.973  0.2352 -0.0398  0.1811
 5029TIP3   OH236501   3.207   5.698   3.975  0.3857 -0.4024  0.2182
 5029TIP3    H136502   3.286   5.749   3.957 -0.3174  0.8592  0.5998
 5029TIP3    H236503   3.217   5.671   4.067 -0.0729  0.6279  0.5885
 5030TIP3   OH236504   0.387   5.640  10.487  0.6099  0.0448 -0.2017
 5030TIP3    H136505   0.332   5.709  10.449  1.1441 -0.1880 -1.4335
 5030TIP3    H236506   0.338   5.610  10.563 -0.8938 -0.0385 -1.1634
 5031TIP3   OH236507   1.736   5.564   3.882 -0.0560 -0.6341  0.2691
 5031TIP3    H136508   1.789   5.627   3.832  1.9647 -1.3547  1.3815
 5031TIP3    H236509   1.698   5.507   3.816 -0.7847  0.8672 -0.6754
 5032TIP3   OH236510   5.026   4.854  12.872  0.1107 -0.2924 -0.1736
 5032TIP3    H136511   5.056   4.827  12.785  0.0112  0.8773 -0.5838
 5032TIP3    H236512   4.990   4.941  12.859 -1.1666 -0.6510  0.7920
 5033TIP3   OH236513   2.635   1.133  14.283 -0.0764 -0.4984 -0.0332
 5033TIP3    H136514   2.558   1.153  14.229  1.4963  2.2622 -1.5104
 5033TIP3    H236515   2.601   1.130  14.372 -1.9978 -0.0422 -0.6970
 5034TIP3   OH236516   6.767   1.930  11.491 -0.2304  0.1164  0.0019
 5034TIP3    H136517   6.780   1.976  11.408 -1.1455 -0.1204 -0.2878
 5034TIP3    H236518   6.845   1.875  11.501  0.3363  0.8749 -0.2127
 5035TIP3   OH236519   5.636   6.303  15.926  0.0408 -0.1607  0.6083
 5035TIP3    H136520   5.607   6.385  15.887 -3.3430 -1.6300 -0.3055
 5035TIP3    H236521   5.655   6.246  15.851  1.5894 -0.5213  1.2261
 5036TIP3   OH236522   4.621   5.961   5.670 -0.4771  0.1179 -0.0973
 5036TIP3    H136523   4.589   5.951   5.580 -2.5008 -0.1644  0.6055
 5036TIP3    H236524   4.670   6.044   5.669 -0.7223  0.2690 -1.3804
 5037TIP3   OH236525   2.235   3.984   2.216  0.3495 -0.0820  0.0364
 5037TIP3    H136526   2.172   3.998   2.145  0.1519 -0.6225  0.1031
 5037TIP3    H236527   2.227   3.891   2.237  1.2088 -0.1741  0.0023
 5038TIP3   OH236528   2.014   2.993   3.057 -0.1742  0.2753 -0.5997
 5038TIP3    H136529   2.098   2.962   3.093 -1.1283 -1.3964  0.3600
 5038TIP3    H236530   2.035   3.076   3.014  2.0897 -0.4098 -0.9689
 5039TIP3   OH236531   5.905   0.407  14.264  0.5494 -0.6160  0.2375
 5039TIP3    H136532   5.949   0.324  14.244 -0.8526 -1.4653  0.5089
 5039TIP3    H236533   5.915   0.418  14.358  0.1249 -0.8659  0.3172
 5040TIP3   OH236534   1.152   3.693  15.046 -0.3033  0.4813 -0.0449
 5040TIP3    H136535   1.219   3.761  15.055  0.8642 -0.7332  0.9987
 5040TIP3    H236536   1.117   3.682  15.134 -0.9004  0.1555 -0.3190
 5041TIP3   OH236537   4.536   0.953   2.456  0.0981 -0.0138 -0.1632
 5041TIP3    H136538   4.550   0.892   2.528 -0.3953  0.5567  0.4388
 5041TIP3    H236539   4.448   0.988   2.471 -0.7519 -1.1655 -2.0268
 5042TIP3   OH236540   1.146   2.199  17.030 -0.0856 -0.1851 -0.3450
 5042TIP3    H136541   1.172   2.167  17.116  1.8770  1.3705 -0.2950
 5042TIP3    H236542   1.050   2.191  17.029  0.0067 -2.1370  1.1579
 5043TIP3   OH236543   2.452   6.767  13.912  0.0327  0.4673  0.7110
 5043TIP3    H136544   2.528   6.794  13.963 -1.1814  2.2450  1.6548
 5043TIP3    H236545   2.490   6.729  13.832  1.9798 -2.0015  2.6163
 5044TIP3   OH236546   3.398   6.221  11.679  0.3643 -0.0319  0.5352
 5044TIP3    H136547   3.436   6.146  11.634  0.4791 -0.2009  0.9036
 5044TIP3    H236548   3.437   6.297  11.636  0.0887 -0.1789  0.0223
 5045TIP3   OH236549   2.677   1.638   2.565  0.2821 -0.0631  0.0462
 5045TIP3    H136550   2.766   1.643   2.600  0.6827  2.0644 -1.1166
 5045TIP3    H236551   2.644   1.554   2.596  2.4871 -0.6569  0.9815
 5046TIP3   OH236552   1.812   6.710   4.790  0.3620 -0.3468  0.2573
 5046TIP3    H136553   1.863   6.666   4.858  0.8435 -1.4216 -0.7715
 5046TIP3    H236554   1.721   6.699   4.817  0.3334 -3.3215 -0.6668
 5047TIP3   OH236555   0.315   5.698  13.105  0.9710  0.3887  0.2117
 5047TIP3    H136556   0.351   5.780  13.071  1.3026  0.0510 -0.2688
 5047TIP3    H236557   0.310   5.710  13.200  1.2192  0.8828  0.1614
 5048TIP3   OH236558   0.778   2.674  15.390 -0.4959 -0.6696  0.4118
 5048TIP3    H136559   0.799   2.581  15.382  0.3221 -0.6062  1.6501
 5048TIP3    H236560   0.862   2.718  15.376 -1.1142 -0.0152 -1.5246
 5049TIP3   OH236561   6.227   6.707  10.722 -0.1127  0.4359  0.6734
 5049TIP3    H136562   6.264   6.795  10.720  2.0938 -0.4187  0.9707
 5049TIP3    H236563   6.197   6.695  10.812 -1.0370  1.0937  0.4652
 5050TIP3   OH236564   2.251   1.261  11.400  0.7626  0.0749 -0.4740
 5050TIP3    H136565   2.333   1.224  11.432  0.7203  0.8804  0.6160
 5050TIP3    H236566   2.277   1.338  11.350  0.6158  1.4162  1.4222
 5051TIP3   OH236567   6.043   6.758   4.008 -0.7240  0.1185  0.6964
 5051TIP3    H136568   5.967   6.727   3.958  0.0698 -0.9253  0.0909
 5051TIP3    H236569   6.067   6.840   3.966 -0.1586 -0.6677 -0.6035
 5052TIP3   OH236570   1.495   4.396   2.357 -0.0598 -0.3970 -0.0748
 5052TIP3    H136571   1.525   4.346   2.281  1.2227 -1.3020  0.9920
 5052TIP3    H236572   1.526   4.347   2.433  0.5262  1.5572  1.0328
 5053TIP3   OH236573   0.403   3.114  12.693 -0.4689  0.3249  0.3902
 5053TIP3    H136574   0.342   3.185  12.710 -2.0632 -1.0718  0.7604
 5053TIP3    H236575   0.354   3.051  12.639  1.3228  0.0952 -1.0894
 5054TIP3   OH236576   4.096   0.422  15.442 -0.0540  0.5116  0.6983
 5054TIP3    H136577   4.035   0.428  15.515 -1.3169  2.4033 -0.4285
 5054TIP3    H236578   4.041   0.402  15.366  0.5599  2.7733 -0.4490
 5055TIP3   OH236579   5.636   3.158   0.943  0.1921 -0.1754 -0.2428
 5055TIP3    H136580   5.596   3.149   0.857  0.0218  3.0770 -0.6349
 5055TIP3    H236581   5.579   3.219   0.990 -1.2114 -3.7742  3.2787
 5056TIP3   OH236582   0.285   3.409   2.056  0.3024 -0.7136  0.0808
 5056TIP3    H136583   0.313   3.356   1.981  0.3163  0.8233 -1.0562
 5056TIP3    H236584   0.336   3.490   2.049  0.2438 -0.4984  1.7293
 5057TIP3   OH236585   3.838   5.413  12.482  0.5690 -0.0128 -0.1585
 5057TIP3    H136586   3.836   5.405  12.577 -0.9912  3.0544  0.1768
 5057TIP3    H236587   3.928   5.392  12.458  0.8491 -1.4017  1.8915
 5058TIP3   OH236588   5.220   0.786   3.725 -0.1366 -0.2036  0.4207
 5058TIP3    H136589   5.220   0.693   3.749  2.1382 -0.0918  1.0282
 5058TIP3    H236590   5.284   0.792   3.654 -1.5908  0.6517 -0.8950
 5059TIP3   OH236591   3.981   0.899   2.866  0.2064 -0.2139  0.3312
 5059TIP3    H136592   3.964   0.870   2.777  0.9809 -2.3787  0.8432
 5059TIP3    H236593   3.906   0.956   2.887 -0.3038 -0.1589 -1.4502
 5060TIP3   OH236594   5.698   2.134  12.815 -0.2515 -0.4796  0.1419
 5060TIP3    H136595   5.633   2.163  12.751 -1.1467 -3.8882 -0.6693
 5060TIP3    H236596   5.782   2.142  12.768 -0.1416  2.2489  0.5966
 5061TIP3   OH236597   2.585   2.572  13.418  0.1250  0.7028 -0.4673
 5061TIP3    H136598   2.612   2.513  13.488  0.1271  1.3823  0.1169
 5061TIP3    H236599   2.492   2.552  13.404  0.4328 -0.3270 -1.1781
 5062TIP3   OH236600   1.519   1.046  14.669  0.1009  0.3728 -0.2167
 5062TIP3    H136601   1.550   1.067  14.581  1.6032  0.6161  0.3362
 5062TIP3    H236602   1.593   1.001  14.711 -0.0330  1.5097  1.3702
 5063TIP3   OH236603   2.149   2.838   6.195  0.0238 -0.7494 -0.2718
 5063TIP3    H136604   2.194   2.908   6.147 -0.3696  0.7097  1.3869
 5063TIP3    H236605   2.197   2.831   6.277 -2.1859  0.2571  1.1807
 5064TIP3   OH236606   2.142   2.880   3.390 -0.6939 -0.3274 -0.4893
 5064TIP3    H136607   2.175   2.956   3.343 -0.7444 -0.5790 -0.9324
 5064TIP3    H236608   2.185   2.805   3.349  1.2120 -0.4136  1.4836
 5065TIP3   OH236609   5.786   2.451   4.883  0.1779  0.5341  0.2698
 5065TIP3    H136610   5.879   2.467   4.896  0.5996 -1.9316  0.7138
 5065TIP3    H236611   5.743   2.506   4.948  1.4148  0.5889  1.0683
 5066TIP3   OH236612   0.406   2.264   3.781 -0.3285  0.4335  0.1557
 5066TIP3    H136613   0.422   2.262   3.686 -1.5431 -2.1843 -0.0829
 5066TIP3    H236614   0.418   2.173   3.809  1.9898  1.4403  2.9457
 5067TIP3   OH236615   0.503   0.642   0.211 -0.8439 -0.1732  0.3717
 5067TIP3    H136616   0.591   0.612   0.189 -0.3499  0.6538  1.1335
 5067TIP3    H236617   0.454   0.634   0.129  0.2691  0.4942 -0.3934
 5068TIP3   OH236618   2.361   6.467   1.262  0.0487  0.3713  0.2862
 5068TIP3    H136619   2.313   6.431   1.188 -1.0774  0.5976  0.8802
 5068TIP3    H236620   2.393   6.391   1.310  1.2700  0.2281 -0.7189
 5069TIP3   OH236621   4.804   1.115   2.102 -0.3263 -0.1986  0.2937
 5069TIP3    H136622   4.791   1.024   2.129  0.2736 -0.3966 -0.0689
 5069TIP3    H236623   4.744   1.127   2.029  0.3945 -0.6573 -0.3962
 5070TIP3   OH236624   1.594   6.429   0.037 -0.1156 -0.1211 -0.3161
 5070TIP3    H136625   1.576   6.369  -0.036  0.2997  0.3699 -0.8252
 5070TIP3    H236626   1.524   6.411   0.099 -0.4956 -0.5263 -0.8450
 5071TIP3   OH236627   3.116   3.639   1.717 -0.2425  0.3315  0.3649
 5071TIP3    H136628   3.062   3.586   1.777 -0.3428 -0.6228 -0.5476
 5071TIP3    H236629   3.056   3.665   1.648  0.5588 -1.2699 -0.9984
 5072TIP3   OH236630   1.498   2.770  15.302  0.0026  0.1440  0.7433
 5072TIP3    H136631   1.435   2.732  15.241  1.0552 -1.5442  0.6518
 5072TIP3    H236632   1.445   2.804  15.374 -0.9844 -1.9300  1.0480
 5073TIP3   OH236633   2.077   2.401   5.803  0.5669 -0.3686  0.2391
 5073TIP3    H136634   2.065   2.489   5.766  0.7154 -0.2359  0.5062
 5073TIP3    H236635   2.021   2.400   5.881  0.6992 -0.4546  0.3330
 5074TIP3   OH236636   4.858   5.311   3.582  0.2268 -0.1326  0.4245
 5074TIP3    H136637   4.765   5.302   3.564  0.1692  0.0322  0.6414
 5074TIP3    H236638   4.895   5.346   3.501  0.0555  0.0832  0.4401
 5075TIP3   OH236639   4.437   4.590   3.988  0.5464  0.5368  0.1172
 5075TIP3    H136640   4.450   4.678   3.953  1.0321  0.0064 -1.0811
 5075TIP3    H236641   4.437   4.532   3.911 -3.1385 -0.2167  0.4876
 5076TIP3   OH236642   2.537   5.514  15.327 -0.2942  0.1729  0.4159
 5076TIP3    H136643   2.610   5.556  15.283 -1.1303  0.7921 -0.4147
 5076TIP3    H236644   2.492   5.465  15.258 -0.5141 -0.4173  0.9668
 5077TIP3   OH236645   4.682   2.459   1.354 -0.7475  0.0628 -0.2373
 5077TIP3    H136646   4.726   2.396   1.411  0.8290  0.4820 -0.9177
 5077TIP3    H236647   4.737   2.537   1.359 -1.5148  0.6695 -1.0185
 5078TIP3   OH236648   1.839   3.466  11.902  0.1553 -0.1964 -0.4455
 5078TIP3    H136649   1.774   3.450  11.971 -0.5052  0.7260 -0.8308
 5078TIP3    H236650   1.853   3.381  11.862  0.4266 -0.7208  0.7216
 5079TIP3   OH236651   1.010   3.951   3.593  0.2844  0.0439  0.3450
 5079TIP3    H136652   0.996   3.903   3.675  0.5146 -0.9111 -0.1546
 5079TIP3    H236653   1.040   3.884   3.532 -2.2029  0.2497 -1.2095
 5080TIP3   OH236654   1.865   4.338  12.396 -0.8511  0.1937  0.8077
 5080TIP3    H136655   1.957   4.342  12.421 -0.5711  1.5096 -0.2979
 5080TIP3    H236656   1.854   4.252  12.356  0.1626  0.4162  0.0158
 5081TIP3   OH236657   5.622   5.456  11.876  0.1201 -0.7066 -0.3606
 5081TIP3    H136658   5.562   5.502  11.817  1.6686  0.5632 -1.0051
 5081TIP3    H236659   5.570   5.383  11.910 -1.0717 -1.0385 -2.6990
 5082TIP3   OH236660   5.596   5.689   5.161  0.3305  0.6332 -0.1084
 5082TIP3    H136661   5.592   5.712   5.068  0.1351 -2.7623 -1.0714
 5082TIP3    H236662   5.687   5.707   5.185  0.4530  1.3172 -0.9957
 5083TIP3   OH236663   1.676   2.013  12.201 -0.3180  0.7152 -0.3535
 5083TIP3    H136664   1.662   1.920  12.221  0.1201  0.8353  0.5428
 5083TIP3    H236665   1.626   2.060  12.267  0.0732  1.1170 -0.3383
 5084TIP3   OH236666   2.521   2.133   1.521 -0.1412  0.6737  0.2994
 5084TIP3    H136667   2.600   2.143   1.467 -1.3822 -1.6206 -2.1469
 5084TIP3    H236668   2.462   2.081   1.468 -2.3500  0.0627  3.1164
 5085TIP3   OH236669   5.260   3.449   0.281 -0.3109  0.4078 -0.2934
 5085TIP3    H136670   5.283   3.540   0.262 -1.7973  1.2322  1.5762
 5085TIP3    H236671   5.184   3.432   0.225  1.1630 -0.4330 -2.1704
 5086TIP3   OH236672   1.838   4.001   4.808  0.0822  0.0945 -0.0952
 5086TIP3    H136673   1.919   4.049   4.825 -0.0349  0.0467  0.6146
 5086TIP3    H236674   1.802   4.042   4.729  0.3762  0.6611  0.0643
 5087TIP3   OH236675   0.103   5.578   2.242  0.1436  0.2010  0.2207
 5087TIP3    H136676   0.139   5.661   2.211 -1.8473  0.6859 -0.9944
 5087TIP3    H236677   0.160   5.552   2.314  0.0772  3.3255  1.5769
 5088TIP3   OH236678   0.555   3.834   3.067  0.1278  0.5264  0.5873
 5088TIP3    H136679   0.588   3.764   3.123  1.3782  0.6612  0.0331
 5088TIP3    H236680   0.493   3.791   3.008  1.1699 -0.1997 -0.0021
 5089TIP3   OH236681   2.256   1.783   5.200 -0.0841 -0.1730 -0.2994
 5089TIP3    H136682   2.198   1.750   5.269 -1.0483 -0.2282 -1.1125
 5089TIP3    H236683   2.296   1.862   5.237  0.3326 -0.8535  0.7507
 5090TIP3   OH236684   6.692   2.515   2.948 -0.0467  0.1191  0.3918
 5090TIP3    H136685   6.673   2.605   2.921  0.6517 -0.2144 -1.2904
 5090TIP3    H236686   6.612   2.487   2.993 -0.8536  1.0949 -0.3765
 5091TIP3   OH236687   6.625   3.420   6.025 -0.4950 -0.3657 -0.5383
 5091TIP3    H136688   6.571   3.347   5.996  0.0717 -1.5372  1.1452
 5091TIP3    H236689   6.574   3.462   6.094 -0.9026  0.9933 -1.6342
 5092TIP3   OH236690   4.882   4.196  13.505  0.0987  0.0808  0.2453
 5092TIP3    H136691   4.942   4.234  13.441  0.1991 -0.2495  0.1448
 5092TIP3    H236692   4.842   4.122  13.461 -1.5631  1.1945 -0.2370
 5093TIP3   OH236693   2.689   2.667  14.908 -0.0498 -0.0030 -0.0762
 5093TIP3    H136694   2.654   2.641  14.823 -0.4298  0.3786 -0.0402
 5093TIP3    H236695   2.777   2.700  14.887  1.7722 -4.0439  0.2323
 5094TIP3   OH236696   6.490   4.609   3.123  0.7853 -0.1517  0.0351
 5094TIP3    H136697   6.415   4.668   3.116  1.5575  0.7194 -1.6007
 5094TIP3    H236698   6.550   4.653   3.183 -0.0884 -0.9698  1.5423
 5095TIP3   OH236699   5.396   0.674  12.951 -0.6270 -0.4986  0.6622
 5095TIP3    H136700   5.465   0.611  12.972  0.1000  0.7178  2.0858
 5095TIP3    H236701   5.443   0.753  12.923 -1.3414  0.7033  2.6288
 5096TIP3   OH236702   0.203   2.140  12.856 -0.4234 -0.1909  0.2535
 5096TIP3    H136703   0.262   2.119  12.783 -0.9123 -1.2288  0.1401
 5096TIP3    H236704   0.243   2.216  12.898 -0.0837  0.3752 -1.0447
 5097TIP3   OH236705   0.403   3.996  15.219  0.6293 -0.1238 -0.0720
 5097TIP3    H136706   0.318   3.985  15.262  0.6573 -0.3792 -0.0819
 5097TIP3    H236707   0.459   4.034  15.286  0.8437 -1.0954  0.3131
 5098TIP3   OH236708   4.510   0.384  15.295  0.7772  0.1756 -0.0133
 5098TIP3    H136709   4.544   0.472  15.284  0.7316  0.0402 -1.4572
 5098TIP3    H236710   4.550   0.333  15.224  0.1513 -0.7625  0.2753
 5099TIP3   OH236711   1.194   1.639  12.116 -0.3584  0.2372 -0.3299
 5099TIP3    H136712   1.179   1.733  12.121 -1.0593  0.2860 -2.4652
 5099TIP3    H236713   1.231   1.625  12.029  3.6999 -1.0209  1.3602
 5100TIP3   OH236714   4.548   1.211  15.422  0.3077  0.0931  0.1821
 5100TIP3    H136715   4.465   1.222  15.469 -1.3218 -0.8535 -2.2653
 5100TIP3    H236716   4.550   1.284  15.360  1.2398  0.0197  0.1156
 5101TIP3   OH236717   0.357   2.598  12.299  0.4050  0.8830  0.5407
 5101TIP3    H136718   0.385   2.687  12.279 -1.6462  1.6629  0.9182
 5101TIP3    H236719   0.272   2.608  12.342 -0.4593 -1.2996 -0.4793
 5102TIP3   OH236720   2.747   3.429  15.281  0.3990 -0.5704  0.5802
 5102TIP3    H136721   2.675   3.374  15.250  0.0641  0.3445 -0.3078
 5102TIP3    H236722   2.801   3.370  15.334  0.4049 -1.9020 -0.8607
 5103TIP3   OH236723   3.351   2.061  16.136  0.1655 -0.1226 -0.1677
 5103TIP3    H136724   3.424   2.025  16.187  1.0079  0.2430 -1.0574
 5103TIP3    H236725   3.312   1.985  16.093 -0.9041 -0.5002  1.4162
 5104TIP3   OH236726   2.612   2.755  17.105  0.8685  0.4899  0.2726
 5104TIP3    H136727   2.677   2.700  17.062  0.5919 -0.0763  0.5692
 5104TIP3    H236728   2.583   2.816  17.037  0.6017 -0.2448 -0.2891
 5105TIP3   OH236729   5.889   6.004  11.984 -0.9005 -0.1546  0.4886
 5105TIP3    H136730   5.967   6.055  12.000 -0.1351 -1.1237 -0.0425
 5105TIP3    H236731   5.864   5.971  12.070 -0.0109 -0.8295  0.5019
 5106TIP3   OH236732   0.427   4.747  13.036 -0.1562 -0.1146 -0.0801
 5106TIP3    H136733   0.375   4.828  13.034  0.8169  0.5158 -0.9804
 5106TIP3    H236734   0.508   4.772  13.080  0.0261 -0.6810 -0.0909
 5107TIP3   OH236735   6.650   4.730  12.072 -0.3073 -0.4608 -0.6842
 5107TIP3    H136736   6.727   4.757  12.022 -0.2116 -1.5205 -1.1392
 5107TIP3    H236737   6.685   4.696  12.154 -0.5112  2.0229  0.5086
 5108TIP3   OH236738   0.225   2.343   0.945 -0.2707  0.2652  0.3368
 5108TIP3    H136739   0.294   2.352   0.880 -0.0875 -1.4411  0.2449
 5108TIP3    H236740   0.208   2.432   0.975 -0.4016  1.1090 -2.0674
 5109TIP3   OH236741   5.411   6.462   6.207 -0.0081  0.5904  0.4791
 5109TIP3    H136742   5.472   6.524   6.166  1.5430 -0.6937  0.7553
 5109TIP3    H236743   5.359   6.516   6.266  2.0231  1.5477  1.5221
 5110TIP3   OH236744   4.585   6.009  16.048 -0.3392  0.3860 -0.1665
 5110TIP3    H136745   4.557   6.039  15.961 -1.2411 -1.9341 -0.7535
 5110TIP3    H236746   4.504   6.001  16.098 -0.1557 -0.8646 -0.0194
 5111TIP3   OH236747   6.654   5.348   5.974 -0.1685  0.3488  0.1152
 5111TIP3    H136748   6.631   5.326   6.064  1.0648  0.2482  0.4169
 5111TIP3    H236749   6.615   5.278   5.921 -0.4588  0.1312  0.6162
 5112TIP3   OH236750   2.648   3.865   4.687 -0.1669 -0.0249  0.1536
 5112TIP3    H136751   2.585   3.852   4.616  0.8428  1.7693 -1.1524
 5112TIP3    H236752   2.733   3.864   4.643  0.4645  1.5047  1.2779
 5113TIP3   OH236753   3.779   5.668  14.240 -0.6117 -0.1891 -0.0741
 5113TIP3    H136754   3.844   5.714  14.187 -1.4587 -0.3649 -1.3209
 5113TIP3    H236755   3.752   5.731  14.306 -2.0150  1.3260 -1.9653
 5114TIP3   OH236756   3.106   4.977   1.893  0.2354  0.3310  0.4196
 5114TIP3    H136757   3.151   4.904   1.849  0.8497  0.6832  0.4506
 5114TIP3    H236758   3.151   4.985   1.977 -1.2028 -0.6154  1.3211
 5115TIP3   OH236759   3.238   5.101  15.501 -0.0596 -0.3941  0.4567
 5115TIP3    H136760   3.277   5.172  15.451  0.0309 -1.9713 -1.8345
 5115TIP3    H236761   3.160   5.077  15.453 -3.2138  1.5531  4.0317
 5116TIP3   OH236762   0.913   4.126   2.660 -0.4506  0.3486  0.1691
 5116TIP3    H136763   1.001   4.162   2.675 -0.5675  0.2278  1.2123
 5116TIP3    H236764   0.854   4.190   2.701 -0.7899 -0.0502  0.3045
 5117TIP3   OH236765   1.684   3.037  16.699 -0.1558  0.7466  0.1118
 5117TIP3    H136766   1.774   3.006  16.711 -0.0585  0.9272 -0.1347
 5117TIP3    H236767   1.660   3.073  16.784 -0.0853  0.4651  0.2511
 5118TIP3   OH236768   3.770   0.669   4.700 -0.1614 -0.4126 -0.0117
 5118TIP3    H136769   3.739   0.760   4.700 -1.9899 -0.9789 -1.4823
 5118TIP3    H236770   3.703   0.621   4.747 -0.4243 -1.3358 -1.2836
 5119TIP3   OH236771   2.970   4.919   0.170  0.3783  0.1267  0.1322
 5119TIP3    H136772   3.053   4.901   0.125 -0.3930 -3.7216 -0.0761
 5119TIP3    H236773   2.988   4.902   0.262  0.1247  0.6231  0.2784
 5120TIP3   OH236774   1.501   5.750  11.267  0.1496  0.2161  0.2768
 5120TIP3    H136775   1.484   5.767  11.175  0.2888  0.1587  0.2410
 5120TIP3    H236776   1.566   5.680  11.268 -1.3125 -1.1857  0.4340
 5121TIP3   OH236777   3.431   2.617  16.410  0.4925  0.2409  0.0259
 5121TIP3    H136778   3.488   2.678  16.457  0.0731  0.6779 -0.0264
 5121TIP3    H236779   3.361   2.672  16.375 -0.0707 -0.3168  0.2557
 5122TIP3   OH236780   3.813   3.757  12.592 -0.4499 -0.1608  0.4950
 5122TIP3    H136781   3.888   3.812  12.568 -0.1325  0.0657  1.9271
 5122TIP3    H236782   3.776   3.729  12.508 -0.3458  1.8625 -0.2655
 5123TIP3   OH236783   0.905   4.678  10.893  0.6657 -0.5350 -0.1644
 5123TIP3    H136784   0.823   4.685  10.942  2.0301 -1.2147  2.4048
 5123TIP3    H236785   0.949   4.762  10.907  1.5369 -1.1204  0.7528
 5124TIP3   OH236786   5.811   4.419  14.086 -0.0336  0.0230 -0.6763
 5124TIP3    H136787   5.775   4.331  14.087 -0.1302  0.0629 -0.3469
 5124TIP3    H236788   5.829   4.437  13.994  1.2388 -0.8359 -0.6160
 5125TIP3   OH236789   5.903   5.302  12.232  0.1992 -0.9502 -0.2935
 5125TIP3    H136790   5.840   5.336  12.295 -0.0740 -0.0370 -1.0247
 5125TIP3    H236791   5.851   5.247  12.173 -0.3225  1.1135 -1.9027
 5126TIP3   OH236792   5.037   2.596  15.349  0.3849  0.5236 -0.2475
 5126TIP3    H136793   5.045   2.526  15.285 -0.1587 -0.2908  0.5519
 5126TIP3    H236794   5.109   2.582  15.410 -0.1295  0.2234  0.3065
 5127TIP3   OH236795   1.420   4.369  16.861 -0.4815  0.0107  0.0496
 5127TIP3    H136796   1.371   4.313  16.802  0.1245 -0.0112 -0.4377
 5127TIP3    H236797   1.356   4.396  16.927 -1.4041  0.7579 -1.1048
 5128TIP3   OH236798   2.959   0.497   5.959  0.3702  0.2310 -0.1474
 5128TIP3    H136799   2.891   0.523   6.021  2.6827  1.3899  2.1343
 5128TIP3    H236800   3.041   0.507   6.008  2.1545 -2.2423 -2.3222
 5129TIP3   OH236801   4.380   5.792   5.789 -0.7979 -0.3096 -0.0390
 5129TIP3    H136802   4.371   5.818   5.881 -1.7570 -0.5648 -0.0457
 5129TIP3    H236803   4.443   5.854   5.753  0.4703 -0.9126  1.0508
 5130TIP3   OH236804   2.989   3.058   3.929  0.0427 -0.7703  0.7660
 5130TIP3    H136805   3.030   3.004   3.862 -1.8697 -2.7416  1.0874
 5130TIP3    H236806   2.914   3.098   3.885 -0.0851 -0.4870  1.2315
 5131TIP3   OH236807   0.742   5.895  13.768  0.4022 -0.1761  0.3647
 5131TIP3    H136808   0.770   5.986  13.759  0.1154  0.0676  1.7567
 5131TIP3    H236809   0.776   5.852  13.689  3.5576  0.3779  1.2731
 5132TIP3   OH236810   1.227   3.843   2.339 -0.0858  0.2155  1.1671
 5132TIP3    H136811   1.171   3.776   2.297  0.0556  0.3838  0.6990
 5132TIP3    H236812   1.165   3.904   2.378 -0.2194 -0.1038  1.4586
 5133TIP3   OH236813   5.119   5.009  15.232  0.5104 -0.2822 -0.8637
 5133TIP3    H136814   5.067   5.041  15.158  0.2468  0.6567 -0.2941
 5133TIP3    H236815   5.201   5.058  15.225  0.9435 -1.0402 -1.1900
 5134TIP3   OH236816   2.330   6.725  14.589 -0.7681  0.2976 -0.4711
 5134TIP3    H136817   2.331   6.804  14.644  0.2847  0.0520 -0.1183
 5134TIP3    H236818   2.347   6.653  14.650 -0.0281 -0.0257 -1.0446
 5135TIP3   OH236819   1.008   1.792   3.752  0.5100 -0.4279  0.0565
 5135TIP3    H136820   1.026   1.885   3.764 -1.0504 -0.3855  2.9187
 5135TIP3    H236821   1.013   1.755   3.840  0.5360 -2.9677 -0.9317
 5136TIP3   OH236822   6.433   5.379  13.271  0.5616  0.1610 -0.0716
 5136TIP3    H136823   6.458   5.333  13.191  2.2690  0.1287  0.4535
 5136TIP3    H236824   6.476   5.464  13.265 -2.5604  1.8261 -1.0278
 5137TIP3   OH236825   5.095   5.863   1.360 -0.2153  0.0644  0.1963
 5137TIP3    H136826   5.156   5.906   1.420 -1.0601  1.7731 -0.1040
 5137TIP3    H236827   5.057   5.935   1.309 -2.7337 -0.8561  0.6137
 5138TIP3   OH236828   3.389   2.416   6.417 -0.0005 -0.3593 -0.3676
 5138TIP3    H136829   3.464   2.426   6.359  0.4099  0.1665  0.2283
 5138TIP3    H236830   3.389   2.497   6.470 -2.2129  0.6109 -1.7314
 5139TIP3   OH236831   0.923   3.046   1.147  0.6621 -0.1986 -0.7172
 5139TIP3    H136832   0.975   3.109   1.196 -0.5808 -1.3181  2.2930
 5139TIP3    H236833   0.869   3.099   1.088 -0.2885  1.6369  1.6523
 5140TIP3   OH236834   6.354   2.518   0.197  0.0780 -0.0448 -0.2877
 5140TIP3    H136835   6.374   2.425   0.191  0.4923 -0.1500  1.8302
 5140TIP3    H236836   6.294   2.535   0.124 -2.6526 -2.6901  1.1335
 5141TIP3   OH236837   5.993   6.248  16.624  0.1095 -0.3342  0.1804
 5141TIP3    H136838   5.996   6.153  16.635 -1.2605 -0.6461 -1.5214
 5141TIP3    H236839   5.927   6.277  16.687 -1.0123 -0.8407 -0.7090
 5142TIP3   OH236840   5.014   4.959  16.163  0.1381 -0.1502 -0.5876
 5142TIP3    H136841   4.965   5.027  16.117 -0.3263 -0.7674 -1.0311
 5142TIP3    H236842   4.965   4.878  16.146  0.3142 -0.4969  0.4622
 5143TIP3   OH236843   1.452   0.671   2.907 -0.4344  0.1974 -0.7938
 5143TIP3    H136844   1.449   0.760   2.872 -1.2235  0.5860  0.2000
 5143TIP3    H236845   1.545   0.650   2.913 -0.1942  1.3419 -0.1430
 5144TIP3   OH236846   0.497   6.303   5.722  0.4108 -0.4069  0.1166
 5144TIP3    H136847   0.558   6.264   5.660 -0.0441 -0.4704 -0.2904
 5144TIP3    H236848   0.505   6.248   5.800  0.4049 -0.7976 -0.1551
 5145TIP3   OH236849   6.267   2.202  12.287 -0.0748  0.6315  0.1321
 5145TIP3    H136850   6.234   2.122  12.328 -0.4401  1.0071  0.5781
 5145TIP3    H236851   6.304   2.172  12.203  0.1464 -0.0567  0.4671
 5146TIP3   OH236852   5.442   2.554   0.254 -0.6899 -0.3865  0.2408
 5146TIP3    H136853   5.494   2.621   0.210 -1.6294  0.1534 -0.0748
 5146TIP3    H236854   5.466   2.472   0.210  0.3518 -0.2519  0.5280
 5147TIP3   OH236855   3.180   5.077   5.617 -0.4423  0.0017 -0.7698
 5147TIP3    H136856   3.146   4.989   5.637  1.7008 -1.0221 -1.2654
 5147TIP3    H236857   3.193   5.118   5.702  1.1655 -1.3028 -0.3066
 5148TIP3   OH236858   4.109   3.425  12.437 -0.1190 -0.1720  0.3935
 5148TIP3    H136859   4.193   3.383  12.460  0.8924  1.4095 -0.2598
 5148TIP3    H236860   4.114   3.512  12.476 -1.7435 -0.2656  0.8582
 5149TIP3   OH236861   2.733   4.205  12.989 -0.3760  0.5014  0.0144
 5149TIP3    H136862   2.817   4.173  12.955  0.6870  1.8625  1.2155
 5149TIP3    H236863   2.719   4.154  13.069 -0.6570  0.3497 -0.1299
 5150TIP3   OH236864   2.968   0.164  14.983  0.5766 -0.3133  0.6721
 5150TIP3    H136865   3.008   0.093  14.933 -0.3282 -0.0842 -0.3909
 5150TIP3    H236866   2.930   0.120  15.059 -1.9556 -1.3679 -1.0747
 5151TIP3   OH236867   1.589   3.356  14.642 -0.6179  0.1579  0.4181
 5151TIP3    H136868   1.567   3.327  14.553  0.0822  0.7429  0.0515
 5151TIP3    H236869   1.621   3.445  14.632  2.0916 -0.6828  0.8831
 5152TIP3   OH236870   1.358   2.631  14.427  0.3189 -0.2822 -0.9223
 5152TIP3    H136871   1.305   2.711  14.437  0.5885  0.0210 -1.7952
 5152TIP3    H236872   1.376   2.603  14.517 -1.2648 -0.3633 -0.6025
 5153TIP3   OH236873   6.483   2.586   4.767  0.1672  0.3176  0.2777
 5153TIP3    H136874   6.431   2.519   4.812 -0.7920 -1.0007 -2.5504
 5153TIP3    H236875   6.547   2.536   4.716 -0.5811  1.4575 -1.9316
 5154TIP3   OH236876   6.225   3.288  14.889 -0.0537  0.2998  0.3944
 5154TIP3    H136877   6.288   3.229  14.929  1.1300  1.1168 -0.2110
 5154TIP3    H236878   6.191   3.239  14.814  1.4631  0.6244 -0.5379
 5155TIP3   OH236879   1.278   4.874  13.993 -0.0536 -0.0597 -0.1583
 5155TIP3    H136880   1.364   4.916  13.999  1.0931 -2.1009 -1.3312
 5155TIP3    H236881   1.245   4.874  14.083  2.0781 -0.9590  0.6909
 5156TIP3   OH236882   3.408   4.440   0.766  0.6166  0.6388 -0.4419
 5156TIP3    H136883   3.463   4.416   0.691  0.1564  2.3175 -1.3631
 5156TIP3    H236884   3.465   4.495   0.820  0.6380  0.2356 -0.0471
 5157TIP3   OH236885   3.546   4.919   6.098  0.7980 -0.0242  0.0695
 5157TIP3    H136886   3.485   4.871   6.154  1.1591  0.0069  0.4977
 5157TIP3    H236887   3.490   4.969   6.039  0.4162 -0.9475 -0.3627
 5158TIP3   OH236888   4.233   1.025  17.016 -0.4784 -0.5583 -0.3908
 5158TIP3    H136889   4.205   1.059  17.101 -1.1926  0.8310 -1.1492
 5158TIP3    H236890   4.154   1.029  16.962  0.9444  3.5693 -2.6265
 5159TIP3   OH236891   4.761   5.165   1.173  0.0622  0.0593  0.1644
 5159TIP3    H136892   4.739   5.254   1.144 -0.4938  0.4351  1.6200
 5159TIP3    H236893   4.825   5.134   1.109 -0.8694  0.9195 -1.2606
 5160TIP3   OH236894   4.718   3.163   4.467  0.3040  0.5477 -0.4086
 5160TIP3    H136895   4.671   3.091   4.425  0.3881  0.9389 -1.1861
 5160TIP3    H236896   4.807   3.157   4.432 -0.1259  2.1053 -1.8981
 5161TIP3   OH236897   1.292   3.821   4.509 -0.3793  0.1853 -0.5667
 5161TIP3    H136898   1.262   3.891   4.451 -0.7016  1.4670  1.0673
 5161TIP3    H236899   1.373   3.855   4.547  0.7644 -1.3511 -1.5108
 5162TIP3   OH236900   3.816   6.536   3.236 -0.0524  0.0281 -0.0267
 5162TIP3    H136901   3.768   6.617   3.256 -1.1095  0.0841 -2.4571
 5162TIP3    H236902   3.757   6.466   3.266 -0.3019  0.1443 -0.2366
 5163TIP3   OH236903   3.220   6.014  11.971 -0.1296  0.2853 -0.0435
 5163TIP3    H136904   3.259   5.933  12.005 -0.3188  0.1922 -0.0484
 5163TIP3    H236905   3.295   6.071  11.953  0.0550 -0.1603 -0.7453
 5164TIP3   OH236906   1.264   6.566  14.278 -0.4235 -0.4972 -0.7963
 5164TIP3    H136907   1.215   6.485  14.265 -0.6305 -0.1791 -2.2129
 5164TIP3    H236908   1.304   6.557  14.365 -0.4562 -2.0967 -0.9213
 5165TIP3   OH236909   0.132   2.051  13.093 -0.5023 -0.1104  0.2340
 5165TIP3    H136910   0.044   2.018  13.080 -0.8888  0.2350  1.8015
 5165TIP3    H236911   0.166   2.064  13.004 -2.3916  0.7364 -0.4203
 5166TIP3   OH236912   6.452   2.823   1.514 -0.0002  1.1433 -0.4576
 5166TIP3    H136913   6.449   2.765   1.590  1.7424  1.2733 -0.2533
 5166TIP3    H236914   6.360   2.844   1.496 -0.4920  0.3931  1.0461
 5167TIP3   OH236915   6.519   2.762  12.224 -0.6157 -0.0729  0.1908
 5167TIP3    H136916   6.569   2.680  12.220 -0.1690  0.1400  1.1555
 5167TIP3    H236917   6.459   2.750  12.298 -0.6357  0.4211  0.2592
 5168TIP3   OH236918   2.564   4.144   4.725 -0.1587 -0.1493  0.5190
 5168TIP3    H136919   2.649   4.124   4.686 -1.1160 -1.5656 -1.0040
 5168TIP3    H236920   2.568   4.108   4.813  0.3898 -1.4166 -0.0030
 5169TIP3   OH236921   5.538   0.226   1.476 -0.2707 -0.1113  0.3259
 5169TIP3    H136922   5.523   0.171   1.553  1.4219 -2.5017 -0.9221
 5169TIP3    H236923   5.453   0.266   1.459 -1.3027 -1.3956  2.0497
 5170TIP3   OH236924   5.641   4.676  13.542  0.0197  0.1209 -0.0352
 5170TIP3    H136925   5.623   4.661  13.450  1.2779 -0.5391 -0.1912
 5170TIP3    H236926   5.639   4.589  13.582  0.3456  0.3008  0.3891
 5171TIP3   OH236927   0.171   4.448  16.941 -0.3943  0.2110 -0.5961
 5171TIP3    H136928   0.115   4.391  16.888 -0.5987  0.1529 -0.3209
 5171TIP3    H236929   0.130   4.448  17.027  1.2479 -1.6375  0.2532
 5172TIP3   OH236930   6.197   3.120  12.307  0.3094  0.3893 -0.3508
 5172TIP3    H136931   6.272   3.091  12.255  0.2081  0.8608 -0.7665
 5172TIP3    H236932   6.180   3.209  12.277  0.2459  0.6712  0.4924
 5173TIP3   OH236933   1.952   0.785  11.108  0.1653  0.0149 -0.0423
 5173TIP3    H136934   1.996   0.868  11.130  0.6379  0.2944 -1.9137
 5173TIP3    H236935   1.944   0.786  11.013  0.4897 -2.2592 -0.1456
 5174TIP3   OH236936   1.323   2.584   6.705 -0.1778 -0.3472 -0.2587
 5174TIP3    H136937   1.310   2.674   6.733  1.4504  0.2718 -1.3556
 5174TIP3    H236938   1.358   2.540   6.783  2.3541  0.8538 -0.6290
 5175TIP3   OH236939   0.969   0.155   2.382 -0.3058  0.3917 -0.8349
 5175TIP3    H136940   1.023   0.078   2.365 -3.3768 -1.6955 -1.9906
 5175TIP3    H236941   0.901   0.152   2.314 -2.2897  2.4386  0.9006
 5176TIP3   OH236942   2.593   0.458   3.115  0.0713 -0.2828 -0.4138
 5176TIP3    H136943   2.500   0.477   3.130  0.5426  1.4077  0.6293
 5176TIP3    H236944   2.621   0.410   3.194  0.4532  0.6864  0.0554
 5177TIP3   OH236945   4.410   3.134  12.056  0.6359 -0.6901 -0.0931
 5177TIP3    H136946   4.328   3.155  12.011  0.8476  0.1043 -0.1296
 5177TIP3    H236947   4.451   3.067  12.003 -1.1536 -2.9835  1.2304
 5178TIP3   OH236948   0.510   4.315   1.804 -0.3234  0.8927  0.1740
 5178TIP3    H136949   0.582   4.339   1.746 -0.1234  0.4919  0.2492
 5178TIP3    H236950   0.500   4.389   1.863 -1.7118  2.1159 -1.4836
 5179TIP3   OH236951   4.282   4.072   1.873  0.4824 -0.2434  0.2525
 5179TIP3    H136952   4.323   4.005   1.817  0.5020 -0.6078  0.6988
 5179TIP3    H236953   4.194   4.083   1.836  0.8049  0.1836 -0.4074
 5180TIP3   OH236954   5.715   3.219   2.979 -0.5077  0.5246  0.1044
 5180TIP3    H136955   5.762   3.211   3.062  0.6461  0.0979 -0.5669
 5180TIP3    H236956   5.747   3.147   2.926 -2.2653 -0.0522 -0.2526
 5181TIP3   OH236957   4.604   5.782   1.014  0.0337 -0.2236 -0.2629
 5181TIP3    H136958   4.573   5.835   1.088  0.1369 -0.2127 -0.2270
 5181TIP3    H236959   4.689   5.819   0.992  0.0637 -0.3140 -0.2990
 5182TIP3   OH236960   5.689   5.887  10.622 -0.1368  0.0696  0.0560
 5182TIP3    H136961   5.615   5.841  10.580  0.3860  0.4142 -1.3018
 5182TIP3    H236962   5.665   5.979  10.619  0.2536  0.1655 -0.2080
 5183TIP3   OH236963   0.367   6.456   1.960 -0.3695 -0.5173  0.3015
 5183TIP3    H136964   0.301   6.436   1.893 -1.0878 -1.0057  1.1492
 5183TIP3    H236965   0.421   6.377   1.965 -0.6233 -0.6659  0.6605
 5184TIP3   OH236966   5.085   2.185   1.303  0.4518 -0.4226  0.5991
 5184TIP3    H136967   5.019   2.201   1.236 -1.9019 -1.9431  2.3923
 5184TIP3    H236968   5.137   2.113   1.268  0.0292 -0.3984 -0.0984
 5185TIP3   OH236969   6.281   0.540  10.895  0.3452 -0.5957  0.2144
 5185TIP3    H136970   6.206   0.583  10.935  0.3168 -1.4072  1.0738
 5185TIP3    H236971   6.351   0.547  10.960  0.1157 -2.4765  0.7389
 5186TIP3   OH236972   1.519   2.114   2.990 -0.2729  0.6674  0.3533
 5186TIP3    H136973   1.592   2.091   2.932 -1.6241  2.4300 -2.2452
 5186TIP3    H236974   1.506   2.208   2.977 -1.3148  0.9444  2.8287
 5187TIP3   OH236975   1.661   5.356   3.681  0.5189 -0.2760  0.6143
 5187TIP3    H136976   1.728   5.363   3.613 -0.0394  1.2447  0.1609
 5187TIP3    H236977   1.580   5.340   3.633  0.5571 -2.4064  1.1793
 5188TIP3   OH236978   5.386   1.091  11.335  0.2164  0.2633  0.5351
 5188TIP3    H136979   5.424   1.158  11.279 -1.7416  0.6703 -0.3801
 5188TIP3    H236980   5.365   1.137  11.416 -1.2960  0.8522 -0.1587
 5189TIP3   OH236981   1.198   5.197  14.270 -0.4469 -0.6571 -0.1428
 5189TIP3    H136982   1.140   5.272  14.287 -0.1374 -0.3174 -0.5582
 5189TIP3    H236983   1.170   5.165  14.184 -0.4752 -0.9277 -0.0349
 5190TIP3   OH236984   2.040   1.541   3.064 -0.0203  0.0832 -0.4465
 5190TIP3    H136985   2.083   1.472   3.014 -1.1312 -1.1397  0.2207
 5190TIP3    H236986   1.949   1.540   3.034 -1.0013 -1.3857  2.1876
 5191TIP3   OH236987   1.004   0.820   1.477  0.2083 -0.2993 -0.0417
 5191TIP3    H136988   0.951   0.881   1.426  0.1779 -0.4954 -0.2501
 5191TIP3    H236989   0.984   0.734   1.438 -0.6430 -0.5924  0.9841
 5192TIP3   OH236990   6.029   2.915  15.172 -0.5048 -0.2929 -0.9225
 5192TIP3    H136991   5.935   2.928  15.156 -0.2065  1.3574 -1.5913
 5192TIP3    H236992   6.062   3.003  15.192  1.0142 -0.7282 -1.3922
 5193TIP3   OH236993   0.761   2.354   4.081  0.6452 -0.6154  0.3391
 5193TIP3    H136994   0.667   2.339   4.094  0.7470 -1.4827  0.1394
 5193TIP3    H236995   0.769   2.369   3.987  0.6028  0.3502  0.4755
 5194TIP3   OH236996   3.920   3.362  16.204  0.2673 -0.3776  0.0946
 5194TIP3    H136997   3.849   3.420  16.174 -0.8632 -1.7937 -0.1062
 5194TIP3    H236998   3.999   3.398  16.164 -0.0744  2.0801  1.4551
 5195TIP3   OH236999   0.839   1.893   0.565  0.0210 -0.3839  0.4760
 5195TIP3    H137000   0.815   1.821   0.507 -1.6127 -0.0975  0.7685
 5195TIP3    H237001   0.898   1.853   0.629  1.3169 -0.8487 -0.9489
 5196TIP3   OH237002   4.793   4.311  11.084 -0.7634  0.4717 -0.0178
 5196TIP3    H137003   4.753   4.286  11.167 -2.0121  0.8922 -0.4668
 5196TIP3    H237004   4.882   4.338  11.107 -0.4888 -1.0782  0.9297
 5197TIP3   OH237005   3.435   5.200   0.407 -0.1845  0.8749  0.2126
 5197TIP3    H137006   3.458   5.111   0.380 -0.2323  0.9706 -0.1418
 5197TIP3    H237007   3.518   5.240   0.433 -0.0480  0.9910 -0.3996
 5198TIP3   OH237008   5.887   6.579   3.829 -0.3763  0.4576  0.6852
 5198TIP3    H137009   5.838   6.500   3.849 -0.6907  0.6546  0.7025
 5198TIP3    H237010   5.927   6.561   3.744 -0.0958  0.1166  0.8884
 5199TIP3   OH237011   3.209   6.610   5.317 -0.0026 -0.3405  0.2570
 5199TIP3    H137012   3.268   6.538   5.337  1.6436  1.1256  0.9875
 5199TIP3    H237013   3.266   6.677   5.279 -1.0453  1.4225  1.6682
 5200TIP3   OH237014   0.263   1.512  13.305  0.1472  0.0331 -0.1802
 5200TIP3    H137015   0.341   1.486  13.354  0.2712 -1.4904 -1.1035
 5200TIP3    H237016   0.281   1.601  13.276  1.0828  0.0855  0.5144
 5201TIP3   OH237017   5.739   3.229   6.358 -0.1293  0.8540  0.3484
 5201TIP3    H137018   5.725   3.134   6.355 -0.7151  0.9008  1.1096
 5201TIP3    H237019   5.786   3.243   6.441 -0.9949  1.3245  0.7703
 5202TIP3   OH237020   2.792   5.611  15.793  0.0669  0.2142  0.0862
 5202TIP3    H137021   2.866   5.668  15.772 -0.7235  1.0500 -0.5182
 5202TIP3    H237022   2.816   5.526  15.758  0.0400  0.8748 -1.6222
 5203TIP3   OH237023   4.660   0.897  15.000 -0.1508 -0.5244 -0.4032
 5203TIP3    H137024   4.608   0.829  14.956 -0.0355 -0.7321 -0.2212
 5203TIP3    H237025   4.602   0.932  15.067  0.2426 -1.3754  0.3929
 5204TIP3   OH237026   4.645   6.632   0.289  0.7664  0.1922  0.0377
 5204TIP3    H137027   4.600   6.586   0.360  1.9877  0.9603  1.3672
 5204TIP3    H237028   4.701   6.565   0.248  1.5805  0.1703  1.1360
 5205TIP3   OH237029   0.765   1.004   6.034 -0.5009  0.2729 -0.1234
 5205TIP3    H137030   0.678   0.970   6.012  0.5514 -2.6966 -0.0302
 5205TIP3    H237031   0.809   1.013   5.950  0.5370 -2.6144 -0.0026
 5206TIP3   OH237032   0.055   4.414  11.611  0.2213  0.2116  0.0071
 5206TIP3    H137033   0.106   4.494  11.601 -0.3964  0.7380  0.9515
 5206TIP3    H237034  -0.024   4.441  11.657 -0.5644 -0.7281 -0.7472
 5207TIP3   OH237035   0.607   4.499  14.553 -1.1754  0.1195 -0.2041
 5207TIP3    H137036   0.691   4.467  14.518 -0.8940  0.1691  0.4105
 5207TIP3    H237037   0.579   4.565  14.490 -0.2168  0.8675  0.1221
 5208TIP3   OH237038   5.460   6.711  12.245  0.4484  0.5461 -0.2471
 5208TIP3    H137039   5.554   6.705  12.262  0.4386  1.0314 -0.0075
 5208TIP3    H237040   5.450   6.676  12.156  1.2638  3.1649 -1.4626
 5209TIP3   OH237041   0.176   5.123   1.275  0.1215 -0.0025 -0.1157
 5209TIP3    H137042   0.132   5.191   1.326  1.0847  0.2652  0.3858
 5209TIP3    H237043   0.143   5.134   1.186 -0.7176  0.2682  0.2247
 5210TIP3   OH237044   1.277   4.822  17.036  0.0389 -0.1159  0.0976
 5210TIP3    H137045   1.337   4.753  17.009  1.5045  1.3252 -0.4998
 5210TIP3    H237046   1.212   4.828  16.966  0.0055 -0.7500  0.0728
 5211TIP3   OH237047   0.810   3.156  12.330  0.4711 -0.3714  0.1656
 5211TIP3    H137048   0.857   3.121  12.405  1.3011  0.7230  0.1789
 5211TIP3    H237049   0.729   3.191  12.366  0.5658 -0.4507  0.4529
 5212TIP3   OH237050   5.201   2.454   4.082  0.3995 -0.1984 -0.0563
 5212TIP3    H137051   5.170   2.470   3.993 -2.2735 -1.1635  0.6000
 5212TIP3    H237052   5.267   2.385   4.072  0.7522  0.2870 -1.3265
 5213TIP3   OH237053   3.633   0.436   3.100 -0.4863  0.1477  0.0502
 5213TIP3    H137054   3.642   0.389   3.182 -1.1421 -1.4883 -0.7666
 5213TIP3    H237055   3.627   0.529   3.125 -1.6723 -0.3889  1.9041
 5214TIP3   OH237056   5.523   5.779   0.973  0.0056 -0.0413 -0.3189
 5214TIP3    H137057   5.589   5.839   0.936  1.9648 -0.3182  2.4601
 5214TIP3    H237058   5.457   5.837   1.010 -0.0191  0.3055 -0.8935
 5215TIP3   OH237059   2.521   0.125  15.380 -0.2698  0.3081 -0.9313
 5215TIP3    H137060   2.468   0.185  15.432  2.0954  0.9218  0.9791
 5215TIP3    H237061   2.515   0.041  15.425  1.0463  0.6108 -0.1384
 5216TIP3   OH237062   3.561   2.157  13.993  0.1001 -0.0788 -0.3017
 5216TIP3    H137063   3.515   2.154  13.909 -1.7572  0.1502  0.6493
 5216TIP3    H237064   3.568   2.251  14.012  0.2567 -0.1400 -0.0572
 5217TIP3   OH237065   1.106   5.836  14.619  0.0306  0.5485  0.7728
 5217TIP3    H137066   1.013   5.819  14.605 -0.4697  3.9649 -1.1000
 5217TIP3    H237067   1.121   5.814  14.711 -2.5942 -0.1126  1.1216
 5218TIP3   OH237068   1.179   6.757   4.286 -0.0344  0.4049 -0.1979
 5218TIP3    H137069   1.084   6.761   4.281 -0.0735  0.7853  0.6094
 5218TIP3    H237070   1.206   6.711   4.207 -1.0765 -2.2784  0.8628
 5219TIP3   OH237071   2.490   6.219   3.820  0.3667 -0.8491 -0.0602
 5219TIP3    H137072   2.568   6.227   3.874  0.0672 -0.9530  0.3902
 5219TIP3    H237073   2.425   6.178   3.877  0.2100 -1.4497 -0.6558
 5220TIP3   OH237074   6.254   6.010  16.288 -0.1476  0.2001 -0.3580
 5220TIP3    H137075   6.347   5.991  16.276 -0.0697 -0.7904  1.4693
 5220TIP3    H237076   6.211   5.924  16.282 -0.8125  0.5082 -0.0969
 5221TIP3   OH237077   3.911   6.139   0.983  0.0056 -0.5974  0.1786
 5221TIP3    H137078   3.879   6.081   0.913  1.6342 -0.0687 -1.0673
 5221TIP3    H237079   3.832   6.183   1.015 -1.1445 -2.7334  0.4956
 5222TIP3   OH237080   5.070   5.873   4.990 -0.0448  0.4670 -0.0309
 5222TIP3    H137081   5.089   5.785   5.022  0.1383  0.2075 -0.8304
 5222TIP3    H237082   5.015   5.860   4.913  1.3916  0.9508 -1.1896
 5223TIP3   OH237083   5.724   1.656   5.841 -0.0525  0.3629 -0.7118
 5223TIP3    H137084   5.756   1.731   5.892  1.6436 -0.6307 -0.2450
 5223TIP3    H237085   5.788   1.644   5.772  0.6940 -1.6766  0.2360
 5224TIP3   OH237086   1.600   3.666   4.428 -0.7290 -0.3490  0.2176
 5224TIP3    H137087   1.549   3.718   4.490 -0.2967  0.0606  0.2398
 5224TIP3    H237088   1.666   3.622   4.481 -1.5784 -1.5559  0.3039
 5225TIP3   OH237089   1.096   3.862  12.570  0.2273  0.1023  0.7458
 5225TIP3    H137090   1.086   3.866  12.666 -1.7448  0.3966  0.5727
 5225TIP3    H237091   1.088   3.770  12.549 -1.6093  0.2353  0.7073
 5226TIP3   OH237092   4.062   6.367  13.451  0.4391  0.3311 -0.2518
 5226TIP3    H137093   3.999   6.301  13.423  1.0282  0.0830 -1.0307
 5226TIP3    H237094   4.050   6.439  13.390  1.9846 -0.3596 -1.4223
 5227TIP3   OH237095   1.983   5.703   1.836 -0.2395  0.8516  0.3403
 5227TIP3    H137096   2.055   5.677   1.779 -0.8594  3.1854 -1.6961
 5227TIP3    H237097   1.928   5.625   1.843  1.1125 -0.1989 -0.2316
 5228TIP3   OH237098   3.646   3.858  15.055 -0.4317 -0.1478 -0.7591
 5228TIP3    H137099   3.689   3.777  15.083 -1.3868 -0.0248  1.2251
 5228TIP3    H237100   3.717   3.918  15.036  0.3220 -0.3932  1.0897
 5229TIP3   OH237101   5.241   2.043   1.758 -0.2765  0.2754 -0.4780
 5229TIP3    H137102   5.329   2.007   1.769 -0.3719  0.2009  0.0374
 5229TIP3    H237103   5.184   1.983   1.805 -0.4105  1.2468  0.6300
 5230TIP3   OH237104   6.565   4.872   4.324  0.0728  0.0333  0.0608
 5230TIP3    H137105   6.633   4.835   4.379  1.4985  0.2561 -1.4669
 5230TIP3    H237106   6.536   4.798   4.270 -1.3726 -0.2084  1.1186
 5231TIP3   OH237107   2.067   3.031  13.955 -0.2172 -0.2036 -0.1140
 5231TIP3    H137108   2.009   3.012  13.882  1.2192  0.1624 -1.3999
 5231TIP3    H237109   2.130   2.958  13.955  0.9529  0.7608 -0.5025
 5232TIP3   OH237110   5.089   2.877  15.286 -0.3860 -0.2539  0.2908
 5232TIP3    H137111   5.095   2.789  15.324  1.7862  0.0786  0.8363
 5232TIP3    H237112   5.126   2.868  15.199  2.4494  0.5703  1.3034
 5233TIP3   OH237113   2.765   4.187  11.393  0.3468  0.0079  0.5485
 5233TIP3    H137114   2.679   4.159  11.425  0.1911 -0.9124 -0.6047
 5233TIP3    H237115   2.755   4.191  11.298  1.0682  1.7278  0.4972
 5234TIP3   OH237116   4.353   3.881   3.545  0.1047  0.4859 -0.2588
 5234TIP3    H137117   4.409   3.825   3.492  0.2044  0.5073 -0.1772
 5234TIP3    H237118   4.283   3.908   3.486  0.8205  1.4194 -0.7072
 5235TIP3   OH237119   3.156   0.446  14.721 -0.2927  1.2724  0.1805
 5235TIP3    H137120   3.153   0.456  14.626  1.4181  1.0826  0.0684
 5235TIP3    H237121   3.066   0.458  14.750 -1.6056 -2.4833 -1.8125
 5236TIP3   OH237122   3.602   0.537  15.978  0.5201  0.2854  0.1818
 5236TIP3    H137123   3.614   0.448  15.944 -0.1303 -0.0085  0.6932
 5236TIP3    H237124   3.541   0.578  15.916 -1.6070 -0.6278  1.5330
 5237TIP3   OH237125   2.757   5.280   2.004 -0.0372 -0.1114  0.1533
 5237TIP3    H137126   2.744   5.250   2.094 -0.0558  1.1561  0.5895
 5237TIP3    H237127   2.697   5.227   1.952  1.2374 -2.1256  0.6034
 5238TIP3   OH237128   2.299   5.760  10.777 -0.3976 -0.5773 -0.3309
 5238TIP3    H137129   2.317   5.694  10.844 -0.8195 -0.1357  0.2269
 5238TIP3    H237130   2.371   5.822  10.783 -1.0687  0.1394  0.5808
 5239TIP3   OH237131   3.220   4.776  16.900 -0.3619 -0.2831 -0.1754
 5239TIP3    H137132   3.213   4.681  16.896 -1.1796 -0.3260  1.4641
 5239TIP3    H237133   3.129   4.807  16.894 -0.0113  0.5185 -2.3212
 5240TIP3   OH237134   3.503   5.801  11.144  0.4174 -0.0005  0.0035
 5240TIP3    H137135   3.449   5.870  11.105  0.7490  0.1759 -0.1548
 5240TIP3    H237136   3.446   5.724  11.147  0.2200  0.1311 -0.3378
 5241TIP3   OH237137   3.889   5.769  15.125 -0.1516  0.7127  0.3833
 5241TIP3    H137138   3.811   5.734  15.080 -0.0168  2.5482 -1.4305
 5241TIP3    H237139   3.855   5.839  15.180 -0.1245 -0.5762  2.0985
 5242TIP3   OH237140   1.748   1.164  11.565 -0.1033 -0.3464  0.1092
 5242TIP3    H137141   1.787   1.078  11.577 -0.2825 -0.4097  0.2364
 5242TIP3    H237142   1.657   1.154  11.593 -0.3113 -0.2914 -0.5318
 5243TIP3   OH237143   1.283   5.152  16.950  0.2628 -0.5074 -0.2221
 5243TIP3    H137144   1.369   5.170  16.912 -0.7855  1.0710 -2.0235
 5243TIP3    H237145   1.267   5.060  16.931  1.2197 -0.6016 -0.6062
 5244TIP3   OH237146   5.042   3.739  10.422 -0.0804 -0.0158  0.5884
 5244TIP3    H137147   5.117   3.792  10.394 -0.6911  0.4811 -0.1579
 5244TIP3    H237148   4.966   3.782  10.381 -0.7951 -0.4005  1.4792
 5245TIP3   OH237149   1.587   5.706  16.984  0.3151 -0.4704  0.1256
 5245TIP3    H137150   1.524   5.673  17.047  2.0861  0.0569  2.3011
 5245TIP3    H237151   1.669   5.662  17.006  1.2951  0.7221 -0.9609
 5246TIP3   OH237152   3.401   2.819   2.408  0.3638 -0.2489 -0.2870
 5246TIP3    H137153   3.307   2.837   2.410  0.1385 -1.2020 -1.2977
 5246TIP3    H237154   3.434   2.854   2.491 -0.9046 -0.0576  0.1567
 5247TIP3   OH237155   3.337   5.050   5.396  0.9526  0.8425  0.3184
 5247TIP3    H137156   3.283   5.043   5.475 -0.0440  0.6686 -0.3552
 5247TIP3    H237157   3.423   5.074   5.428  1.3553 -2.0505  1.7320
 5248TIP3   OH237158   0.550   0.522  11.667  0.0325 -0.1903  0.1763
 5248TIP3    H137159   0.497   0.508  11.745  1.0510 -1.5618  0.6514
 5248TIP3    H237160   0.488   0.557  11.602 -1.3757 -1.4107  0.8056
 5249TIP3   OH237161   1.095   5.594  12.089  0.2167 -0.6882 -0.4125
 5249TIP3    H137162   1.159   5.615  12.157 -0.7136 -1.9339  0.9201
 5249TIP3    H237163   1.093   5.498  12.087  0.1143 -0.6890 -2.1292
 5250TIP3   OH237164   5.301   3.610  15.995 -0.4932  0.2461  0.8377
 5250TIP3    H137165   5.349   3.668  15.936  0.3951 -0.2259  1.0865
 5250TIP3    H237166   5.211   3.643  15.993  0.0119  1.7142  1.0523
 5251TIP3   OH237167   1.117   5.877  11.949 -0.0214 -0.3986 -0.4039
 5251TIP3    H137168   1.076   5.794  11.972 -1.4236  0.2167 -0.5674
 5251TIP3    H237169   1.102   5.887  11.855  1.4857 -0.6585 -0.6950
 5252TIP3   OH237170   0.112   5.216   5.629 -0.0109 -0.2954  0.3139
 5252TIP3    H137171   0.190   5.264   5.602 -0.5134 -0.4468 -1.5161
 5252TIP3    H237172   0.138   5.172   5.710  1.5773  0.2108  0.1138
 5253TIP3   OH237173   2.099   4.959   5.176 -0.6153  0.4032 -0.3470
 5253TIP3    H137174   2.161   4.914   5.232 -0.5311 -0.7895 -1.3579
 5253TIP3    H237175   2.059   4.890   5.123  0.4159  1.5744 -2.8254
 5254TIP3   OH237176   0.950   2.516  15.015 -0.0090 -0.4314  0.3825
 5254TIP3    H137177   0.981   2.458  14.945  0.9023  0.5340 -0.0490
 5254TIP3    H237178   0.927   2.457  15.087 -1.6308 -1.5177 -0.9319
 5255TIP3   OH237179   5.994   4.205   1.865 -0.4892  0.1765 -0.0673
 5255TIP3    H137180   5.980   4.289   1.908 -2.9056 -0.4819  0.5406
 5255TIP3    H237181   5.907   4.168   1.854  0.5332 -2.6354  0.4275
 5256TIP3   OH237182   3.570   3.495   5.137 -0.5548 -0.3595  0.4577
 5256TIP3    H137183   3.645   3.439   5.158  1.6991  2.1063 -0.4122
 5256TIP3    H237184   3.529   3.513   5.221  1.2150  0.0085  1.2940
 5257TIP3   OH237185   1.814   0.104   4.008  0.2445 -0.0762 -0.3013
 5257TIP3    H137186   1.728   0.064   4.006  1.0321 -1.8616 -0.0686
 5257TIP3    H237187   1.870   0.041   4.054  1.3372  1.7564  1.0278
 5258TIP3   OH237188   3.994   4.541   4.773 -0.7836  0.1877 -0.2526
 5258TIP3    H137189   4.023   4.455   4.803 -0.9276  0.1331 -0.2685
 5258TIP3    H237190   3.922   4.565   4.832 -1.5416 -0.2334 -0.9847
 5259TIP3   OH237191   6.029   3.948   4.032 -0.2897  0.3192  0.3855
 5259TIP3    H137192   5.998   3.949   4.123  0.6870  1.0341  0.7314
 5259TIP3    H237193   5.963   3.996   3.983 -0.1638  1.0810  0.9530
 5260TIP3   OH237194   4.897   1.435  12.617 -0.1999  0.2986  0.5331
 5260TIP3    H137195   4.908   1.483  12.535 -2.5938  1.2817  0.6906
 5260TIP3    H237196   4.879   1.345  12.590 -0.8712  0.5929 -0.0407
 5261TIP3   OH237197   1.587   6.123   3.852 -0.1076  0.0611 -0.4901
 5261TIP3    H137198   1.587   6.034   3.886 -0.0448  0.1299 -0.3091
 5261TIP3    H237199   1.675   6.135   3.814 -0.5325 -0.3863 -1.6634
 5262TIP3   OH237200   2.459   4.332   5.996  0.7665  0.2903  0.1602
 5262TIP3    H137201   2.468   4.323   5.902  2.3690  0.5845  0.2596
 5262TIP3    H237202   2.545   4.363   6.026  0.8757 -1.4802  1.9210
 5263TIP3   OH237203   2.991   5.632  16.727  0.1240 -0.0986 -0.3384
 5263TIP3    H137204   3.085   5.629  16.748  0.3471 -1.0347 -1.4314
 5263TIP3    H237205   2.958   5.705  16.780  1.2901 -0.3206  0.7438
 5264TIP3   OH237206   0.861   0.219   3.562  0.4456  0.3077 -0.1985
 5264TIP3    H137207   0.796   0.253   3.623 -2.6977  0.2066 -3.1176
 5264TIP3    H237208   0.884   0.294   3.507  1.1625 -0.1182 -0.4891
 5265TIP3   OH237209   0.531   3.749  11.225 -0.1726  0.1354  0.1069
 5265TIP3    H137210   0.550   3.787  11.139  2.3830 -1.2985 -0.0654
 5265TIP3    H237211   0.527   3.655  11.210 -0.4331 -0.0903  1.4463
 5266TIP3   OH237212   4.790   3.898   3.236 -0.2344 -0.5682  0.0965
 5266TIP3    H137213   4.779   3.803   3.233 -0.3061 -0.5516 -0.1636
 5266TIP3    H237214   4.885   3.911   3.244 -0.3190 -0.6920  1.6205
 5267TIP3   OH237215   5.586   1.562  15.554 -0.0839  0.3032  0.6338
 5267TIP3    H137216   5.576   1.611  15.636 -0.8721 -0.8283  1.2374
 5267TIP3    H237217   5.656   1.499  15.572  0.5331  0.8051  0.0471
 5268TIP3   OH237218   2.633   6.496   1.953 -0.3658  0.1689  0.4123
 5268TIP3    H137219   2.583   6.422   1.987  1.0264 -1.3016 -0.5200
 5268TIP3    H237220   2.672   6.537   2.030  0.2221 -1.1601  0.8508
 5269TIP3   OH237221   2.584   3.981  16.040 -0.1208  0.0696 -0.3984
 5269TIP3    H137222   2.519   3.928  15.993 -0.5551  1.7478 -1.7959
 5269TIP3    H237223   2.665   3.971  15.990  0.4066 -1.0495  0.6444
 5270TIP3   OH237224   5.854   0.670  11.494 -0.6668  0.2574 -0.4368
 5270TIP3    H137225   5.781   0.721  11.458 -0.3039  0.4179 -0.9465
 5270TIP3    H237226   5.924   0.680  11.430  0.1597  0.9446  0.5453
 5271TIP3   OH237227   6.503   5.587  15.835  0.5445 -0.3016 -0.5372
 5271TIP3    H137228   6.419   5.541  15.842  0.9480 -1.1923 -1.2506
 5271TIP3    H237229   6.542   5.553  15.754  1.2558  0.6717 -0.6239
 5272TIP3   OH237230   0.106   5.990   0.035 -0.3901  0.2357 -0.0729
 5272TIP3    H137231   0.202   5.997   0.039 -0.4569  0.4272  1.8095
 5272TIP3    H237232   0.088   5.973  -0.058  1.6235 -2.3343 -0.1224
 5273TIP3   OH237233   3.799   4.417  15.741  0.5313 -0.1683 -0.0975
 5273TIP3    H137234   3.830   4.331  15.715  2.6736  0.3550  0.4999
 5273TIP3    H237235   3.852   4.440  15.818 -1.9496  0.5158  1.5285
 5274TIP3   OH237236   3.470   2.820   0.345  0.0167  0.1336  0.0563
 5274TIP3    H137237   3.480   2.749   0.282  0.1932 -0.0123  0.2482
 5274TIP3    H237238   3.378   2.816   0.372  0.0052  0.0339  0.0016
 5275TIP3   OH237239   5.709   4.277  11.984 -0.4048  0.1543 -0.0898
 5275TIP3    H137240   5.711   4.247  11.893  1.0913  1.5283 -0.5676
 5275TIP3    H237241   5.757   4.211  12.033  1.2556  0.7852 -0.8070
 5276TIP3   OH237242   1.612   1.975   5.917  0.4472 -0.1667  0.1800
 5276TIP3    H137243   1.585   1.943   6.003  1.6129 -2.0869 -0.1185
 5276TIP3    H237244   1.575   1.912   5.855  0.1646  0.8307 -0.6978
 5277TIP3   OH237245   6.136   0.301  14.729  0.4404 -0.4640  0.6659
 5277TIP3    H137246   6.094   0.372  14.777 -0.4611  0.1142 -0.8913
 5277TIP3    H237247   6.069   0.233  14.723  0.5090 -0.4964  0.1868
 5278TIP3   OH237248   6.359   2.090  15.474  0.0597  0.6635  0.0449
 5278TIP3    H137249   6.397   2.152  15.412 -1.2474  0.3545 -1.1487
 5278TIP3    H237250   6.273   2.127  15.494 -1.4936 -1.4788 -2.0394
 5279TIP3   OH237251   4.170   4.939  14.824  0.6073  0.0663 -0.6634
 5279TIP3    H137252   4.125   5.024  14.827 -0.1137 -0.3193 -0.2699
 5279TIP3    H237253   4.196   4.923  14.915 -0.5224 -0.7859 -0.4690
 5280TIP3   OH237254   1.517   5.070   6.259 -0.0306 -0.6615 -0.0845
 5280TIP3    H137255   1.574   4.996   6.279  1.7941  0.9637  1.0321
 5280TIP3    H237256   1.549   5.141   6.314 -1.9301  0.8973 -0.8647
 5281TIP3   OH237257   1.011   5.551  10.480 -0.5302  0.0815 -0.0610
 5281TIP3    H137258   1.076   5.589  10.539  0.1865  1.7466 -1.7952
 5281TIP3    H237259   0.951   5.623  10.460  0.1523  0.0686 -2.5227
 5282TIP3   OH237260   4.971   2.923  16.102 -0.2515 -0.0114 -0.1089
 5282TIP3    H137261   4.986   2.985  16.031 -2.3702  3.1948  2.0174
 5282TIP3    H237262   4.888   2.881  16.081  0.6925 -1.4978 -1.0404
 5283TIP3   OH237263   6.585   2.045  13.662  0.1188 -0.2233 -0.0672
 5283TIP3    H137264   6.521   2.093  13.610  0.5761 -0.9015 -1.3053
 5283TIP3    H237265   6.558   2.058  13.752 -0.8496  0.7850 -0.4841
 5284TIP3   OH237266   2.704   5.462  17.090 -0.0221  0.0301  0.6398
 5284TIP3    H137267   2.641   5.398  17.123  0.4769 -0.5982  0.3974
 5284TIP3    H237268   2.753   5.415  17.022 -0.9979  1.2691 -1.0072
 5285TIP3   OH237269   2.337   3.553  15.716  0.2034  0.3025 -0.4874
 5285TIP3    H137270   2.420   3.575  15.674  0.7235 -2.4734 -1.1122
 5285TIP3    H237271   2.278   3.624  15.691  2.5068  2.7793  0.6032
 5286TIP3   OH237272   6.568   0.330  11.302  0.8369 -0.4309  0.4979
 5286TIP3    H137273   6.597   0.418  11.327 -0.0843 -0.0384  0.2232
 5286TIP3    H237274   6.512   0.302  11.375 -0.3583 -0.0317 -0.2441
 5287TIP3   OH237275   0.589   2.411   1.719 -0.5421  0.9832  0.1998
 5287TIP3    H137276   0.601   2.409   1.624 -1.9080  0.7947  0.0177
 5287TIP3    H237277   0.572   2.503   1.739 -3.2368  0.6318 -0.1689
 5288TIP3   OH237278   6.172   4.470  13.400 -0.7414  0.2188 -0.5245
 5288TIP3    H137279   6.115   4.423  13.339  1.2737  0.1900 -2.5035
 5288TIP3    H237280   6.218   4.401  13.448 -2.8332  0.2200  1.7361
 5289TIP3   OH237281   0.682   4.429   4.598 -0.2486 -0.3403  0.3486
 5289TIP3    H137282   0.592   4.437   4.566 -0.3129  1.1424  0.8247
 5289TIP3    H237283   0.730   4.499   4.554  0.5996 -0.8811  0.3835
 5290TIP3   OH237284   1.151   3.354  13.913 -0.3742  0.5846 -0.2680
 5290TIP3    H137285   1.188   3.389  13.994 -0.5907 -2.5232  1.3504
 5290TIP3    H237286   1.226   3.345  13.854  0.6578 -1.0561  1.1878
 5291TIP3   OH237287   2.888   1.538   0.916 -0.3276 -0.1702 -0.1667
 5291TIP3    H137288   2.849   1.564   0.999 -0.1746 -1.6007  0.3722
 5291TIP3    H237289   2.843   1.457   0.892 -0.1656  0.0625 -1.3371
 5292TIP3   OH237290   4.357   1.370  15.192  0.1174  0.0957 -0.2509
 5292TIP3    H137291   4.301   1.427  15.245 -0.4532  0.6229 -1.3853
 5292TIP3    H237292   4.439   1.419  15.184  0.3831 -0.2024  0.5240
 5293TIP3   OH237293   2.225   5.215  15.485 -1.2227 -0.4447 -0.9277
 5293TIP3    H137294   2.245   5.172  15.402 -0.3848 -0.8450 -0.5328
 5293TIP3    H237295   2.310   5.223  15.529 -1.6998 -0.5630  0.0469
 5294TIP3   OH237296   3.848   6.007  11.591 -0.1876  0.7123 -0.0186
 5294TIP3    H137297   3.849   6.056  11.509  0.7352  0.9731  0.1416
 5294TIP3    H237298   3.805   6.066  11.653 -0.3508  0.7534 -0.1682
 5295TIP3   OH237299   0.960   1.991  14.987 -0.3231  0.3349 -0.1192
 5295TIP3    H137300   0.907   2.035  14.920 -1.3237 -0.7144 -0.0570
 5295TIP3    H237301   0.939   2.036  15.068 -0.4058  0.5225 -0.2433
 5296TIP3   OH237302   0.814   4.908  17.059  1.0390 -0.3474 -0.5637
 5296TIP3    H137303   0.869   4.831  17.072  0.0781 -0.8453  0.7168
 5296TIP3    H237304   0.832   4.963  17.135  1.4665  0.5543 -1.3026
 5297TIP3   OH237305   3.185   3.098   0.046 -0.1042 -0.1376 -0.4939
 5297TIP3    H137306   3.208   3.048  -0.031 -1.2854 -3.2181  1.0071
 5297TIP3    H237307   3.089   3.099   0.048 -0.1523 -1.7096  1.7832
 5298TIP3   OH237308   0.486   6.538   2.388 -0.1834 -0.0145  0.2569
 5298TIP3    H137309   0.523   6.621   2.358  0.3841 -0.9717 -1.8493
 5298TIP3    H237310   0.409   6.525   2.332  1.1967 -2.1093 -1.2914
 5299TIP3   OH237311   4.330   4.988  15.785  0.3606 -0.4611 -0.0473
 5299TIP3    H137312   4.257   4.976  15.845 -2.3709 -0.7840 -3.1296
 5299TIP3    H237313   4.388   4.913  15.802  0.1414 -0.0993  2.6022
 5300TIP3   OH237314   5.530   2.881   0.966 -0.2734 -1.0337 -0.1558
 5300TIP3    H137315   5.538   2.930   0.884 -1.5892 -1.2716 -0.4409
 5300TIP3    H237316   5.573   2.937   1.031  0.2147 -0.5461 -0.8886
 5301TIP3   OH237317   1.091   5.316  13.883 -0.3211 -0.2969  0.4716
 5301TIP3    H137318   1.082   5.280  13.795  1.2215 -0.6756  0.4377
 5301TIP3    H237319   1.154   5.259  13.926 -3.5532 -2.2880  3.0596
 5302TIP3   OH237320   4.982   1.811  13.360 -0.4973  0.1758  0.6627
 5302TIP3    H137321   4.910   1.836  13.303 -0.5248 -1.1021  0.0937
 5302TIP3    H237322   5.043   1.885  13.358  0.0197 -0.2406 -1.8970
 5303TIP3   OH237323   6.518   2.739  16.086  0.0517  0.0425 -0.0640
 5303TIP3    H137324   6.440   2.785  16.118 -1.7663 -2.6026 -0.3311
 5303TIP3    H237325   6.500   2.721  15.994  0.0401 -2.2018  0.3042
 5304TIP3   OH237326   2.920   4.573  14.578  0.4340 -0.2114 -0.1473
 5304TIP3    H137327   2.837   4.528  14.595 -0.1860  0.6576 -0.8124
 5304TIP3    H237328   2.917   4.596  14.485  1.0964  0.4829 -0.0060
 5305TIP3   OH237329   5.372   1.727  11.282  0.1938  0.2377  0.1718
 5305TIP3    H137330   5.302   1.738  11.347  0.8206 -1.0972  1.1155
 5305TIP3    H237331   5.331   1.677  11.212 -0.3663  1.3080 -0.2927
 5306TIP3   OH237332   6.271   5.904  10.341 -0.1931  0.7243 -0.0707
 5306TIP3    H137333   6.285   5.872  10.252  0.8251  0.3155  0.2182
 5306TIP3    H237334   6.309   5.836  10.397 -0.2757  1.2589  0.6504
 5307TIP3   OH237335   5.735   0.465  15.903  0.2697  0.6406 -0.4559
 5307TIP3    H137336   5.665   0.494  15.845 -0.4092 -3.2024 -1.7965
 5307TIP3    H237337   5.812   0.459  15.847 -0.1522 -2.1310 -0.8577
 5308TIP3   OH237338   0.544   6.202   2.762 -0.1102 -0.2268 -0.7263
 5308TIP3    H137339   0.478   6.176   2.699 -0.8879 -2.1674  0.7822
 5308TIP3    H237340   0.496   6.254   2.827  0.3871  0.5238 -0.9408
 5309TIP3   OH237341   1.375   1.371   1.467  0.0176  0.1384  0.1307
 5309TIP3    H137342   1.376   1.277   1.482 -1.3557  0.2421  1.0580
 5309TIP3    H237343   1.311   1.384   1.398 -1.3909  0.5320  1.4497
 5310TIP3   OH237344   5.667   3.903  16.708  0.1163  0.0769  0.2313
 5310TIP3    H137345   5.617   3.822  16.695 -1.6260  1.1356  0.0062
 5310TIP3    H237346   5.732   3.902  16.637  0.3166 -1.2347  0.3978
 5311TIP3   OH237347   4.437   2.972  16.336  0.1280 -0.0188  0.4288
 5311TIP3    H137348   4.484   2.980  16.419 -0.7355 -0.7167  1.0113
 5311TIP3    H237349   4.421   2.878  16.328  0.7569 -0.0305 -0.8551
 5312TIP3   OH237350   0.670   0.724  12.933 -0.1050  0.2313  0.3044
 5312TIP3    H137351   0.624   0.796  12.890 -0.4383  0.9331  1.7739
 5312TIP3    H237352   0.605   0.686  12.992  0.1710 -1.0707 -0.2037
 5313TIP3   OH237353   5.544   2.580   2.421  0.3621  0.8468 -0.0298
 5313TIP3    H137354   5.591   2.638   2.360 -0.0380  0.0465 -1.1199
 5313TIP3    H237355   5.613   2.545   2.477  1.1420 -0.3729 -1.6533
 5314TIP3   OH237356   3.215   5.678  16.300 -0.2587  0.3096 -0.4619
 5314TIP3    H137357   3.143   5.662  16.239 -0.8828  1.0368  0.0671
 5314TIP3    H237358   3.204   5.769  16.326  1.8282  0.9669 -1.6265
 5315TIP3   OH237359   2.309   0.131  11.009  0.2256  0.0790  0.0222
 5315TIP3    H137360   2.296   0.221  11.038 -2.2340 -0.6595  1.4997
 5315TIP3    H237361   2.397   0.130  10.971  0.5339  2.9362  0.4842
 5316TIP3   OH237362   6.661   3.741   2.473 -0.3733  0.2460  0.5434
 5316TIP3    H137363   6.682   3.831   2.448 -0.3986  0.2644  0.5886
 5316TIP3    H237364   6.608   3.708   2.400 -3.7527  1.5459  2.1838
 5317TIP3   OH237365   3.551   6.534  13.672  0.1453  0.2467  0.4077
 5317TIP3    H137366   3.551   6.571  13.761  1.2523  3.2408 -0.7215
 5317TIP3    H237367   3.630   6.569  13.632 -0.8347 -0.2103 -2.0817
 5318TIP3   OH237368   2.050   2.640  12.943 -0.0231 -0.4115 -0.3010
 5318TIP3    H137369   1.994   2.598  13.008 -1.5654  1.2455 -0.4523
 5318TIP3    H237370   1.993   2.652  12.867  0.7876  0.5333 -0.7876
 5319TIP3   OH237371   0.929   4.187   3.706  0.2858  0.3172 -0.4150
 5319TIP3    H137372   0.964   4.109   3.664  0.1681  0.8169 -1.4613
 5319TIP3    H237373   1.001   4.251   3.704  0.0039  0.6326 -0.6498
 5320TIP3   OH237374   3.380   4.212   2.206  0.6036 -0.2901 -0.0685
 5320TIP3    H137375   3.462   4.260   2.195 -0.5448  1.5927 -0.8368
 5320TIP3    H237376   3.368   4.165   2.124 -0.1825  1.2645 -0.8806
 5321TIP3   OH237377   2.885   4.550  16.429 -0.2514 -0.4150 -0.5380
 5321TIP3    H137378   2.830   4.510  16.496  1.9201 -0.3091  1.4077
 5321TIP3    H237379   2.939   4.613  16.476  2.3916 -1.3668 -2.0863
 5322TIP3   OH237380   0.066   1.414  13.635  0.0896  0.1904  0.2440
 5322TIP3    H137381   0.038   1.465  13.559 -1.0934  0.0622  0.5706
 5322TIP3    H237382   0.061   1.323  13.606 -0.7864  0.1162  0.5838
 5323TIP3   OH237383   2.581   3.539  15.606 -0.0782  0.2878 -0.2212
 5323TIP3    H137384   2.667   3.517  15.642  0.0930  0.5318 -0.4790
 5323TIP3    H237385   2.600   3.596  15.532 -0.3997 -0.5231 -0.9417
 5324TIP3   OH237386   4.886   2.440   2.938  0.2547  0.5015 -0.2990
 5324TIP3    H137387   4.927   2.419   2.854 -0.3868 -0.3967 -0.4076
 5324TIP3    H237388   4.796   2.410   2.928  0.4138 -0.4857  1.0285
 5325TIP3   OH237389   6.094   1.191   1.716 -0.4023  0.6355 -0.4725
 5325TIP3    H137390   6.083   1.219   1.625 -0.8311 -0.8860 -0.9179
 5325TIP3    H237391   6.145   1.111   1.711 -0.3883  0.5509  0.6456
 5326TIP3   OH237392   6.369   5.869  14.084  0.0759 -0.3922  0.2980
 5326TIP3    H137393   6.420   5.821  14.018 -1.4094 -0.3058 -0.9585
 5326TIP3    H237394   6.375   5.960  14.056  2.0982  0.1171  2.1431
 5327TIP3   OH237395   6.181   4.844  14.995  0.5015  0.5829 -0.1516
 5327TIP3    H137396   6.251   4.837  15.059 -0.0809 -1.9952  0.3094
 5327TIP3    H237397   6.102   4.860  15.047  0.2171 -0.3034 -0.2830
 5328TIP3   OH237398   0.269   4.238  11.549  0.3917  0.4352 -0.0695
 5328TIP3    H137399   0.346   4.205  11.503 -0.0306 -0.2492 -0.3071
 5328TIP3    H237400   0.197   4.225  11.486  0.1751  1.6097 -0.0803
 5329TIP3   OH237401   3.760   1.116  14.389 -0.0265 -0.7948 -0.5529
 5329TIP3    H137402   3.830   1.160  14.439 -1.1800 -1.3514  1.6931
 5329TIP3    H237403   3.703   1.187  14.361  0.5719 -0.4819 -1.0193
 5330TIP3   OH237404   2.980   4.712  16.627 -0.2369  0.0846 -0.1317
 5330TIP3    H137405   2.980   4.792  16.680 -0.2977  1.0257 -1.5094
 5330TIP3    H237406   3.012   4.644  16.687 -3.4501  0.3503  2.1640
 5331TIP3   OH237407   6.398   3.507  12.812  0.1705 -0.0973  0.4094
 5331TIP3    H137408   6.330   3.441  12.822  0.1638 -0.2832 -0.7256
 5331TIP3    H237409   6.420   3.533  12.902  0.2823 -1.7560  0.8989
 5332TIP3   OH237410   5.184   2.419   4.984  0.5338 -0.1705  0.4568
 5332TIP3    H137411   5.193   2.345   5.044 -2.1519  0.2034  1.4355
 5332TIP3    H237412   5.143   2.382   4.906 -0.2723  0.1347  0.7196
 5333TIP3   OH237413   2.465   6.381   0.624  0.3952  0.3694  0.5189
 5333TIP3    H137414   2.444   6.352   0.536 -0.0960 -0.6629  0.9531
 5333TIP3    H237415   2.474   6.300   0.675  1.1957  0.9242  1.3013
 5334TIP3   OH237416   3.202   6.515  13.682  0.8093  0.3545  0.1367
 5334TIP3    H137417   3.289   6.546  13.655  1.3410 -0.6706  0.5831
 5334TIP3    H237418   3.149   6.519  13.603  1.6756 -0.3540 -0.5078
 5335TIP3   OH237419   2.085   0.854  15.426  0.0426 -0.1618  0.0696
 5335TIP3    H137420   2.031   0.810  15.360  1.1305 -0.1099 -0.8782
 5335TIP3    H237421   2.022   0.909  15.474 -0.8626 -0.6193 -0.5491
 5336TIP3   OH237422   5.564   0.512   0.756  0.5351 -1.4486  0.4969
 5336TIP3    H137423   5.608   0.436   0.719 -0.4284 -1.1475 -1.3739
 5336TIP3    H237424   5.568   0.578   0.688  0.5613 -0.1042  1.7532
 5337TIP3   OH237425   3.236   1.486   3.349 -0.0324  0.2019  0.1269
 5337TIP3    H137426   3.142   1.504   3.339 -0.4729 -2.2407 -0.9074
 5337TIP3    H237427   3.265   1.460   3.262  1.3627 -0.1426  0.6673
 5338TIP3   OH237428   5.384   6.753  12.834  0.9615 -0.0282  0.4355
 5338TIP3    H137429   5.360   6.838  12.797 -0.9083 -0.0982  1.3436
 5338TIP3    H237430   5.469   6.768  12.876  0.4246  1.5676  1.0488
 5339TIP3   OH237431   0.633   4.670   2.256 -0.4531 -0.5021  0.0519
 5339TIP3    H137432   0.712   4.622   2.281  0.1220  0.1607 -0.4792
 5339TIP3    H237433   0.566   4.601   2.246  0.1646 -1.1151  0.0518
 5340TIP3   OH237434   5.372   3.330  15.587  1.1911  0.1545 -0.2350
 5340TIP3    H137435   5.286   3.334  15.547  1.5794  0.4704 -1.0526
 5340TIP3    H237436   5.431   3.308  15.515  1.8199  0.1407  0.2750
 5341TIP3   OH237437   5.216   1.894   4.614  0.1824  0.3177 -0.4149
 5341TIP3    H137438   5.187   1.965   4.557  0.1251 -0.9796 -2.1161
 5341TIP3    H237439   5.135   1.859   4.651  0.3280  2.1555  1.8077
 5342TIP3   OH237440   3.649   0.168   2.047 -0.2223  0.0102 -0.0707
 5342TIP3    H137441   3.742   0.149   2.043 -0.1706  0.0816  0.6577
 5342TIP3    H237442   3.621   0.173   1.955  0.1965 -1.4379 -0.2954
 5343TIP3   OH237443   2.532   1.260  11.114  0.0861 -0.0418  0.0960
 5343TIP3    H137444   2.496   1.219  11.036  2.1068 -0.5097 -0.6459
 5343TIP3    H237445   2.568   1.187  11.165  1.9059  0.5816 -0.2518
 5344TIP3   OH237446   4.331   1.186   3.371  0.7752  0.0860  0.1025
 5344TIP3    H137447   4.422   1.197   3.346  1.3303 -1.3394  1.3077
 5344TIP3    H237448   4.288   1.151   3.293  1.2840  0.6551 -0.4349
 5345TIP3   OH237449   4.782   0.328  15.535 -0.2888  0.3038  0.0996
 5345TIP3    H137450   4.721   0.374  15.592 -0.8983  1.1308 -1.1697
 5345TIP3    H237451   4.728   0.261  15.492  0.3432 -0.8599  1.0790
 5346TIP3   OH237452   3.720   1.016  17.045  0.3383  0.2014  0.1281
 5346TIP3    H137453   3.678   0.932  17.023  0.1324  0.5772 -0.9713
 5346TIP3    H237454   3.806   1.011  17.004 -0.0024  0.8610 -0.7093
 5347TIP3   OH237455   1.858   4.132  12.780 -0.7511 -0.6936  0.0124
 5347TIP3    H137456   1.935   4.114  12.726 -0.2534 -0.9748  0.8084
 5347TIP3    H237457   1.795   4.170  12.719 -0.4730 -1.6907 -0.9265
 5348TIP3   OH237458   3.669   2.603   4.623  0.8171 -0.0298 -0.0889
 5348TIP3    H137459   3.616   2.550   4.564 -0.1616 -0.2902  0.9827
 5348TIP3    H237460   3.625   2.689   4.625  1.0137  0.0701  0.0137
 5349TIP3   OH237461   0.342   3.668   2.931 -0.1980 -0.2572 -0.3275
 5349TIP3    H137462   0.286   3.595   2.957 -1.9829  0.6549 -1.4080
 5349TIP3    H237463   0.307   3.696   2.847 -0.0832  2.3328  0.3963
 5350TIP3   OH237464   6.648   6.166  16.579 -0.3975 -0.0434 -0.0978
 5350TIP3    H137465   6.583   6.116  16.628  1.1463 -3.3118 -1.1013
 5350TIP3    H237466   6.711   6.100  16.548  0.9138  2.3263 -3.0142
 5351TIP3   OH237467   5.139   1.117  10.590 -0.1391  0.0005  0.6863
 5351TIP3    H137468   5.185   1.039  10.620 -0.3528  0.0826  1.2402
 5351TIP3    H237469   5.207   1.184  10.582 -0.1445  0.0983  1.4192
 5352TIP3   OH237470   0.076   0.695  16.979  0.0239 -0.1334 -0.2376
 5352TIP3    H137471   0.062   0.754  16.905 -2.0273 -0.6393 -0.3168
 5352TIP3    H237472   0.127   0.622  16.942 -0.6251 -0.1794 -1.0697
 5353TIP3   OH237473   1.632   2.443  13.181  0.3684 -0.0966 -0.1894
 5353TIP3    H137474   1.570   2.507  13.146 -1.0088 -1.3953 -0.1857
 5353TIP3    H237475   1.641   2.466  13.273 -0.8354 -0.4565  0.0278
 5354TIP3   OH237476   4.873   3.805  11.241  0.0933 -0.0287  0.1738
 5354TIP3    H137477   4.911   3.725  11.205 -2.3025 -1.4786  0.6166
 5354TIP3    H237478   4.814   3.836  11.174 -0.9300 -0.1325  0.9988
 5355TIP3   OH237479   4.714   4.655   0.703 -0.7282  0.3456  0.3102
 5355TIP3    H137480   4.683   4.722   0.641  0.5112  0.2590 -0.4463
 5355TIP3    H237481   4.642   4.645   0.765 -2.3447 -0.0873 -1.5173
 5356TIP3   OH237482   6.393   5.411   1.964 -0.3100 -0.3874  0.8275
 5356TIP3    H137483   6.435   5.411   2.050 -1.5828  2.8447  1.5629
 5356TIP3    H237484   6.465   5.423   1.902  0.3637 -0.1375  1.6415
 5357TIP3   OH237485   6.699   6.053  11.558  0.3355  0.4942 -0.0250
 5357TIP3    H137486   6.666   6.095  11.637 -0.4783  0.4978 -0.3502
 5357TIP3    H237487   6.648   5.972  11.551 -0.2803  0.9431 -1.0322
 5358TIP3   OH237488   2.876   2.134   1.174 -0.3424  0.5840  0.5790
 5358TIP3    H137489   2.858   2.213   1.122 -0.2079  0.2204 -0.0289
 5358TIP3    H237490   2.966   2.145   1.203 -0.2217  0.5092  0.2346
 5359TIP3   OH237491   0.391   5.289  15.489  0.6058  0.4361 -0.0480
 5359TIP3    H137492   0.462   5.301  15.426  1.8939 -1.0299  1.0358
 5359TIP3    H237493   0.365   5.198  15.479 -0.7552  0.8045 -0.0321
 5360TIP3   OH237494   6.454   1.950  10.748  0.0402  0.4630  0.0867
 5360TIP3    H137495   6.491   2.031  10.713 -2.0294  1.4576  0.0492
 5360TIP3    H237496   6.384   1.927  10.687  0.8962 -1.6928 -0.1949
 5361TIP3   OH237497   3.258   6.477   6.468 -0.1283 -0.2658  0.2369
 5361TIP3    H137498   3.336   6.423   6.455  0.3844  0.4720  0.1152
 5361TIP3    H237499   3.246   6.521   6.383  0.5570  1.1794  0.8481
 5362TIP3   OH237500   1.742   6.328  11.631 -0.2283  0.0465  0.0971
 5362TIP3    H137501   1.811   6.323  11.566 -0.3016 -0.0051  0.0230
 5362TIP3    H237502   1.664   6.294  11.587 -0.1505 -0.5257  0.3897
 5363TIP3   OH237503   2.584   4.615  15.409 -0.5452 -0.5248  0.9050
 5363TIP3    H137504   2.648   4.636  15.341 -0.9991  0.3062  0.7181
 5363TIP3    H237505   2.621   4.652  15.489 -0.5581 -0.4811  0.8906
 5364TIP3   OH237506   4.164   1.146  15.199 -0.2443  0.3142  0.1734
 5364TIP3    H137507   4.246   1.184  15.168  0.3312 -1.4264 -0.5035
 5364TIP3    H237508   4.158   1.173  15.291  1.7050 -0.5627  0.5871
 5365TIP3   OH237509   0.188   0.978  11.708  0.2370 -0.1325 -0.5469
 5365TIP3    H137510   0.260   0.924  11.676  1.9239  0.5082  1.9044
 5365TIP3    H237511   0.154   0.930  11.783  0.5990  1.3165  0.5924
 5366TIP3   OH237512   6.012   4.490  15.410 -0.4881  0.0431 -0.8256
 5366TIP3    H137513   6.028   4.584  15.421 -0.5654  0.3965 -3.1895
 5366TIP3    H237514   6.075   4.462  15.344 -0.8160 -1.4814 -0.5449
 5367TIP3   OH237515   6.165   2.573  13.452 -0.0933 -0.4501  0.1823
 5367TIP3    H137516   6.168   2.637  13.523 -1.4009  1.9199 -1.7193
 5367TIP3    H237517   6.080   2.530  13.461  0.4494 -1.3680  0.9991
 5368TIP3   OH237518   0.952   6.173  13.827  0.3481  0.1179 -0.3435
 5368TIP3    H137519   1.006   6.114  13.880 -0.5019  0.3744  0.8484
 5368TIP3    H237520   0.877   6.194  13.883 -0.7718  0.1355 -1.7794
 5369TIP3   OH237521   2.118   2.123   5.845 -0.1856  0.6756  0.7515
 5369TIP3    H137522   2.098   2.212   5.817  0.9370  0.5611 -0.5062
 5369TIP3    H237523   2.214   2.118   5.841 -0.2821 -0.8781 -0.1034
 5370TIP3   OH237524   5.288   5.493  15.352  0.4473 -0.4282 -0.0070
 5370TIP3    H137525   5.221   5.427  15.335  2.2885 -2.2747 -0.6678
 5370TIP3    H237526   5.367   5.442  15.370  1.4324  1.6230  1.9465
 5371TIP3   OH237527   5.693   3.480  15.575 -0.0482 -0.3390 -0.3998
 5371TIP3    H137528   5.755   3.411  15.551 -1.1904 -1.6548  0.2496
 5371TIP3    H237529   5.627   3.435  15.628 -0.6628  1.3346  0.3358
 5372TIP3   OH237530   4.734   4.865  16.388  0.6954 -0.2123 -0.7634
 5372TIP3    H137531   4.772   4.952  16.387 -2.3336  1.2244 -0.3910
 5372TIP3    H237532   4.750   4.831  16.300 -0.1464  1.7303 -1.7272
 5373TIP3   OH237533   6.675   4.357  12.333 -0.0589  0.0929 -0.0762
 5373TIP3    H137534   6.629   4.364  12.249 -0.0810 -0.8252 -0.1429
 5373TIP3    H237535   6.620   4.299  12.386  0.5781 -0.3202  0.1472
 5374TIP3   OH237536   6.769   2.207  12.695 -0.2709 -0.0434 -0.2171
 5374TIP3    H137537   6.754   2.174  12.783  2.5404  1.9195  1.1458
 5374TIP3    H237538   6.844   2.156  12.663 -0.8854 -0.3192 -1.2710
 5375TIP3   OH237539   4.137   4.239   4.058  0.0894  0.8760 -0.5465
 5375TIP3    H137540   4.218   4.242   4.109  1.0531  0.1809 -1.9788
 5375TIP3    H237541   4.160   4.275   3.972 -0.2393 -2.1169 -2.0319
 5376TIP3   OH237542   3.776   0.668  13.385  0.2183 -1.0558 -0.4459
 5376TIP3    H137543   3.870   0.677  13.367  0.1864 -0.7146 -0.4427
 5376TIP3    H237544   3.735   0.741  13.339  0.1321 -0.2189  0.9186
 5377TIP3   OH237545   3.914   5.018  14.575  0.5875  0.5338 -0.1905
 5377TIP3    H137546   3.872   5.104  14.578 -0.7826 -0.1128 -0.1285
 5377TIP3    H237547   4.008   5.037  14.586  0.2004  1.9104  1.1219
 5378TIP3   OH237548   5.011   0.195   3.047  0.7412 -0.0244 -0.2000
 5378TIP3    H137549   5.031   0.289   3.047  0.7392  0.1461  3.6340
 5378TIP3    H237550   5.091   0.153   3.078 -0.0913 -0.9608  0.7458
 5379TIP3   OH237551   6.378   3.802  15.305 -0.4300 -0.2340  0.2605
 5379TIP3    H137552   6.466   3.835  15.321 -0.9885  1.2046  0.6024
 5379TIP3    H237553   6.384   3.757  15.221  0.1435  1.9514 -0.9577
 5380TIP3   OH237554   5.679   0.895  11.671 -0.7749 -0.3516  0.2919
 5380TIP3    H137555   5.700   0.988  11.664  1.1358 -0.6440  1.5786
 5380TIP3    H237556   5.679   0.878  11.765  1.2697 -2.1142  0.0412
 5381TIP3   OH237557   5.208   5.027   2.118  0.4771 -0.0796  0.0268
 5381TIP3    H137558   5.147   4.976   2.064  2.1198  0.2760 -2.3256
 5381TIP3    H237559   5.210   4.982   2.202 -2.0888 -0.7643 -0.2024
 5382TIP3   OH237560   5.302   4.020  13.978 -0.0932  0.1366 -0.0850
 5382TIP3    H137561   5.299   3.962  14.054  0.4959 -1.2593 -1.1000
 5382TIP3    H237562   5.271   3.966  13.905  0.3680  1.1331 -1.0421
 5383TIP3   OH237563   6.613   6.520  16.987 -0.0564  0.4475 -0.2643
 5383TIP3    H137564   6.580   6.576  16.917 -1.0571  0.6448  0.3541
 5383TIP3    H237565   6.536   6.473  17.019  0.5523 -0.3636  0.0664
 5384TIP3   OH237566   2.921   2.900   3.610 -0.3430 -0.7314 -0.7008
 5384TIP3    H137567   2.848   2.852   3.649 -1.4404  0.5559 -1.1212
 5384TIP3    H237568   2.998   2.868   3.657 -1.2779 -1.4475  0.3878
 5385TIP3   OH237569   1.836   3.452   2.938 -0.3307  0.1199  0.0619
 5385TIP3    H137570   1.793   3.388   2.995 -0.8108  1.7021  1.5685
 5385TIP3    H237571   1.834   3.533   2.988  1.0492  1.1255 -1.4259
 5386TIP3   OH237572   0.639   4.764  12.777 -0.7242 -0.1305 -0.1341
 5386TIP3    H137573   0.619   4.674  12.802 -0.4754 -0.9577 -2.6442
 5386TIP3    H237574   0.555   4.808  12.774 -1.1704 -1.0254 -1.4429
 5387TIP3   OH237575   0.683   6.537   3.465  0.3141  0.5040  0.0521
 5387TIP3    H137576   0.681   6.632   3.455 -1.0626  0.4122 -0.7277
 5387TIP3    H237577   0.659   6.521   3.556 -0.3886  0.8807 -0.0611
 5388TIP3   OH237578   0.605   6.179  13.306 -0.0920  0.3120  0.6424
 5388TIP3    H137579   0.598   6.086  13.327  0.5651  0.3486  1.0676
 5388TIP3    H237580   0.666   6.214  13.372 -0.6728  1.1287  0.7663
 5389TIP3   OH237581   6.711   3.279  11.584  0.6181 -0.6086  0.9249
 5389TIP3    H137582   6.668   3.232  11.655 -0.3238  0.1508  0.8697
 5389TIP3    H237583   6.782   3.326  11.627  0.3514 -0.5299  1.2864
 5390TIP3   OH237584   4.167   2.504   0.131  0.2177 -0.4753  0.4625
 5390TIP3    H137585   4.244   2.455   0.101  0.2428  0.0946 -0.4421
 5390TIP3    H237586   4.101   2.437   0.148 -0.7159 -0.7509 -3.5085
 5391TIP3   OH237587   6.005   1.680   1.994  0.1154 -0.5361  0.5224
 5391TIP3    H137588   6.044   1.740   2.058 -0.0190 -0.2495  0.3394
 5391TIP3    H237589   5.988   1.735   1.917 -0.2940 -0.7422  0.4621
 5392TIP3   OH237590   0.474   1.573   5.676 -0.0083  0.4982 -0.0830
 5392TIP3    H137591   0.413   1.638   5.710 -2.5613 -2.0751  0.7051
 5392TIP3    H237592   0.419   1.514   5.623  2.0815 -1.1636 -0.5525
 5393TIP3   OH237593   1.248   3.851  13.335  0.1537 -0.4328  0.2018
 5393TIP3    H137594   1.242   3.780  13.271  0.9094 -0.2411 -0.0854
 5393TIP3    H237595   1.332   3.837  13.379  0.7635  0.8155 -0.5043
 5394TIP3   OH237596   2.790   6.383  14.717  0.2720  0.1164 -0.2036
 5394TIP3    H137597   2.884   6.373  14.703 -0.0207 -2.2445 -0.9514
 5394TIP3    H237598   2.764   6.454  14.659  1.3450 -0.2597 -1.1766
 5395TIP3   OH237599   0.310   0.541   0.011  0.2699  0.0830  0.5118
 5395TIP3    H137600   0.296   0.473  -0.055  0.8114  0.4251  0.0323
 5395TIP3    H237601   0.242   0.606  -0.007  1.1809  0.7773 -0.5260
 5396TIP3   OH237602   0.345   6.356   0.979  0.1695 -0.0687  0.1229
 5396TIP3    H137603   0.410   6.321   1.041 -1.1451 -0.5402  1.2992
 5396TIP3    H237604   0.395   6.412   0.920  1.5747 -0.0718  1.2647
 5397TIP3   OH237605   1.304   3.766   2.718 -0.0201  0.0777  0.5025
 5397TIP3    H137606   1.279   3.858   2.728  0.6849  0.0695  2.9055
 5397TIP3    H237607   1.229   3.717   2.751  0.1982 -0.1707  0.6328
 5398TIP3   OH237608   0.171   5.845  10.847  0.5033  0.2482 -0.0070
 5398TIP3    H137609   0.180   5.920  10.788  1.7326  0.3765  0.3012
 5398TIP3    H237610   0.176   5.884  10.935 -1.8560  0.1279  0.2392
 5399TIP3   OH237611   3.407   0.445   2.294  0.0930  0.0661  0.7519
 5399TIP3    H137612   3.430   0.352   2.283  1.0164  0.0207  2.6857
 5399TIP3    H237613   3.474   0.479   2.354 -1.0521  1.6324  1.1909
 5400TIP3   OH237614   3.363   1.276  15.242 -0.2636  0.1455 -0.1343
 5400TIP3    H137615   3.348   1.230  15.325 -0.0978  1.6030  0.7566
 5400TIP3    H237616   3.455   1.261  15.223 -0.2846 -0.1394 -0.0198
 5401TIP3   OH237617   2.158   6.286   0.697 -0.2580  0.3711 -0.6490
 5401TIP3    H137618   2.197   6.372   0.713  1.2335 -0.5220  0.7716
 5401TIP3    H237619   2.150   6.282   0.601  1.5902  1.2908 -0.8923
 5402TIP3   OH237620   5.067   1.633  15.818 -0.1476 -0.5060  0.3292
 5402TIP3    H137621   5.003   1.703  15.834  0.4877  0.0658  0.3861
 5402TIP3    H237622   5.151   1.678  15.814  0.2552 -1.2595  0.2602
 5403TIP3   OH237623   1.982   0.654  13.239 -0.3015 -0.2104 -0.0294
 5403TIP3    H137624   1.955   0.633  13.328 -0.0807 -1.7053 -0.2887
 5403TIP3    H237625   1.934   0.593  13.184 -1.4668  1.5785 -1.0931
 5404TIP3   OH237626   1.607   3.483  13.100 -0.6737  0.0585 -0.1587
 5404TIP3    H137627   1.663   3.424  13.151 -1.0384  0.1632  0.3783
 5404TIP3    H237628   1.518   3.452  13.118 -1.0243  1.8973  1.6493
 5405TIP3   OH237629   5.999   4.734   3.885 -0.1299 -0.5829 -0.1906
 5405TIP3    H137630   6.069   4.710   3.824 -0.1676 -0.0083 -0.4751
 5405TIP3    H237631   5.941   4.789   3.833  0.4115  0.8390  0.6431
 5406TIP3   OH237632   3.948   5.312  16.960 -0.2061  0.1083  0.1708
 5406TIP3    H137633   4.016   5.367  16.920 -0.1533  0.1268  0.2851
 5406TIP3    H237634   3.904   5.271  16.886 -2.3604  2.7159 -0.1790
 5407TIP3   OH237635   2.334   2.626   0.080  0.2191 -1.0291 -0.5846
 5407TIP3    H137636   2.421   2.626   0.120 -1.2186 -0.9482  2.8328
 5407TIP3    H237637   2.338   2.555   0.016  2.8313 -0.8519 -0.7504
 5408TIP3   OH237638   3.416   0.308   0.696  0.2180  0.0279 -0.4723
 5408TIP3    H137639   3.331   0.352   0.708 -1.2974 -1.9540 -2.8897
 5408TIP3    H237640   3.477   0.378   0.675 -1.1072  1.3924  0.0478
 5409TIP3   OH237641   1.316   4.282   0.201  0.1007  0.0048  0.5263
 5409TIP3    H137642   1.301   4.376   0.215 -0.9984 -0.4529  2.8328
 5409TIP3    H237643   1.398   4.264   0.246 -0.5465 -0.4327  1.5529
 5410TIP3   OH237644   3.016   4.173  14.025 -0.0625 -0.2434  0.1059
 5410TIP3    H137645   3.092   4.139  14.072 -0.7514 -0.4523  1.1225
 5410TIP3    H237646   2.963   4.096  14.006 -0.2880 -0.0425 -0.0919
 5411TIP3   OH237647   1.775   6.462   1.296 -0.2886  0.0156  0.0561
 5411TIP3    H137648   1.727   6.455   1.214  0.9454 -1.1677 -0.6127
 5411TIP3    H237649   1.788   6.556   1.309  0.1935  0.2020 -1.5445
 5412TIP3   OH237650   1.734   0.773  12.984  0.2272 -0.1251  0.6863
 5412TIP3    H137651   1.684   0.702  13.024  2.9197 -0.6842  3.4707
 5412TIP3    H237652   1.762   0.738  12.900 -0.0208 -1.6786  1.2168
 5413TIP3   OH237653   6.346   4.080   4.971  0.0483  0.1196 -0.2836
 5413TIP3    H137654   6.429   4.047   4.937 -0.2133 -0.8498  0.0087
 5413TIP3    H237655   6.318   4.015   5.035 -0.2903  1.0940  0.5877
 5414TIP3   OH237656   4.073   6.652  13.398  0.0578  0.2858  0.0708
 5414TIP3    H137657   4.017   6.717  13.440  0.7568  0.4562  0.7739
 5414TIP3    H237658   4.092   6.689  13.311  1.0242  1.3768  0.7222
 5415TIP3   OH237659   1.933   4.156  13.223 -0.4911  0.4386  0.0485
 5415TIP3    H137660   1.868   4.168  13.154 -0.9155 -0.7765  0.2159
 5415TIP3    H237661   2.011   4.203  13.192  0.5156 -2.7512 -2.9183
 5416TIP3   OH237662   0.075   0.052   1.142  0.2645 -1.0557  0.0313
 5416TIP3    H137663   0.036  -0.028   1.108 -1.4565  0.6819 -2.3561
 5416TIP3    H237664   0.001   0.110   1.159  1.5638  0.8359 -0.4441
 5417TIP3   OH237665   2.426   5.934   3.364  0.2206 -0.5429 -0.1069
 5417TIP3    H137666   2.372   5.888   3.301 -0.6858 -0.8726  0.8748
 5417TIP3    H237667   2.447   6.018   3.323 -0.2477 -0.8011 -0.8751
 5418TIP3   OH237668   1.968   5.819  12.932  0.1867  0.1510 -0.2454
 5418TIP3    H137669   1.957   5.799  13.025 -2.2560  0.1105 -0.4795
 5418TIP3    H237670   2.041   5.881  12.929  0.5925 -0.1752  1.6324
 5419TIP3   OH237671   5.711   6.761  13.897  0.1536  0.1843  0.2459
 5419TIP3    H137672   5.731   6.742  13.805  0.7685  3.3208 -0.3668
 5419TIP3    H237673   5.790   6.735  13.945  1.0746  1.3818 -0.5697
 5420TIP3   OH237674   2.159   2.709  12.033  0.0113  0.1929 -0.3027
 5420TIP3    H137675   2.237   2.653  12.044  0.6271  1.2090  0.7543
 5420TIP3    H237676   2.164   2.739  11.942  1.1001  0.5699 -0.1380
 5421TIP3   OH237677   5.656   2.677   5.033  0.9254  0.5605  0.4110
 5421TIP3    H137678   5.595   2.616   5.075  0.3099  0.7437 -0.1984
 5421TIP3    H237679   5.600   2.745   4.995  1.3008 -0.3580 -1.9778
 5422TIP3   OH237680   6.184   2.440  11.695  0.0809 -0.5840 -0.6066
 5422TIP3    H137681   6.097   2.479  11.682 -0.8028 -2.4005 -0.3401
 5422TIP3    H237682   6.200   2.450  11.788  0.5355  0.4681 -0.7831
 5423TIP3   OH237683   5.318   0.898  16.245 -0.0399  0.0138  0.0448
 5423TIP3    H137684   5.298   0.937  16.330  1.0259  0.2215  0.2269
 5423TIP3    H237685   5.354   0.812  16.267 -2.4223 -1.1638 -0.3527
 5424TIP3   OH237686   4.770   4.024  15.288  0.1690  0.2017 -0.0456
 5424TIP3    H137687   4.713   4.038  15.213  0.9662 -0.2553 -0.7574
 5424TIP3    H237688   4.738   3.943  15.328  0.9987 -0.6933 -1.1209
 5425TIP3   OH237689   0.627   0.923  16.881 -0.2250 -0.1182 -0.6936
 5425TIP3    H137690   0.605   0.999  16.935 -0.5052  0.7986 -2.0394
 5425TIP3    H237691   0.612   0.848  16.937 -0.4536  0.7972  0.5087
 5426TIP3   OH237692   3.738   4.517  11.694 -0.0755 -0.1537 -0.4066
 5426TIP3    H137693   3.671   4.582  11.716  0.5774  0.5952 -0.5573
 5426TIP3    H237694   3.709   4.436  11.735 -0.3814  0.4919  0.6700
 5427TIP3   OH237695   3.503   6.249   4.978 -0.5056  0.5238 -0.0317
 5427TIP3    H137696   3.468   6.254   5.067  0.8645  0.9369  0.5124
 5427TIP3    H237697   3.598   6.248   4.990 -0.2886 -1.8684 -1.3661
 5428TIP3   OH237698   4.135   3.621  13.206 -0.2069 -0.4785 -0.0638
 5428TIP3    H137699   4.154   3.627  13.300  0.3028 -0.3587 -0.1699
 5428TIP3    H237700   4.072   3.549  13.199 -1.9471  0.8994  0.5959
 5429TIP3   OH237701   6.623   3.987  17.122 -0.4963 -0.7215  0.4743
 5429TIP3    H137702   6.556   3.997  17.190 -0.0989 -1.5778  1.0026
 5429TIP3    H237703   6.607   3.901  17.084 -0.6057 -0.3199 -0.4088
 5430TIP3   OH237704   5.012   4.644   2.706  0.3184 -0.1107 -0.3831
 5430TIP3    H137705   5.011   4.712   2.773  2.1001  0.0474 -0.4685
 5430TIP3    H237706   5.086   4.667   2.649  2.4172 -3.2143  0.8159
 5431TIP3   OH237707   1.020   3.665  11.797 -0.3727  0.1628  0.6080
 5431TIP3    H137708   1.057   3.731  11.737  1.9157 -0.1237  1.5798
 5431TIP3    H237709   0.952   3.711  11.845 -0.2079  1.2401 -0.1526
 5432TIP3   OH237710   2.730   2.952   0.059 -0.6729  0.6249 -0.3929
 5432TIP3    H137711   2.756   3.035   0.019  1.4429  0.9197  1.4386
 5432TIP3    H237712   2.743   2.887  -0.011  3.5238  1.0163 -0.2538
 5433TIP3   OH237713   2.196   0.079   4.701 -0.6684  0.4051  0.1811
 5433TIP3    H137714   2.285   0.105   4.724 -0.9248 -0.3118  2.2458
 5433TIP3    H237715   2.146   0.161   4.704 -0.2895  0.6439  0.1027
 5434TIP3   OH237716   4.737   1.182  13.515  0.0926 -0.3231 -0.4570
 5434TIP3    H137717   4.777   1.147  13.436 -0.6291 -2.2415 -0.0325
 5434TIP3    H237718   4.784   1.140  13.587  0.3526  0.9441  0.1539
 5435TIP3   OH237719   6.231   0.881   1.332  0.2443  0.2073 -0.4936
 5435TIP3    H137720   6.314   0.842   1.360 -0.6117 -1.7100 -0.4792
 5435TIP3    H237721   6.256   0.940   1.261  1.4497 -2.0311 -2.0761
 5436TIP3   OH237722   1.356   2.403  13.695 -0.5895 -0.1272  0.3206
 5436TIP3    H137723   1.408   2.423  13.773 -0.9067  1.7213  0.1169
 5436TIP3    H237724   1.293   2.337  13.724  1.1265 -1.6211  0.8460
 5437TIP3   OH237725   3.184   0.405   2.628 -0.4149  0.3043 -0.4519
 5437TIP3    H137726   3.147   0.411   2.539  1.0488 -0.1863 -1.1343
 5437TIP3    H237727   3.271   0.369   2.614 -0.6900 -1.1868  1.3485
 5438TIP3   OH237728   0.148   3.917   2.756 -0.4624 -0.0220  0.1373
 5438TIP3    H137729   0.166   3.887   2.667 -1.1553  0.0345 -0.0321
 5438TIP3    H237730   0.054   3.938   2.755 -0.0799  1.9164  0.3086
 5439TIP3   OH237731   2.263   6.208  16.696 -0.6491  0.1422  0.0827
 5439TIP3    H137732   2.251   6.181  16.787  0.3205  0.5405  0.3428
 5439TIP3    H237733   2.356   6.193  16.678 -0.9718 -0.5882 -1.0691
 5440TIP3   OH237734   2.304   6.715   6.392 -0.1391  0.3425  0.1997
 5440TIP3    H137735   2.313   6.642   6.332  3.7158  0.7419  0.0041
 5440TIP3    H237736   2.374   6.702   6.456 -0.7682  2.6650  1.5014
 5441TIP3   OH237737   3.527   3.768  15.386  0.2977 -0.1000 -0.6067
 5441TIP3    H137738   3.530   3.860  15.358 -1.2540 -0.1546 -1.0244
 5441TIP3    H237739   3.614   3.752  15.424  1.3020  0.9418 -2.3365
 5442TIP3   OH237740   1.421   3.614   6.487 -0.0488  0.2481 -0.0153
 5442TIP3    H137741   1.457   3.631   6.400 -0.8701  0.6392 -0.2946
 5442TIP3    H237742   1.495   3.624   6.546  0.1062  2.0500 -0.4632
 5443TIP3   OH237743   5.308   3.297   4.642  0.3178  0.1716 -0.2930
 5443TIP3    H137744   5.318   3.271   4.733  1.7858 -1.3431 -0.8305
 5443TIP3    H237745   5.214   3.310   4.631  0.1200  0.4435  1.4360
 5444TIP3   OH237746   6.373   5.812   1.999  0.2194 -0.2188  0.5204
 5444TIP3    H137747   6.416   5.807   2.085 -0.3491 -0.7421  0.7769
 5444TIP3    H237748   6.324   5.730   1.992 -1.9509  0.9679  0.8783
 5445TIP3   OH237749   1.156   3.482   2.974  0.0135 -0.4241  0.1654
 5445TIP3    H137750   1.126   3.572   2.965 -0.4566 -0.5457  0.4892
 5445TIP3    H237751   1.249   3.485   2.951  0.2176  0.2938  1.0561
 5446TIP3   OH237752   3.464   2.852   1.192  0.1533 -0.2925  0.8240
 5446TIP3    H137753   3.381   2.830   1.150 -1.1852  1.5183  2.3546
 5446TIP3    H237754   3.476   2.783   1.258 -1.6777  0.9153  2.5354
 5447TIP3   OH237755   1.493   4.950  14.332  0.4212  0.3067 -0.0966
 5447TIP3    H137756   1.538   4.910  14.258  0.2306  0.4486 -0.2891
 5447TIP3    H237757   1.400   4.931  14.317  0.2806  1.2294 -0.4403
 5448TIP3   OH237758   1.727   5.197  15.249 -0.0022  0.1098  0.6109
 5448TIP3    H137759   1.687   5.269  15.297  1.3387  1.1207  0.2693
 5448TIP3    H237760   1.753   5.235  15.165  1.5489 -0.5163  0.7740
 5449TIP3   OH237761   3.806   1.987  15.591 -0.0612 -0.2796  0.4285
 5449TIP3    H137762   3.714   1.961  15.584 -0.1801 -0.4365  2.0700
 5449TIP3    H237763   3.834   1.952  15.676  1.3708  0.2220  0.1940
 5450TIP3   OH237764   2.415   4.628   0.303 -0.6556 -0.1507 -0.0939
 5450TIP3    H137765   2.381   4.693   0.365  2.5923  0.2986  1.4124
 5450TIP3    H237766   2.423   4.675   0.220 -0.1522  0.8420  0.4947
 5451TIP3   OH237767   0.437   3.202   5.412 -0.3296  0.6046  0.4243
 5451TIP3    H137768   0.514   3.258   5.413 -0.7017  1.1236 -0.1584
 5451TIP3    H237769   0.367   3.257   5.445 -1.2310  1.2815 -2.3755
 5452TIP3   OH237770   2.955   5.672   1.148 -0.0518 -0.0291  0.0367
 5452TIP3    H137771   2.902   5.623   1.210 -0.6291 -0.1361 -0.5336
 5452TIP3    H237772   3.025   5.710   1.201  0.9549 -2.2176  0.3665
 5453TIP3   OH237773   1.683   2.987  16.379  0.1557  0.1152 -0.1900
 5453TIP3    H137774   1.769   3.025  16.359  0.5116 -0.7388 -0.3364
 5453TIP3    H237775   1.681   2.983  16.475  0.3826 -0.0688 -0.1898
 5454TIP3   OH237776   2.419   6.786   2.075  0.6136 -0.0360  0.0123
 5454TIP3    H137777   2.347   6.744   2.029  0.3690  0.0355  0.3278
 5454TIP3    H237778   2.411   6.755   2.165  1.3691 -0.5493 -0.0820
 5455TIP3   OH237779   6.167   0.108   6.510 -0.0623  0.6559 -0.1033
 5455TIP3    H137780   6.128   0.126   6.596 -1.2176  0.5226 -0.5863
 5455TIP3    H237781   6.196   0.017   6.515  0.5960  0.8781  0.3936
 5456TIP3   OH237782   3.566   6.725  16.088  0.5339 -0.2024  0.1888
 5456TIP3    H137783   3.586   6.649  16.143 -0.7430  0.3546  1.4845
 5456TIP3    H237784   3.615   6.797  16.127 -0.8413  0.3250  0.9962
 5457TIP3   OH237785   0.498   2.919   4.024  0.2754 -0.0602 -0.2714
 5457TIP3    H137786   0.418   2.971   4.026  0.9935  1.1159 -0.9188
 5457TIP3    H237787   0.555   2.960   4.088  1.3437  0.8327 -1.7267
 5458TIP3   OH237788   3.933   5.821   3.127 -0.6876  0.5057 -0.3439
 5458TIP3    H137789   3.949   5.845   3.218 -0.7199  2.6376 -0.8382
 5458TIP3    H237790   3.840   5.799   3.124 -0.7347  0.6370  0.0880
 5459TIP3   OH237791   5.991   6.257   2.192 -0.0826 -0.2679  0.2036
 5459TIP3    H137792   5.915   6.315   2.192 -0.1940 -0.4142  0.1958
 5459TIP3    H237793   5.969   6.187   2.253 -0.8321 -1.4466 -1.3484
 5460TIP3   OH237794   0.358   3.046  14.969 -0.7302  0.8413  0.5806
 5460TIP3    H137795   0.351   3.083  14.881 -1.2838  0.9868  0.6796
 5460TIP3    H237796   0.450   3.057  14.992 -0.3245 -0.2346 -0.4251
 5461TIP3   OH237797   6.167   2.490  16.148 -0.2406 -0.1721  0.3867
 5461TIP3    H137798   6.093   2.547  16.166  0.1818  0.7162 -0.5902
 5461TIP3    H237799   6.237   2.522  16.204  0.1683  0.6678 -0.5708
 5462TIP3   OH237800   6.167   3.641   1.660 -0.6510 -0.2509 -1.0533
 5462TIP3    H137801   6.138   3.616   1.572 -1.1723  0.8489 -1.2199
 5462TIP3    H237802   6.121   3.724   1.676  0.0377 -0.0601 -0.0528
 5463TIP3   OH237803   2.938   1.007   3.564  0.4990  0.0375  0.0802
 5463TIP3    H137804   3.028   0.988   3.588  0.4697  0.4818  0.5458
 5463TIP3    H237805   2.886   0.948   3.618  0.5655 -1.7354 -1.6739
 5464TIP3   OH237806   0.667   1.783  14.732 -0.0452  0.6844  0.3618
 5464TIP3    H137807   0.639   1.810  14.820  0.3119 -2.2806  1.4929
 5464TIP3    H237808   0.617   1.704  14.714  1.6373 -0.1111 -1.0944
 5465TIP3   OH237809   5.984   2.681   0.680 -0.2137  0.0606 -0.1493
 5465TIP3    H137810   5.903   2.659   0.725 -0.5678 -1.7281 -1.5472
 5465TIP3    H237811   6.052   2.675   0.747 -1.2085  1.9313  1.1259
 5466TIP3   OH237812   5.266   0.684   0.898  0.1124  0.8408  0.2721
 5466TIP3    H137813   5.301   0.767   0.930  2.0513  0.9165 -1.8064
 5466TIP3    H237814   5.328   0.618   0.930  0.2303  0.5483 -0.5554
 5467TIP3   OH237815   3.704   5.853   3.932 -0.1695  0.1504  0.0639
 5467TIP3    H137816   3.774   5.870   3.994  0.6219  0.5564 -0.9176
 5467TIP3    H237817   3.737   5.885   3.848 -1.1915 -0.4278 -0.5881
 5468TIP3   OH237818   5.630   4.649  16.138  0.7227  0.4317  0.3230
 5468TIP3    H137819   5.568   4.599  16.191  0.8299 -0.2403 -0.1851
 5468TIP3    H237820   5.632   4.605  16.053  0.8749  1.2515 -0.1104
 5469TIP3   OH237821   6.116   2.206  13.136  0.7464  0.2879  0.6735
 5469TIP3    H137822   6.157   2.210  13.223 -0.9498  0.2340  1.5150
 5469TIP3    H237823   6.113   2.298  13.108  1.8660  0.2477  0.3707
 5470TIP3   OH237824   5.344   3.510   2.267 -0.3143  0.1808  0.1578
 5470TIP3    H137825   5.332   3.429   2.217  1.9566 -0.2012  0.1235
 5470TIP3    H237826   5.279   3.505   2.336 -0.7616 -1.2870 -0.3221
 5471TIP3   OH237827   2.457   4.863  11.439 -0.4780 -0.0835  0.5677
 5471TIP3    H137828   2.456   4.956  11.420 -0.8341 -0.2258 -0.1397
 5471TIP3    H237829   2.549   4.838  11.432 -0.1725  0.4745  2.1505
 5472TIP3   OH237830   0.365   0.807  12.057  0.0735 -0.7753  0.3822
 5472TIP3    H137831   0.395   0.718  12.073 -2.7285 -2.2619 -1.7320
 5472TIP3    H237832   0.274   0.808  12.085 -0.6117  0.7371 -1.5972
 5473TIP3   OH237833   3.002   2.399   0.869  0.4347  0.0059 -0.2280
 5473TIP3    H137834   3.056   2.410   0.947  1.5451 -1.1499 -0.7982
 5473TIP3    H237835   2.975   2.307   0.871  0.1536  0.0620 -1.0033
 5474TIP3   OH237836   0.586   5.360   5.467  0.2902 -0.0008  0.1990
 5474TIP3    H137837   0.657   5.296   5.458  1.5215  1.4657 -0.8768
 5474TIP3    H237838   0.623   5.431   5.518 -0.8868  0.1682  0.8679
 5475TIP3   OH237839   4.201   3.640  10.906  0.3918  0.1026  0.1301
 5475TIP3    H137840   4.150   3.593  10.972  0.4168  2.4323  1.9236
 5475TIP3    H237841   4.207   3.729  10.939  0.3330  1.4331 -3.1132
 5476TIP3   OH237842   5.716   0.612   4.965 -0.6262  0.2964  0.4411
 5476TIP3    H137843   5.661   0.535   4.950  0.4650 -0.2279 -1.1077
 5476TIP3    H237844   5.654   0.684   4.974 -1.6100 -0.2764 -1.2503
 5477TIP3   OH237845   1.317   2.084  14.802  0.2763 -0.9803 -0.3287
 5477TIP3    H137846   1.256   2.030  14.751 -1.4591  0.2673  0.3337
 5477TIP3    H237847   1.292   2.070  14.893 -1.1911  1.8852 -0.1642
 5478TIP3   OH237848   5.736   1.789   4.603 -0.3413  0.0334 -0.5088
 5478TIP3    H137849   5.674   1.781   4.530 -0.4546  0.7303 -0.4930
 5478TIP3    H237850   5.767   1.700   4.617 -3.2084 -0.8261  1.1064
 5479TIP3   OH237851   1.067   3.629  11.334  0.2583  0.9228  0.0492
 5479TIP3    H137852   1.069   3.566  11.261  1.0839  0.6381  0.3085
 5479TIP3    H237853   0.975   3.654  11.341 -0.0029  0.1408 -0.4085
 5480TIP3   OH237854   1.221   1.948  15.872  0.1961 -0.1236  0.0348
 5480TIP3    H137855   1.272   1.977  15.948  0.1015  1.5639 -0.5285
 5480TIP3    H237856   1.279   1.886  15.827  1.1984  0.6996  0.1759
 5481TIP3   OH237857   6.260   0.143  12.303  0.3386  0.4363  0.0786
 5481TIP3    H137858   6.340   0.149  12.355  1.3268  1.2623 -1.4709
 5481TIP3    H237859   6.204   0.083  12.352  1.2305  1.1304  2.0460
 5482TIP3   OH237860   4.097   5.311  12.438 -0.7445 -0.2567  0.5393
 5482TIP3    H137861   4.173   5.359  12.405 -2.0292  1.0116 -0.7440
 5482TIP3    H237862   4.134   5.240  12.490  1.4307 -1.6499 -2.5919
 5483TIP3   OH237863   5.535   0.344   4.640 -0.1488  0.2067  0.4168
 5483TIP3    H137864   5.606   0.394   4.599  1.3161 -1.6896  0.4710
 5483TIP3    H237865   5.518   0.390   4.722  2.5994 -0.3953  1.4658
 5484TIP3   OH237866   3.208   6.274   0.709  0.2137  0.0749  0.2976
 5484TIP3    H137867   3.219   6.258   0.803 -0.2792  1.9157  0.7021
 5484TIP3    H237868   3.148   6.206   0.680 -2.4114  1.4890  2.0680
 5485TIP3   OH237869   6.683   5.252  15.937  0.1001 -0.1370  0.3915
 5485TIP3    H137870   6.722   5.339  15.948  0.1559 -0.0473 -0.4949
 5485TIP3    H237871   6.589   5.266  15.947 -0.0159  0.2628 -1.0559
 5486TIP3   OH237872   4.823   6.565  16.964 -0.0056  0.3259 -0.0020
 5486TIP3    H137873   4.744   6.532  16.921 -0.5275 -0.0846  1.2374
 5486TIP3    H237874   4.812   6.660  16.965  0.8668  0.5282 -2.3536
 5487TIP3   OH237875   0.011   5.557  15.392 -0.0598  0.3156 -0.6557
 5487TIP3    H137876   0.065   5.636  15.385  1.6794 -0.5457  1.7661
 5487TIP3    H237877   0.068   5.486  15.363 -0.4199 -0.4485  0.4726
 5488TIP3   OH237878   4.309   5.096  14.324 -0.0764 -0.7844  0.4771
 5488TIP3    H137879   4.402   5.076  14.336  0.0992 -1.0882 -1.2174
 5488TIP3    H237880   4.302   5.190  14.343  0.7678 -0.5418 -0.3556
 5489TIP3   OH237881   5.538   4.840  12.940 -0.3103 -0.2563  0.2832
 5489TIP3    H137882   5.518   4.774  12.873  0.7823  2.3203 -2.8069
 5489TIP3    H237883   5.633   4.853  12.933 -0.7207  2.9722 -0.6955
 5490TIP3   OH237884   1.350   0.604   3.362 -0.5817  0.1344 -0.3566
 5490TIP3    H137885   1.433   0.632   3.323 -0.0119  0.1295  0.8409
 5490TIP3    H237886   1.374   0.541   3.429 -1.6655 -0.9371 -0.9425
 5491TIP3   OH237887   4.645   6.463   0.599 -0.1552 -0.4823 -0.0276
 5491TIP3    H137888   4.566   6.472   0.544  1.3913  1.2437 -2.1642
 5491TIP3    H237889   4.638   6.536   0.661 -0.6448 -0.8741  0.3916
 5492TIP3   OH237890   1.081   5.292  12.553  0.2452  0.4081 -0.8909
 5492TIP3    H137891   1.145   5.278  12.623 -2.4689  0.7740  1.9400
 5492TIP3    H237892   1.007   5.236  12.578 -1.5767  1.9892 -2.4392
 5493TIP3   OH237893   1.947   6.148  15.675 -0.4923  0.8645  0.0817
 5493TIP3    H137894   1.950   6.074  15.736 -1.0570  0.9953  0.2767
 5493TIP3    H237895   1.883   6.208  15.714 -0.7555  1.0150 -0.5675
 5494TIP3   OH237896   6.152   5.059  13.313  0.0505  0.7289 -0.2030
 5494TIP3    H137897   6.244   5.065  13.288  0.1642 -2.0285 -0.7907
 5494TIP3    H237898   6.104   5.073  13.231  0.1954 -2.0313 -0.8678
 5495TIP3   OH237899   4.412   2.185   0.980  0.0009  0.3268 -0.2982
 5495TIP3    H137900   4.447   2.147   0.899  2.5999  1.9457 -0.0588
 5495TIP3    H237901   4.391   2.276   0.957 -3.7240 -0.3442 -0.2273
 5496TIP3   OH237902   3.252   2.735  13.557 -0.8258 -0.4321  0.0595
 5496TIP3    H137903   3.345   2.734  13.536 -0.9880 -0.9552 -0.6622
 5496TIP3    H237904   3.230   2.644  13.576 -1.0599 -0.2199  0.8716
 5497TIP3   OH237905   2.880   6.017  11.391 -0.2069  0.3864 -0.1842
 5497TIP3    H137906   2.881   6.086  11.457  0.1673 -1.0173  1.3661
 5497TIP3    H237907   2.965   6.024  11.347 -0.1193  0.8460  0.0579
 5498TIP3   OH237908   6.762   4.210  14.732 -0.3056 -0.2793 -0.2234
 5498TIP3    H137909   6.735   4.142  14.671 -0.6065 -0.2843 -0.0848
 5498TIP3    H237910   6.857   4.217  14.720 -0.3940 -0.1300 -0.8378
 5499TIP3   OH237911   3.707   4.763   2.418  0.1161 -0.5829  0.4227
 5499TIP3    H137912   3.643   4.832   2.403  1.1708 -0.0453 -2.2064
 5499TIP3    H237913   3.657   4.681   2.413 -0.6572 -0.1196  0.4725
 5500TIP3   OH237914   1.142   0.821  14.319  0.0577 -0.3657 -0.0624
 5500TIP3    H137915   1.169   0.791  14.232 -2.8082 -2.1272 -0.4639
 5500TIP3    H237916   1.086   0.896  14.302 -0.5580 -0.7512  0.2372
 5501TIP3   OH237917   2.313   2.243  14.049  0.7534  0.2818  0.2565
 5501TIP3    H137918   2.285   2.160  14.086  0.1519 -0.1893 -1.1493
 5501TIP3    H237919   2.240   2.303  14.067  0.9099  0.3344  0.7168
 5502TIP3   OH237920   6.411   2.951   5.020 -0.0816 -0.1373 -0.1294
 5502TIP3    H137921   6.430   3.033   5.067 -0.2225  0.5137 -1.1859
 5502TIP3    H237922   6.470   2.887   5.060  1.7925  1.0286 -0.8817
 5503TIP3   OH237923   4.859   2.089   2.680 -0.2430  0.3540  0.0727
 5503TIP3    H137924   4.809   2.152   2.628 -0.8474 -0.2811 -0.1203
 5503TIP3    H237925   4.801   2.064   2.750  0.4894  1.0228  0.9495
 5504TIP3   OH237926   3.401   2.523   4.805  0.3396  0.0319 -0.1820
 5504TIP3    H137927   3.464   2.590   4.831 -0.1945  0.5661 -0.2246
 5504TIP3    H237928   3.319   2.549   4.848 -0.2138  0.1642 -1.2610
 5505TIP3   OH237929   6.713   6.202   0.056 -0.4615  0.1435  0.4617
 5505TIP3    H137930   6.763   6.273   0.016 -1.3746  1.4866  1.5757
 5505TIP3    H237931   6.758   6.122   0.030 -0.8845  0.8884 -3.0166
 5506TIP3   OH237932   1.403   5.342  11.174 -0.3046 -0.1324  0.1207
 5506TIP3    H137933   1.444   5.377  11.095 -1.3436  0.4571 -0.1777
 5506TIP3    H237934   1.437   5.253  11.181 -0.4080 -0.2992 -1.1673
 5507TIP3   OH237935   5.319   6.297  16.765  0.5604  0.4567 -0.1000
 5507TIP3    H137936   5.233   6.297  16.722  0.5408  3.2219 -0.2547
 5507TIP3    H237937   5.300   6.320  16.856  1.0246 -0.4065  0.2213
 5508TIP3   OH237938   5.180   0.953   0.216 -0.2943  0.4105 -0.0291
 5508TIP3    H137939   5.192   1.017   0.146  1.5379 -0.1505 -0.2849
 5508TIP3    H237940   5.238   0.982   0.286 -0.7475 -0.0286  0.5471
 5509TIP3   OH237941   4.075   1.964  15.531 -0.3763 -0.4549 -0.5025
 5509TIP3    H137942   4.102   1.929  15.616 -1.4390 -0.9290 -0.3430
 5509TIP3    H237943   3.993   2.010  15.549  0.0084  0.4746 -1.0677
 5510TIP3   OH237944   5.686   4.290  16.072 -0.8902  0.0242  0.3378
 5510TIP3    H137945   5.768   4.324  16.035 -2.0456  1.9936 -0.5879
 5510TIP3    H237946   5.693   4.308  16.166  0.5096 -1.6313  0.6145
 5511TIP3   OH237947   3.231   3.244   3.336 -0.0602 -0.2149  0.1408
 5511TIP3    H137948   3.201   3.199   3.414  0.6014 -0.1357  0.4561
 5511TIP3    H237949   3.192   3.332   3.342 -0.9383 -0.5710 -0.2176
 5512TIP3   OH237950   2.049   1.508  13.829 -0.3223  0.1107 -0.2873
 5512TIP3    H137951   2.125   1.538  13.879 -0.3210 -0.1920 -0.1051
 5512TIP3    H237952   2.018   1.431  13.876 -0.9518  0.4305 -0.1691
 5513TIP3   OH237953   1.122   1.388   5.122  0.1189  0.3563 -0.0871
 5513TIP3    H137954   1.139   1.479   5.148  0.7600 -0.0979  1.1412
 5513TIP3    H237955   1.091   1.346   5.202 -1.3355 -0.2438 -0.9244
 5514TIP3   OH237956   1.757   1.573  13.239  0.0829  0.6113 -0.3304
 5514TIP3    H137957   1.835   1.540  13.194 -0.7117 -1.4622 -0.2729
 5514TIP3    H237958   1.716   1.632  13.175  1.0591  0.8337 -0.7817
 5515TIP3   OH237959   1.374   6.161   5.387 -0.4493 -0.3337 -0.5961
 5515TIP3    H137960   1.279   6.153   5.380 -0.7331 -0.8912  2.4048
 5515TIP3    H237961   1.391   6.163   5.482  2.3055  2.7462 -0.9682
 5516TIP3   OH237962   2.094   6.551  14.489 -0.0344 -0.3866  0.1331
 5516TIP3    H137963   2.027   6.587  14.547  0.6105  1.0762  0.0249
 5516TIP3    H237964   2.177   6.575  14.530  0.4309 -0.5566 -0.6751
 5517TIP3   OH237965   0.179   5.593   5.254  0.3103 -0.5265  0.5707
 5517TIP3    H137966   0.205   5.552   5.171 -0.5113  0.8120 -0.3737
 5517TIP3    H237967   0.230   5.674   5.258 -1.3284  0.5552  0.2352
 5518TIP3   OH237968   1.681   5.353   6.136  0.8834 -0.1118  0.2861
 5518TIP3    H137969   1.715   5.324   6.221  1.3607  0.0921  0.1680
 5518TIP3    H237970   1.588   5.331   6.138  1.1020 -1.0643  0.4551
 5519TIP3   OH237971   2.397   3.265  14.226  0.1212  0.4069 -0.5329
 5519TIP3    H137972   2.345   3.185  14.221 -0.5110  0.8231 -0.8264
 5519TIP3    H237973   2.369   3.306  14.308 -0.0111  0.6264 -0.6859
 5520TIP3   OH237974   2.147   4.095   4.733 -0.0276  0.0363  0.1526
 5520TIP3    H137975   2.187   4.117   4.817 -1.8020 -0.3389  1.1395
 5520TIP3    H237976   2.154   4.175   4.681  1.6959  0.0631  0.3748
 5521TIP3   OH237977   5.161   0.037  13.030 -0.0223 -0.6212 -0.2593
 5521TIP3    H137978   5.220   0.094  12.980  0.8642 -1.5982 -0.3677
 5521TIP3    H237979   5.080   0.086  13.037  0.7071  0.6342 -0.3839
 5522TIP3   OH237980   6.743   3.859   5.044 -0.1282 -0.2268 -0.2962
 5522TIP3    H137981   6.649   3.851   5.026  0.1017 -0.0733 -1.6627
 5522TIP3    H237982   6.748   3.876   5.138 -1.4221 -1.1219 -0.0325
 5523TIP3   OH237983   0.604   3.361   1.810 -0.2810 -0.3971  0.0111
 5523TIP3    H137984   0.588   3.417   1.734  0.4691  0.6437  0.5966
 5523TIP3    H237985   0.527   3.372   1.865  0.3814  1.0558  0.6973
 5524TIP3   OH237986   0.921   6.233   0.382 -0.0596 -0.3742  0.1504
 5524TIP3    H137987   0.938   6.327   0.372 -1.3690 -0.3587 -2.6328
 5524TIP3    H237988   0.881   6.206   0.300  0.2533 -3.4140  0.8690
 5525TIP3   OH237989   5.903   2.950   1.738  0.3743  0.1249  0.2799
 5525TIP3    H137990   5.930   2.914   1.823  0.5210 -1.1683 -0.2913
 5525TIP3    H237991   5.951   2.898   1.674  1.6652  2.2640 -0.5947
 5526TIP3   OH237992   2.199   1.318   2.957  0.2366 -0.5149  0.5397
 5526TIP3    H137993   2.194   1.241   2.900  0.9290  0.6273 -1.1322
 5526TIP3    H237994   2.220   1.282   3.043 -0.4065 -2.2635  0.0156
 5527TIP3   OH237995   0.624   5.708  11.606  0.5470  0.5384  0.5796
 5527TIP3    H137996   0.573   5.669  11.677  2.2157 -0.4148  1.3110
 5527TIP3    H237997   0.616   5.803  11.620  0.0359  0.3791  1.4447
 5528TIP3   OH237998   5.068   5.007   2.652 -0.1488  0.5144  0.3449
 5528TIP3    H137999   5.050   5.063   2.727  0.9704 -0.7128  1.5765
 5528TIP3    H238000   4.982   4.980   2.621 -0.6595  1.8507  0.5191
 5529TIP3   OH238001   4.974   4.505  14.171 -0.2581  0.3097 -0.7154
 5529TIP3    H138002   4.930   4.568  14.228 -0.0090 -0.8779  0.8641
 5529TIP3    H238003   4.973   4.423  14.221  0.3472 -0.6828 -2.2691
 5530TIP3   OH238004   4.807   0.546  13.932 -0.0184 -0.2287  0.5058
 5530TIP3    H138005   4.842   0.518  14.016  2.2574 -1.0058 -0.5835
 5530TIP3    H238006   4.754   0.473  13.902 -1.3455  0.2970  1.4795
 5531TIP3   OH238007   2.731   2.115   2.100 -0.4767 -0.1338  0.6804
 5531TIP3    H138008   2.767   2.033   2.135 -0.1986 -0.4293 -0.2877
 5531TIP3    H238009   2.772   2.184   2.154  1.6317 -0.4489 -0.4267
 5532TIP3   OH238010   5.376   3.547   0.648 -0.1750  0.1893 -0.7849
 5532TIP3    H138011   5.400   3.602   0.573 -1.2433  0.3075 -1.0568
 5532TIP3    H238012   5.291   3.510   0.624 -1.1045  1.1325  0.8344
 5533TIP3   OH238013   4.125   1.728  15.883  0.0672  0.2709  0.5080
 5533TIP3    H138014   4.109   1.675  15.961  0.9899  0.1987  0.6630
 5533TIP3    H238015   4.217   1.712  15.862  0.4698  2.0593  0.7575
 5534TIP3   OH238016   5.357   1.566  12.396  0.6472 -0.1859  0.2656
 5534TIP3    H138017   5.286   1.615  12.356 -0.3435  0.9620  3.1625
 5534TIP3    H238018   5.341   1.475  12.371 -3.8452 -0.5113  3.1933
 5535TIP3   OH238019   3.879   3.034   3.835 -0.0856 -0.0470  0.3558
 5535TIP3    H138020   3.886   2.963   3.771 -1.9184  0.2590 -0.2340
 5535TIP3    H238021   3.852   2.990   3.916  2.7568 -0.5097  1.1735
 5536TIP3   OH238022   2.466   0.789  11.460 -0.0009 -0.2117  0.1349
 5536TIP3    H138023   2.489   0.759  11.373 -1.7064 -2.8656  0.4750
 5536TIP3    H238024   2.415   0.717  11.498 -0.7448  1.5099  2.7132
 5537TIP3   OH238025   5.545   5.749   3.230 -0.5464 -0.2920  0.2994
 5537TIP3    H138026   5.614   5.766   3.295 -1.6542 -0.5007  1.5616
 5537TIP3    H238027   5.485   5.823   3.239 -1.0208 -0.6292 -0.0810
 5538TIP3   OH238028   2.519   4.440  15.616  0.0891 -0.0735  0.1565
 5538TIP3    H138029   2.607   4.471  15.596  0.2343 -0.8762 -0.4684
 5538TIP3    H238030   2.503   4.368  15.555 -1.5851  1.0331 -0.8047
 5539TIP3   OH238031   3.835   5.400  15.195 -0.1396  0.3572 -0.3766
 5539TIP3    H138032   3.761   5.347  15.164  0.4135 -0.0594 -1.0026
 5539TIP3    H238033   3.861   5.451  15.119  0.2187  0.5024 -0.1580
 5540TIP3   OH238034   2.807   3.413  12.753 -0.8972  0.1878  0.4193
 5540TIP3    H138035   2.795   3.335  12.807 -0.5154 -1.2409 -1.4627
 5540TIP3    H238036   2.770   3.390  12.668  0.1626  1.6812 -0.5111
 5541TIP3   OH238037   3.784   2.589   5.561  0.3924  0.5697 -0.0611
 5541TIP3    H138038   3.858   2.528   5.559  0.3732  0.4695  1.4442
 5541TIP3    H238039   3.773   2.611   5.653  0.3480  2.8114 -0.5336
 5542TIP3   OH238040   1.250   2.840  14.885 -0.1540 -0.8779  0.6972
 5542TIP3    H138041   1.250   2.778  14.958 -0.5658 -0.0393  1.4323
 5542TIP3    H238042   1.220   2.922  14.924 -0.4061 -0.4212 -0.4287
 5543TIP3   OH238043   4.569   5.844  15.051 -0.1898  0.5892 -0.1191
 5543TIP3    H138044   4.616   5.900  15.113  1.4068  0.0342 -0.7677
 5543TIP3    H238045   4.638   5.807  14.996 -1.1758 -1.8839  0.1729
 5544TIP3   OH238046   2.743   2.566   1.524 -0.0416 -0.1055  0.3994
 5544TIP3    H138047   2.835   2.540   1.525  0.4139  1.3534 -0.7012
 5544TIP3    H238048   2.706   2.516   1.451 -0.4777 -1.6872  1.6437
 5545TIP3   OH238049   0.444   4.012  13.336  0.0655 -0.5310  0.1782
 5545TIP3    H138050   0.497   4.015  13.415  1.5073 -1.0081 -0.7209
 5545TIP3    H238051   0.436   4.103  13.308 -1.9656 -0.1355  1.7613
 5546TIP3   OH238052   2.330   5.145   3.872  0.8892  0.6591  0.0504
 5546TIP3    H138053   2.279   5.221   3.844 -0.0772 -0.0956 -0.3188
 5546TIP3    H238054   2.304   5.131   3.963  1.2041  0.8852  0.1733
 5547TIP3   OH238055   6.784   2.902  13.569  0.6770  0.1652  0.2685
 5547TIP3    H138056   6.871   2.862  13.575  1.6848  1.9981 -1.0301
 5547TIP3    H238057   6.799   2.986  13.525 -1.3979  1.7133  2.2502
 5548TIP3   OH238058   5.549   5.191  11.455 -0.1186 -0.3829  0.2307
 5548TIP3    H138059   5.553   5.287  11.451  2.1284 -0.4071  0.8597
 5548TIP3    H238060   5.638   5.162  11.440 -0.6205 -2.3675  0.7992
 5549TIP3   OH238061   5.743   1.722  12.758 -0.1281 -0.4590  0.1958
 5549TIP3    H138062   5.654   1.730  12.724  0.2250  1.1590 -0.4054
 5549TIP3    H238063   5.747   1.631  12.790 -1.5935 -0.9443 -0.8418
 5550TIP3   OH238064   0.094   1.759   5.640 -0.3016 -0.2403 -0.7600
 5550TIP3    H138065   0.185   1.784   5.657 -0.0536 -2.4659  2.0364
 5550TIP3    H238066   0.100   1.691   5.573 -0.2696  1.6337 -2.7482
 5551TIP3   OH238067   4.000   2.670   1.306  0.1952 -0.4640 -0.0277
 5551TIP3    H138068   4.034   2.692   1.393  0.3118  2.5671 -0.7246
 5551TIP3    H238069   3.926   2.730   1.294 -0.6000 -1.6872 -1.5662
 5552TIP3   OH238070   4.082   2.158   4.969  0.0531  0.1945 -0.0876
 5552TIP3    H138071   4.131   2.217   5.026  0.7119 -1.6912  1.3970
 5552TIP3    H238072   4.082   2.202   4.884  2.8364  1.0873  0.2709
 5553TIP3   OH238073   2.015   3.022  15.347 -0.7101  0.7630 -0.8975
 5553TIP3    H138074   1.950   2.955  15.325 -0.3908  0.0354  0.2845
 5553TIP3    H238075   2.019   3.021  15.442  2.2001 -0.3842 -0.9322
 5554TIP3   OH238076   6.158   1.756   5.801 -0.1427 -0.5750 -0.1868
 5554TIP3    H138077   6.139   1.768   5.894 -0.0015 -1.3410 -0.0462
 5554TIP3    H238078   6.252   1.738   5.797  0.0530  0.4847 -0.5925
 5555TIP3   OH238079   1.327   2.104   2.606 -0.0744 -0.9817 -0.3318
 5555TIP3    H138080   1.267   2.075   2.537  0.5509  0.0981 -1.3839
 5555TIP3    H238081   1.397   2.039   2.606 -0.5691 -1.5156 -0.0361
 5556TIP3   OH238082   6.338   3.415  11.680 -0.3112  0.4160  0.2716
 5556TIP3    H138083   6.334   3.495  11.627 -0.1475  0.7740  0.7900
 5556TIP3    H238084   6.285   3.435  11.758 -0.2735  0.0186  0.4028
 5557TIP3   OH238085   3.912   4.570   1.853  0.4133  1.4867 -0.1629
 5557TIP3    H138086   3.890   4.662   1.839  1.2360  1.6367 -0.4959
 5557TIP3    H238087   3.945   4.540   1.769 -0.6926  0.6289 -0.3204
 5558TIP3   OH238088   0.038   1.436  12.346  0.0428 -0.0107 -1.0068
 5558TIP3    H138089   0.017   1.414  12.255 -0.5763  0.1038 -0.8937
 5558TIP3    H238090  -0.025   1.504  12.370  0.0772 -0.1710 -0.4328
 5559TIP3   OH238091   0.461   4.865  11.554 -0.1635 -0.1472  0.1000
 5559TIP3    H138092   0.502   4.951  11.546  0.1762 -0.4090 -1.2083
 5559TIP3    H238093   0.502   4.827  11.632 -2.5501  1.9950  2.6152
 5560TIP3   OH238094   6.739   6.094   4.673  0.2586 -0.3474 -0.0074
 5560TIP3    H138095   6.674   6.163   4.682  0.3215 -0.3679  0.6217
 5560TIP3    H238096   6.821   6.140   4.653  0.6714 -0.0843  2.0886
 5561TIP3   OH238097   2.693   6.614   5.499 -0.1365  0.0873 -0.0131
 5561TIP3    H138098   2.604   6.633   5.470 -0.1005 -1.5796 -1.3836
 5561TIP3    H238099   2.748   6.673   5.449 -0.3982  0.3672  0.0284
 5562TIP3   OH238100   5.360   0.853  11.160 -0.3544  0.0816  0.5338
 5562TIP3    H138101   5.435   0.886  11.110 -2.1725  0.5907 -2.0501
 5562TIP3    H238102   5.356   0.910  11.237 -0.6496  3.0702 -1.4955
 5563TIP3   OH238103   3.066   5.954   2.176 -0.0037  0.5182  0.3406
 5563TIP3    H138104   3.101   5.869   2.150  0.5720  0.2703  1.8427
 5563TIP3    H238105   3.130   6.018   2.145  1.4143  0.1286  2.3175
 5564TIP3   OH238106   1.138   3.329  14.390  0.3969  0.2432  0.0547
 5564TIP3    H138107   1.150   3.416  14.428 -0.8179  1.7479 -2.6475
 5564TIP3    H238108   1.047   3.308  14.409  0.6627 -0.3939  0.6174
 5565TIP3   OH238109   1.354   5.785  13.147 -0.1810 -0.1585 -0.2831
 5565TIP3    H138110   1.434   5.737  13.169  0.9330  1.5003 -0.5644
 5565TIP3    H238111   1.372   5.824  13.062 -1.0568  0.7403 -0.0698
 5566TIP3   OH238112   5.490   5.915  15.070  0.1635  0.8357 -0.4113
 5566TIP3    H138113   5.545   5.988  15.044 -0.5329  1.7584  0.6207
 5566TIP3    H238114   5.540   5.870  15.139  1.0438 -0.3041 -1.7518
 5567TIP3   OH238115   3.976   1.753   5.027 -0.1484 -0.6028  0.6264
 5567TIP3    H138116   4.054   1.698   5.024 -0.7301 -1.5527  2.0991
 5567TIP3    H238117   3.975   1.798   4.942  2.6918  0.4257  1.0421
 5568TIP3   OH238118   6.107   2.307  14.160  0.2134  0.2954 -0.7291
 5568TIP3    H138119   6.124   2.368  14.089  2.8641  0.5237 -0.0044
 5568TIP3    H238120   6.113   2.360  14.240 -0.2921 -0.3963 -0.2139
 5569TIP3   OH238121   6.113   4.013   4.844  0.2165  0.2946  0.2299
 5569TIP3    H138122   6.197   4.051   4.868  0.0846 -0.7374  2.5809
 5569TIP3    H238123   6.052   4.086   4.848  0.3623  0.3712  2.4619
 5570TIP3   OH238124   0.878   4.463  10.746 -0.3717 -0.2361 -0.0929
 5570TIP3    H138125   0.787   4.477  10.718  0.2122  0.3273 -1.8360
 5570TIP3    H238126   0.906   4.548  10.780 -0.9525 -0.8174  1.9846
 5571TIP3   OH238127   5.821   5.600  15.789  0.1823 -0.0056  0.1211
 5571TIP3    H138128   5.833   5.694  15.800  1.0132 -0.3861  3.4623
 5571TIP3    H238129   5.892   5.573  15.731 -0.9669  1.5538 -2.1532
 5572TIP3   OH238130   4.042   3.846  14.148 -0.5241  0.0651 -0.4021
 5572TIP3    H138131   3.994   3.791  14.086 -0.9077 -0.0931  0.0319
 5572TIP3    H238132   4.081   3.785  14.210  0.8922  0.1332 -1.1865
 5573TIP3   OH238133   2.894   4.953   2.552  0.0796 -0.0908 -0.2601
 5573TIP3    H138134   2.892   4.870   2.505  0.8348 -0.2849  0.0389
 5573TIP3    H238135   2.986   4.982   2.545 -0.0698  0.4723  0.0582
 5574TIP3   OH238136   6.313   1.700  11.652 -0.3553  0.3250 -0.4472
 5574TIP3    H138137   6.300   1.734  11.563  0.4996 -1.0452 -1.1427
 5574TIP3    H238138   6.403   1.725  11.674 -0.8954  1.5384  0.4686
 5575TIP3   OH238139   1.684   2.822   3.345 -0.3322  0.0706 -0.0060
 5575TIP3    H138140   1.713   2.904   3.386 -0.4341 -0.0068  0.2231
 5575TIP3    H238141   1.756   2.797   3.287  0.3744 -0.4712  1.0543
 5576TIP3   OH238142   3.161   1.538  13.396  0.4805  0.0051  0.3868
 5576TIP3    H138143   3.113   1.574  13.321 -0.3314 -0.4632  0.6644
 5576TIP3    H238144   3.215   1.468  13.359  0.3552  0.0150  0.1819
 5577TIP3   OH238145   4.794   5.831  17.072 -0.2031 -0.3007  0.5304
 5577TIP3    H138146   4.717   5.857  17.023  0.0924 -0.9638 -0.2968
 5577TIP3    H238147   4.846   5.779  17.011  1.0427  0.3675  0.9794
 5578TIP3   OH238148   5.290   5.682   1.620 -0.1886 -0.0766 -0.2671
 5578TIP3    H138149   5.383   5.687   1.599 -0.4050  0.8820 -1.0415
 5578TIP3    H238150   5.275   5.752   1.683 -0.5525  0.3121 -0.7835
 5579TIP3   OH238151   3.985   0.408   1.886  0.0808 -0.0583  0.0731
 5579TIP3    H138152   3.954   0.336   1.941  0.3771  0.2418  0.6428
 5579TIP3    H238153   3.914   0.471   1.887  0.9446  0.9603  1.9807
 5580TIP3   OH238154   6.390   1.018   1.111 -0.3287  0.5437  0.4397
 5580TIP3    H138155   6.439   0.939   1.133  0.0642  0.8111  0.5291
 5580TIP3    H238156   6.381   1.015   1.015 -0.0370  0.5525  0.4122
 5581TIP3   OH238157   6.725   0.379  11.678  0.0092 -0.1943 -0.1481
 5581TIP3    H138158   6.637   0.397  11.646  0.1922 -0.7837 -1.0000
 5581TIP3    H238159   6.765   0.465  11.691 -0.6354  0.0691  0.0951
 5582TIP3   OH238160   3.560   5.419   5.521 -0.2824 -0.6552 -0.3401
 5582TIP3    H138161   3.653   5.440   5.506 -0.5544 -0.6723 -2.2982
 5582TIP3    H238162   3.555   5.324   5.512 -0.3604 -0.7741  0.7564
 5583TIP3   OH238163   1.811   3.762   0.084  0.4454  0.3804 -0.5789
 5583TIP3    H138164   1.785   3.853   0.071 -0.3831  0.7190  2.6620
 5583TIP3    H238165   1.748   3.728   0.147  1.8871 -1.8953 -0.2484
 5584TIP3   OH238166   5.390   6.737   1.004 -0.1391  0.2665 -0.4211
 5584TIP3    H138167   5.326   6.808   0.996 -0.3071  0.2668  0.7460
 5584TIP3    H238168   5.465   6.768   0.954 -0.7646  0.5907 -1.1962
 5585TIP3   OH238169   5.959   3.369   4.817  0.3108 -0.2013 -0.1167
 5585TIP3    H138170   5.940   3.441   4.757 -0.5851 -0.7920 -0.5524
 5585TIP3    H238171   6.035   3.400   4.867  0.3807  0.7524 -0.7786
 5586TIP3   OH238172   4.688   2.504   1.031  0.2128  0.0614  0.6286
 5586TIP3    H138173   4.681   2.456   1.113  0.1390  0.1793  0.6912
 5586TIP3    H238174   4.781   2.527   1.024  0.8246 -2.4356 -0.7234
 5587TIP3   OH238175   5.815   0.990   2.420  0.0759 -0.1265  0.4453
 5587TIP3    H138176   5.729   1.032   2.422  0.8758  1.6012  0.2049
 5587TIP3    H238177   5.816   0.932   2.496 -0.9915  0.4669  0.9257
 5588TIP3   OH238178   5.569   0.333  14.471 -0.3791  0.0659  0.5635
 5588TIP3    H138179   5.604   0.405  14.524 -0.2510 -1.5890  2.8597
 5588TIP3    H238180   5.475   0.351  14.466  0.0028  1.9577 -1.5444
 5589TIP3   OH238181   2.549   5.771   1.014 -0.4838 -0.1875 -0.5414
 5589TIP3    H138182   2.566   5.773   1.109 -0.4511 -0.8490 -0.5270
 5589TIP3    H238183   2.454   5.767   1.007 -0.4506 -1.5707 -0.4886
 5590TIP3   OH238184   5.727   1.062   3.552  0.0228  0.0663  0.3155
 5590TIP3    H138185   5.719   1.151   3.586  0.0168  0.6294 -1.0636
 5590TIP3    H238186   5.644   1.020   3.576 -0.7293  1.0055 -0.5324
 5591TIP3   OH238187   3.891   3.565   3.797  0.3949  0.3147 -0.1357
 5591TIP3    H138188   3.853   3.625   3.862  1.2371  1.6176 -0.7868
 5591TIP3    H238189   3.830   3.569   3.723 -0.1431 -0.5427  0.2486
 5592TIP3   OH238190   5.587   0.831   3.018 -0.5267  0.0385  0.6513
 5592TIP3    H138191   5.601   0.925   3.018  0.8528 -0.0053 -3.3447
 5592TIP3    H238192   5.508   0.818   2.965 -0.1533 -1.0844  0.3328
 5593TIP3   OH238193   0.847   6.624  15.921 -0.0752 -0.0156 -0.2459
 5593TIP3    H138194   0.867   6.531  15.912 -1.8831 -0.4228 -0.4184
 5593TIP3    H238195   0.848   6.657  15.831 -0.2601 -0.0536 -0.2614
 5594TIP3   OH238196   2.037   4.782   0.730 -0.5165  0.2315  0.7939
 5594TIP3    H138197   2.042   4.700   0.780  0.1229  0.7196  1.5548
 5594TIP3    H238198   1.963   4.769   0.671 -0.9001 -0.6050  1.4260
 5595TIP3   OH238199   4.448   3.998   3.981 -0.0060  0.0565 -0.1466
 5595TIP3    H138200   4.380   3.971   4.042 -0.2580 -0.1929 -0.5384
 5595TIP3    H238201   4.422   4.086   3.953 -0.0797  0.0274 -0.1697
 5596TIP3   OH238202   0.548   5.575  11.170  0.1354  0.2492  0.0671
 5596TIP3    H138203   0.617   5.620  11.217  0.1694  0.0527  0.2050
 5596TIP3    H238204   0.588   5.547  11.088 -0.2815  1.7841 -0.6996
 5597TIP3   OH238205   0.236   6.796   0.067 -0.8193  0.4549  0.2543
 5597TIP3    H138206   0.145   6.772   0.047 -0.4663  0.5501 -1.6256
 5597TIP3    H238207   0.273   6.717   0.106 -0.9531 -0.5703 -1.6006
 5598TIP3   OH238208   2.613   5.424  15.584  0.1573 -0.6768 -0.2625
 5598TIP3    H138209   2.608   5.497  15.647  0.5246  0.8190 -1.8786
 5598TIP3    H238210   2.605   5.466  15.499  0.3161 -2.5762 -1.2581
 5599TIP3   OH238211   0.942   0.893   2.643 -0.2663  0.4583 -0.5542
 5599TIP3    H138212   0.897   0.850   2.715  0.1063  1.5303  0.3513
 5599TIP3    H238213   1.034   0.866   2.653  0.1126  1.9491  0.4662
 5600TIP3   OH238214   3.864   0.809  11.864  0.5527 -0.2869  0.1602
 5600TIP3    H138215   3.892   0.792  11.954 -0.2086  0.7967  0.6297
 5600TIP3    H238216   3.941   0.789  11.811  0.9457 -1.1650  1.0194
 5601TIP3   OH238217   1.272   2.991   5.938 -0.0073 -0.4360  0.2905
 5601TIP3    H138218   1.201   2.980   5.875  1.0982 -2.1670 -0.7701
 5601TIP3    H238219   1.331   2.917   5.919  2.8932  1.7789  0.0046
 5602TIP3   OH238220   0.906   3.116  15.907  0.3935  0.0751 -0.5416
 5602TIP3    H138221   0.850   3.123  15.984  1.0088 -0.0737 -0.0747
 5602TIP3    H238222   0.872   3.182  15.846  0.8835  1.3152  0.4884
 5603TIP3   OH238223   6.165   2.399  10.954 -0.5289 -0.2362 -0.5708
 5603TIP3    H138224   6.096   2.340  10.985 -0.2317 -0.1949  0.2067
 5603TIP3    H238225   6.147   2.482  10.999 -0.4119 -0.0004 -0.9533
 5604TIP3   OH238226   0.659   2.540  11.291 -0.3077 -0.3889 -0.3364
 5604TIP3    H138227   0.653   2.576  11.202  0.9968  2.4159  0.5805
 5604TIP3    H238228   0.591   2.586  11.340  1.8150  1.5167  1.0283
 5605TIP3   OH238229   3.452   2.309   0.862  0.0145 -0.0117 -0.3534
 5605TIP3    H138230   3.407   2.231   0.894 -1.7102  0.4500 -1.5250
 5605TIP3    H238231   3.383   2.363   0.824  1.5057  0.9425 -1.8421
 5606TIP3   OH238232   2.823   4.022  15.413  0.4161 -0.0958 -0.0370
 5606TIP3    H138233   2.908   4.065  15.418  0.9994 -1.3108  1.1584
 5606TIP3    H238234   2.760   4.093  15.423  1.2275  0.9386 -1.7348
 5607TIP3   OH238235   1.225   1.888   5.418  0.3783  0.0394  0.5067
 5607TIP3    H138236   1.305   1.836   5.411  1.0866  1.1556  0.0062
 5607TIP3    H238237   1.247   1.956   5.482 -0.9375 -0.9562  2.0988
 5608TIP3   OH238238   5.409   1.988  13.843 -0.3288  0.0321 -0.6718
 5608TIP3    H138239   5.345   1.950  13.903 -0.6958 -0.6830 -1.4903
 5608TIP3    H238240   5.420   1.922  13.774  2.0110 -0.2922 -0.0878
 5609TIP3   OH238241   1.973   3.693  15.929 -0.1362 -0.5057  0.1295
 5609TIP3    H138242   2.042   3.742  15.973 -0.6428 -0.3951  0.8088
 5609TIP3    H238243   1.944   3.629  15.994 -2.2537  0.9346  0.6891
 5610TIP3   OH238244   4.853   5.988  12.616 -0.0940  0.3420 -0.3494
 5610TIP3    H138245   4.892   5.923  12.557 -0.3410 -0.6031  0.5108
 5610TIP3    H238246   4.820   5.937  12.690  0.5258  1.5286  0.7929
 5611TIP3   OH238247   0.803   5.900   0.564  0.0954 -0.2368  0.1035
 5611TIP3    H138248   0.844   5.923   0.481 -1.1002  0.3611 -0.3337
 5611TIP3    H238249   0.875   5.903   0.627  1.1023 -1.0719 -0.9506
 5612TIP3   OH238250   2.013   6.055   2.715 -0.3595  0.0761  0.0181
 5612TIP3    H138251   1.982   5.969   2.743 -1.6729  0.0391 -1.3616
 5612TIP3    H238252   2.001   6.112   2.791 -0.9265 -0.6370  0.4664
 5613TIP3   OH238253   0.049   5.017   3.641 -0.2522  0.7555  0.4953
 5613TIP3    H138254  -0.018   5.056   3.585  0.1703  0.1988 -0.4098
 5613TIP3    H238255   0.076   4.938   3.595  0.4076  0.5111  1.2804
 5614TIP3   OH238256   0.921   1.010   3.465  0.1121 -0.1762  0.2710
 5614TIP3    H138257   0.973   1.083   3.430 -1.1269  1.0963  0.9869
 5614TIP3    H238258   0.848   1.000   3.405 -1.2673  1.1015  1.6428
 5615TIP3   OH238259   1.731   5.927   1.229  0.3621  0.0269  0.3989
 5615TIP3    H138260   1.809   5.940   1.175  0.4125 -0.5058  0.3328
 5615TIP3    H238261   1.732   5.833   1.250 -1.6940 -0.5827 -1.8008
 5616TIP3   OH238262   2.784   4.845   4.422 -0.8219 -0.6642 -0.0665
 5616TIP3    H138263   2.762   4.857   4.330 -0.4593  0.3393 -0.0321
 5616TIP3    H238264   2.866   4.796   4.421 -1.0813 -1.1063 -0.2563
 5617TIP3   OH238265   3.285   5.644   4.224 -0.4185 -0.2398  0.2400
 5617TIP3    H138266   3.230   5.578   4.267 -0.4813 -1.5180 -1.6787
 5617TIP3    H238267   3.364   5.596   4.198 -0.8038  0.1807 -1.9041
 5618TIP3   OH238268   0.533   1.536   0.052 -0.4941  0.2953 -0.6882
 5618TIP3    H138269   0.440   1.513   0.062 -0.3557  0.0245  0.0964
 5618TIP3    H238270   0.564   1.480  -0.019 -0.9938  0.5769 -1.1294
 5619TIP3   OH238271   5.358   6.202   5.277  0.0266 -0.3559  0.2977
 5619TIP3    H138272   5.331   6.247   5.197  1.6259 -1.7448 -1.0998
 5619TIP3    H238273   5.287   6.140   5.294  0.9652 -2.1641 -1.8470
 5620TIP3   OH238274   4.878   5.570   5.043  0.7934  0.7584 -0.1252
 5620TIP3    H138275   4.894   5.485   5.082 -0.9334  0.1650 -0.5994
 5620TIP3    H238276   4.949   5.626   5.076  0.9486 -0.3877  1.6215
 5621TIP3   OH238277   2.928   3.676   1.516 -0.3399  0.0578 -0.1652
 5621TIP3    H138278   2.880   3.636   1.444  0.1892  0.5540 -0.8078
 5621TIP3    H238279   2.952   3.762   1.483  2.3034 -0.7229 -0.4547
 5622TIP3   OH238280   4.263   2.509  13.504 -0.2604  0.4076  0.4351
 5622TIP3    H138281   4.310   2.580  13.547  0.8288  0.3601 -0.6222
 5622TIP3    H238282   4.192   2.552  13.456 -0.2721  0.6609  0.6769
 5623TIP3   OH238283   1.306   2.310  11.038 -0.3877  0.6774  0.1565
 5623TIP3    H138284   1.398   2.327  11.020 -0.1574 -0.2809  0.3548
 5623TIP3    H238285   1.259   2.385  11.001  0.4045  0.7707 -0.6729
 5624TIP3   OH238286   1.014   3.151   6.012  0.3874 -0.5075  0.7241
 5624TIP3    H138287   1.018   3.064   5.972  1.1978  0.2496 -0.9081
 5624TIP3    H238288   0.991   3.210   5.941 -0.3295  0.6207  1.8451
 5625TIP3   OH238289   0.591   6.740  15.342  0.1377  0.0989  0.7591
 5625TIP3    H138290   0.511   6.761  15.293  0.2724  1.3347  1.0231
 5625TIP3    H238291   0.591   6.645  15.349 -1.4908  0.0861  1.0551
 5626TIP3   OH238292   0.642   2.176  15.456 -0.5504 -0.0426 -0.5730
 5626TIP3    H138293   0.553   2.187  15.423 -0.4020 -0.8065 -1.2662
 5626TIP3    H238294   0.673   2.096  15.414  0.4209  0.1492 -0.2442
 5627TIP3   OH238295   2.581   6.068  12.532  0.0856  0.2384  0.6662
 5627TIP3    H138296   2.635   6.140  12.500  2.2625 -1.7956 -0.5428
 5627TIP3    H238297   2.574   6.082  12.626  2.2181  0.9424  0.7626
 5628TIP3   OH238298   0.596   3.243   6.072 -0.3118  0.0314  0.3326
 5628TIP3    H138299   0.532   3.177   6.043 -0.1589 -0.6688  1.5095
 5628TIP3    H238300   0.665   3.192   6.114  0.3406  0.8860  0.3167
 5629TIP3   OH238301   6.107   2.561  15.631  0.2077 -0.0703  0.1352
 5629TIP3    H138302   6.028   2.594  15.590 -0.0731  0.1597  0.8375
 5629TIP3    H238303   6.105   2.597  15.720  1.3071  0.2691  0.0395
 5630TIP3   OH238304   5.878   2.410  16.250 -0.4741  0.1836 -0.4413
 5630TIP3    H138305   5.935   2.484  16.228  0.1307 -0.0987  0.1491
 5630TIP3    H238306   5.856   2.371  16.165  0.8531 -0.1766 -0.6527
 5631TIP3   OH238307   1.445   4.683   4.417  0.3128  0.1849  0.2261
 5631TIP3    H138308   1.405   4.656   4.500 -0.1624 -1.1990 -0.4051
 5631TIP3    H238309   1.478   4.601   4.379  0.5718  0.7985 -0.9152
 5632TIP3   OH238310   0.073   0.800   3.781  0.1131  0.3260 -0.4189
 5632TIP3    H138311   0.122   0.868   3.734 -0.5413  1.0438 -0.0806
 5632TIP3    H238312  -0.005   0.845   3.814 -1.0574 -0.9113 -1.3889
 5633TIP3   OH238313   3.632   3.222   5.200 -0.5689  0.7049  0.5273
 5633TIP3    H138314   3.567   3.155   5.224  0.4005 -0.0936  1.0054
 5633TIP3    H238315   3.675   3.244   5.282  0.8343  0.0488  0.0096
 5634TIP3   OH238316   6.463   3.309   5.366 -0.0303 -0.4216  0.3187
 5634TIP3    H138317   6.528   3.272   5.425  0.5377 -2.9921 -1.6997
 5634TIP3    H238318   6.379   3.281   5.403  0.1216  0.5892  1.4805
 5635TIP3   OH238319   2.971   1.893  12.785  0.2493 -0.2341  0.8797
 5635TIP3    H138320   2.916   1.818  12.764  0.0940  0.6333 -2.3592
 5635TIP3    H238321   2.909   1.965  12.797  0.5180  0.1679 -0.0344
 5636TIP3   OH238322   1.374   1.008  15.130  0.0872  0.2763 -0.2005
 5636TIP3    H138323   1.366   1.091  15.082 -0.2439 -0.1440 -0.8953
 5636TIP3    H238324   1.450   1.020  15.187 -0.8246  1.5840  0.8063
 5637TIP3   OH238325   4.153   2.769   4.071  0.1772  0.3164 -0.2535
 5637TIP3    H138326   4.167   2.812   4.155  0.2473 -1.3607  0.6303
 5637TIP3    H238327   4.062   2.738   4.075  0.5148 -0.7151 -0.3282
 5638TIP3   OH238328   2.986   3.849   2.922  0.3663  0.1650  0.2769
 5638TIP3    H138329   3.056   3.867   2.859  1.0772  0.8565  1.2385
 5638TIP3    H238330   2.919   3.914   2.902 -0.0377 -0.5183 -0.6694
 5639TIP3   OH238331   5.858   0.440  16.990 -0.1997  0.0606 -0.9501
 5639TIP3    H138332   5.854   0.363  17.047  0.5252  0.9636  0.3748
 5639TIP3    H238333   5.908   0.411  16.914 -0.3181 -0.8972 -0.6806
 5640TIP3   OH238334   6.250   6.382  12.483  0.1467  0.3891 -0.5936
 5640TIP3    H138335   6.250   6.291  12.454  2.1852  0.1400 -0.0001
 5640TIP3    H238336   6.186   6.385  12.553  0.8383 -0.8739  0.1261
 5641TIP3   OH238337   3.372   1.715   3.005  0.4690 -0.6198 -0.5323
 5641TIP3    H138338   3.404   1.758   2.926 -1.3311  0.6864 -0.6261
 5641TIP3    H238339   3.388   1.622   2.991  3.9373 -0.1522 -0.6067
 5642TIP3   OH238340   1.359   2.580   4.415  0.3757  0.3918 -0.0120
 5642TIP3    H138341   1.424   2.644   4.386  0.2420  1.0708  1.1472
 5642TIP3    H238342   1.411   2.510   4.456  0.3791  1.1692  1.3651
 5643TIP3   OH238343   5.733   0.716  16.448  0.1896 -0.1497 -0.8416
 5643TIP3    H138344   5.767   0.656  16.515 -1.3736  1.0197  1.1089
 5643TIP3    H238345   5.807   0.773  16.428  1.2154 -1.6520 -1.5349
 5644TIP3   OH238346   1.053   5.528  14.783  0.1801 -0.5282  0.3647
 5644TIP3    H138347   1.120   5.531  14.715 -0.1322 -1.4535  0.0093
 5644TIP3    H238348   1.094   5.570  14.859  1.4409 -1.7764  0.3973
 5645TIP3   OH238349   5.893   0.486  16.569 -0.1806 -0.4820  0.3497
 5645TIP3    H138350   5.874   0.422  16.637 -1.0855 -0.0346  0.5330
 5645TIP3    H238351   5.862   0.445  16.488 -2.6176  0.4769  0.7208
 5646TIP3   OH238352   1.070   5.338  12.060  0.1796  0.7710 -0.2236
 5646TIP3    H138353   1.070   5.277  11.986 -0.0640 -0.5126  0.7834
 5646TIP3    H238354   1.145   5.311  12.113 -0.8289  0.3024  1.0280
 5647TIP3   OH238355   1.899   0.973  15.134  0.0428  0.6181 -0.0371
 5647TIP3    H138356   1.841   1.045  15.109 -1.2792 -1.2048 -2.7876
 5647TIP3    H238357   1.983   0.995  15.094  0.0552  1.2953  0.3532
 5648TIP3   OH238358   0.503   4.123  14.105  0.3083  0.0959  0.4223
 5648TIP3    H138359   0.424   4.169  14.133  0.2016 -0.6797  1.4743
 5648TIP3    H238360   0.572   4.189  14.110 -0.0351  0.4373  0.8437
 5649TIP3   OH238361   4.190   4.691  11.680 -0.3670 -0.7630  0.1089
 5649TIP3    H138362   4.111   4.742  11.669  0.2352  0.4105  0.9829
 5649TIP3    H238363   4.261   4.750  11.653  0.4092 -0.7958  1.9310
 5650TIP3   OH238364   5.147   5.296  16.822 -0.4696 -0.3850  0.2682
 5650TIP3    H138365   5.130   5.330  16.909 -0.8053 -1.2478  0.5594
 5650TIP3    H238366   5.143   5.200  16.832  0.2071 -0.5142 -0.5482
 5651TIP3   OH238367   5.112   6.776   2.094  0.3223 -0.2089 -0.2013
 5651TIP3    H138368   5.037   6.813   2.046 -0.3335  1.1445  1.7464
 5651TIP3    H238369   5.074   6.712   2.153  0.6130  0.6672  0.9852
 5652TIP3   OH238370   2.567   2.839  15.892 -0.2943 -0.3465 -0.7904
 5652TIP3    H138371   2.485   2.792  15.886 -1.5860  1.5414  0.7030
 5652TIP3    H238372   2.549   2.925  15.853  1.1088 -0.0605 -0.8772
 5653TIP3   OH238373   1.811   0.262  13.064  0.4819  0.0667  0.1483
 5653TIP3    H138374   1.732   0.254  13.010 -0.3090 -1.3095  1.4176
 5653TIP3    H238375   1.869   0.194  13.030  1.9267  2.1763 -1.9227
 5654TIP3   OH238376   4.167   3.857  13.395 -0.0821  0.2977  0.0191
 5654TIP3    H138377   4.240   3.913  13.370 -0.2787  1.6476  2.2229
 5654TIP3    H238378   4.098   3.878  13.334  1.4124 -1.3283 -2.4104
 5655TIP3   OH238379   1.490   6.384  11.131  0.3792 -0.3827 -0.1983
 5655TIP3    H138380   1.461   6.299  11.098  0.1457 -1.3152  2.2059
 5655TIP3    H238381   1.454   6.389  11.219  2.5309  1.0908  0.6742
 5656TIP3   OH238382   5.671   6.154   4.210 -0.5666 -0.1952 -0.0588
 5656TIP3    H138383   5.621   6.097   4.152 -0.3984  0.3095 -0.7146
 5656TIP3    H238384   5.635   6.137   4.297 -2.3756  0.6568 -0.5819
 5657TIP3   OH238385   6.081   5.779  11.404  0.5128  0.0382  0.2530
 5657TIP3    H138386   6.036   5.819  11.478  1.6687  0.2875  0.8431
 5657TIP3    H238387   6.174   5.794  11.421  0.8975 -1.5776 -0.2906
 5658TIP3   OH238388   6.492   1.056  13.289 -0.8849 -0.1518 -0.4128
 5658TIP3    H138389   6.535   1.016  13.213  0.9227  0.6669  0.1329
 5658TIP3    H238390   6.398   1.054  13.267 -0.4954 -0.8352 -2.2112
 5659TIP3   OH238391   0.299   6.268   4.804  0.2659 -0.1617 -0.1747
 5659TIP3    H138392   0.254   6.298   4.883 -0.4285 -2.0973  0.2378
 5659TIP3    H238393   0.392   6.279   4.824  0.2165  4.6594 -1.3409
 5660TIP3   OH238394   0.504   3.800  13.601  0.3602 -0.3823 -0.1524
 5660TIP3    H138395   0.473   3.804  13.691  0.5673  0.2677 -0.1059
 5660TIP3    H238396   0.592   3.838  13.604 -0.3282  1.3838 -0.9390
 5661TIP3   OH238397   5.577   2.126  15.074 -0.3163  0.1142  0.2237
 5661TIP3    H138398   5.541   2.172  14.999 -0.8526  0.5390  0.7399
 5661TIP3    H238399   5.501   2.104  15.128 -0.1250 -1.6780 -0.1640
 5662TIP3   OH238400   0.330   3.500   4.164  0.4200 -0.2747 -0.0830
 5662TIP3    H138401   0.408   3.449   4.141  0.1741 -1.3205  1.2399
 5662TIP3    H238402   0.363   3.585   4.191  0.9979 -0.3414 -0.5676
 5663TIP3   OH238403   6.234   2.710   3.328  0.4510 -0.1405  0.0733
 5663TIP3    H138404   6.198   2.659   3.256 -1.4112  1.7772 -0.4627
 5663TIP3    H238405   6.305   2.656   3.363 -0.8506 -2.6693 -0.9522
 5664TIP3   OH238406   5.723   5.255   0.243 -0.0067  0.0942 -0.2059
 5664TIP3    H138407   5.749   5.327   0.185 -1.6429  0.3700 -0.6379
 5664TIP3    H238408   5.631   5.270   0.261 -0.2881 -1.6883  0.0313
 5665TIP3   OH238409   0.008   1.670   1.691 -0.6459  0.4169 -0.2692
 5665TIP3    H138410   0.054   1.638   1.768 -0.5604 -0.8205 -0.8211
 5665TIP3    H238411   0.019   1.765   1.695 -0.7636  0.3974  1.3116
 5666TIP3   OH238412   2.011   0.959   5.539 -0.4602  0.2546  1.0075
 5666TIP3    H138413   2.019   0.877   5.588  1.2759  1.4680  2.9314
 5666TIP3    H238414   1.924   0.992   5.564 -1.2316 -1.0082  0.1155
 5667TIP3   OH238415   3.116   5.071  11.622  0.2683 -0.1081  0.5972
 5667TIP3    H138416   3.053   5.014  11.663  0.4665 -1.9722 -1.4965
 5667TIP3    H238417   3.070   5.109  11.547  1.7334 -2.2689 -1.5673
 5668TIP3   OH238418   0.627   3.526  11.542  0.7748  0.2938 -0.5361
 5668TIP3    H138419   0.575   3.582  11.600  1.0134 -0.0974  0.0718
 5668TIP3    H238420   0.569   3.454  11.521  1.1150 -0.2400  0.2949
 5669TIP3   OH238421   3.235   4.692   3.863  0.0234 -0.0018 -0.6059
 5669TIP3    H138422   3.287   4.725   3.790 -0.1324 -0.1777 -0.7997
 5669TIP3    H238423   3.295   4.636   3.912  1.1942  2.8260  1.4416
 5670TIP3   OH238424   5.382   6.012  10.271  0.6582 -1.0651  0.4772
 5670TIP3    H138425   5.365   6.016  10.365  2.7737 -1.8802  0.9745
 5670TIP3    H238426   5.375   5.919  10.250  1.2754 -1.0309  0.0912
 5671TIP3   OH238427   3.797   0.991   1.827  0.2041  0.6340 -0.0971
 5671TIP3    H138428   3.762   0.929   1.763  1.1052 -0.5090  0.4635
 5671TIP3    H238429   3.762   0.962   1.911 -0.6688  1.8956  0.0001
 5672TIP3   OH238430   0.031   4.934   3.132  0.0471  0.5297 -0.4840
 5672TIP3    H138431  -0.013   4.971   3.209 -0.3669 -0.5324 -0.2003
 5672TIP3    H238432  -0.015   4.973   3.058 -1.9398 -1.1291 -0.2063
 5673TIP3   OH238433   0.104   4.284   2.133 -0.0241 -0.3331  0.7559
 5673TIP3    H138434   0.160   4.341   2.186  2.3557 -1.4506 -0.4314
 5673TIP3    H238435   0.026   4.270   2.187  0.8116  1.2731  2.4911
 5674TIP3   OH238436   3.965   0.845  15.019 -0.0896 -0.0814 -0.0512
 5674TIP3    H138437   4.036   0.875  14.962  0.4770 -1.0743  0.0964
 5674TIP3    H238438   3.891   0.902  14.999  0.1915 -0.2204 -1.5491
 5675TIP3   OH238439   1.783   1.626   5.065 -0.0581  0.1165 -0.4023
 5675TIP3    H138440   1.791   1.671   4.980  2.6624 -2.2149 -1.5721
 5675TIP3    H238441   1.868   1.583   5.076 -1.1767 -1.6082  2.4008
 5676TIP3   OH238442   0.864   0.908  15.954  0.3526 -0.1096 -0.8811
 5676TIP3    H138443   0.826   0.953  15.879 -1.4982 -1.8978 -1.0982
 5676TIP3    H238444   0.837   0.960  16.029 -1.6784 -0.7363 -1.1282
 5677TIP3   OH238445   0.599   2.687   2.311  0.9600 -0.0704 -0.1963
 5677TIP3    H138446   0.611   2.614   2.251  4.1365 -1.1241  1.4952
 5677TIP3    H238447   0.540   2.653   2.379  0.4677 -0.1812 -0.6673
 5678TIP3   OH238448   2.144   3.466   0.110 -0.3505 -0.6619 -0.8056
 5678TIP3    H138449   2.194   3.446   0.189  0.5947  1.0441 -0.9318
 5678TIP3    H238450   2.053   3.448   0.134  0.1256 -2.1063 -0.0050
 5679TIP3   OH238451   6.218   2.138   0.800  0.0558  0.1275  0.6526
 5679TIP3    H138452   6.303   2.143   0.755 -0.7997  1.3028 -0.9594
 5679TIP3    H238453   6.154   2.161   0.732 -1.3829  1.4069  2.3426
 5680TIP3   OH238454   2.695   2.526   4.475  0.6318  0.0720  0.8041
 5680TIP3    H138455   2.677   2.615   4.504 -0.8706  0.2396 -0.5005
 5680TIP3    H238456   2.744   2.537   4.393  2.4514 -0.3579  1.7847
 5681TIP3   OH238457   1.384   1.772  14.244 -0.2302  0.3449 -0.2695
 5681TIP3    H138458   1.368   1.683  14.211  1.3270 -0.2828  0.5264
 5681TIP3    H238459   1.400   1.760  14.337  0.4171  1.4002 -0.2291
 5682TIP3   OH238460   5.259   3.672  13.242 -0.5302 -0.1183 -0.1075
 5682TIP3    H138461   5.213   3.592  13.216  0.2661 -0.6607  0.1494
 5682TIP3    H238462   5.350   3.658  13.215 -0.1388  0.2141  1.0094
 5683TIP3   OH238463   0.567   3.543  11.831 -0.4844 -0.3764  0.1744
 5683TIP3    H138464   0.635   3.608  11.814 -1.7428  1.3775  1.5763
 5683TIP3    H238465   0.603   3.488  11.901  2.0487 -3.6181 -3.2525
 5684TIP3   OH238466   4.876   0.826  13.487 -0.1493 -0.1913  0.2206
 5684TIP3    H138467   4.889   0.790  13.575  1.0271 -0.1373  0.0826
 5684TIP3    H238468   4.936   0.900  13.483 -1.0919  0.5724 -0.2111
 5685TIP3   OH238469   5.331   1.216   3.457  0.0715 -0.1165 -0.0658
 5685TIP3    H138470   5.398   1.156   3.425 -0.3724  0.2739 -1.8396
 5685TIP3    H238471   5.250   1.165   3.454  0.0071 -0.0559  0.4452
 5686TIP3   OH238472   1.370   0.524   6.209  0.4403 -0.3913  0.0714
 5686TIP3    H138473   1.454   0.509   6.252  0.0919 -1.0814  0.5213
 5686TIP3    H238474   1.306   0.518   6.280 -0.0392 -0.4159 -0.3634
 5687TIP3   OH238475   2.889   3.742  16.722 -0.1523  0.3514 -0.2051
 5687TIP3    H138476   2.928   3.811  16.775  0.0191  1.6036 -1.8639
 5687TIP3    H238477   2.838   3.789  16.655  0.3664 -1.0903 -1.6835
 5688TIP3   OH238478   6.250   4.539  10.178 -0.3958 -0.8616  0.3294
 5688TIP3    H138479   6.264   4.476  10.249 -0.4807 -0.7745  0.4221
 5688TIP3    H238480   6.326   4.597  10.182 -0.6814 -0.5121  0.7056
 5689TIP3   OH238481   1.543   3.429  15.650 -0.0208 -0.5066  0.2158
 5689TIP3    H138482   1.500   3.504  15.692 -1.2810 -1.3860  0.5377
 5689TIP3    H238483   1.620   3.413  15.703  0.3837  0.6719  0.0291
 5690TIP3   OH238484   5.123   3.740   3.477 -0.2133 -0.4553  0.1215
 5690TIP3    H138485   5.089   3.652   3.495  1.0998 -1.0255 -0.1219
 5690TIP3    H238486   5.213   3.726   3.450 -0.4573  0.8488 -1.4920
 5691TIP3   OH238487   1.501   0.208   1.163  0.2321 -0.7010 -0.2468
 5691TIP3    H138488   1.486   0.300   1.141  0.4160 -0.5010  0.4453
 5691TIP3    H238489   1.454   0.159   1.095 -0.1500 -0.1014 -0.4220
 5692TIP3   OH238490   4.270   0.071  14.448  0.1075  0.4486  0.5515
 5692TIP3    H138491   4.207   0.105  14.513 -0.7962 -1.0107  0.4796
 5692TIP3    H238492   4.351   0.059  14.497 -0.1720  0.6907  1.0802
 5693TIP3   OH238493   3.210   6.650   1.528 -0.5012  0.5552 -0.1578
 5693TIP3    H138494   3.244   6.689   1.448 -1.4572  0.0305 -0.8266
 5693TIP3    H238495   3.259   6.568   1.537 -1.6281 -0.2512 -1.1783
 5694TIP3   OH238496   0.123   4.317  15.785  0.5779 -0.1128 -0.1286
 5694TIP3    H138497   0.052   4.319  15.848  1.5139  0.7669  0.9501
 5694TIP3    H238498   0.087   4.359  15.707  0.1503  1.0498  0.6731
 5695TIP3   OH238499   1.148   0.794  10.582 -0.0036  0.3822 -0.3531
 5695TIP3    H138500   1.159   0.742  10.503 -1.3352 -1.5399  0.6450
 5695TIP3    H238501   1.057   0.823  10.579 -0.4852 -0.8958  1.1219
 5696TIP3   OH238502   5.921   6.174   3.523  1.0078  0.1919  1.1107
 5696TIP3    H138503   5.848   6.228   3.493 -0.2578 -0.6756  2.5309
 5696TIP3    H238504   5.938   6.114   3.450  1.3687  1.3974  0.1594
 5697TIP3   OH238505   4.754   1.693  12.838  0.4641 -0.4265  0.2249
 5697TIP3    H138506   4.810   1.755  12.791  0.7173  0.0035  1.0586
 5697TIP3    H238507   4.808   1.615  12.849  0.2032 -0.7472 -0.6808
 5698TIP3   OH238508   2.993   3.348   3.526  0.2510 -0.4925  0.1407
 5698TIP3    H138509   3.039   3.380   3.603  1.6268 -0.7995 -0.5304
 5698TIP3    H238510   2.932   3.419   3.503  0.8567  0.2052  0.6530
 5699TIP3   OH238511   0.894   4.500  12.880  0.0149  0.7697 -0.5697
 5699TIP3    H138512   0.810   4.500  12.925  0.6220  0.3777  0.6182
 5699TIP3    H238513   0.889   4.574  12.819 -1.0323  1.0038 -0.2196
 5700TIP3   OH238514   1.373   3.176  16.145  0.1176  0.3389  0.4035
 5700TIP3    H138515   1.371   3.195  16.051 -0.1326 -0.2899  0.2776
 5700TIP3    H238516   1.417   3.091  16.151 -1.3271 -0.4065  0.7172
 5701TIP3   OH238517   1.464   1.667   4.248  0.4732  0.1573  0.7416
 5701TIP3    H138518   1.409   1.595   4.215  0.1867  0.0690  1.4014
 5701TIP3    H238519   1.453   1.737   4.183 -0.6620  0.2451  1.0010
 5702TIP3   OH238520   6.019   4.285   2.398  0.5252  1.0747 -0.7419
 5702TIP3    H138521   5.997   4.229   2.472  1.4035  0.4250 -0.9522
 5702TIP3    H238522   6.114   4.279   2.392  0.5854  2.2298 -1.0619
 5703TIP3   OH238523   4.309   5.446   2.665  0.1631 -0.1725 -0.0415
 5703TIP3    H138524   4.340   5.355   2.674  0.9294 -0.0055 -0.8728
 5703TIP3    H238525   4.382   5.492   2.623  0.0148  0.9681  0.9015
 5704TIP3   OH238526   4.864   1.079  10.547  0.5592 -0.2307 -0.8688
 5704TIP3    H138527   4.865   0.996  10.594 -0.4172 -0.5265 -1.3520
 5704TIP3    H238528   4.957   1.102  10.538  0.7929 -0.5700  0.4555
 5705TIP3   OH238529   0.123   4.275   5.534  0.2424  0.6043 -0.1539
 5705TIP3    H138530   0.069   4.216   5.586  1.4515 -0.8572 -0.5156
 5705TIP3    H238531   0.179   4.218   5.482  2.0146  2.0650  0.0553
 5706TIP3   OH238532   5.032   3.360  11.769 -0.3319 -0.2335  0.6594
 5706TIP3    H138533   5.076   3.440  11.796 -1.4907  0.4435  0.6223
 5706TIP3    H238534   5.050   3.353  11.675  0.6805 -0.6207  0.8748
 5707TIP3   OH238535   3.397   0.675   3.981 -0.1175  0.1416 -0.0380
 5707TIP3    H138536   3.396   0.742   3.913  2.1445 -0.9247 -1.2025
 5707TIP3    H238537   3.407   0.724   4.063  0.8904  1.2682 -0.8121
 5708TIP3   OH238538   5.283   0.255  13.812 -0.1702  0.0496 -0.6052
 5708TIP3    H138539   5.229   0.300  13.877 -0.3491 -1.5319  0.4064
 5708TIP3    H238540   5.358   0.222  13.862  0.7700  0.5849 -1.6267
 5709TIP3   OH238541   2.783   2.674  15.492 -0.7770  0.1102 -0.9039
 5709TIP3    H138542   2.806   2.606  15.556  1.0223  2.4103  1.0643
 5709TIP3    H238543   2.821   2.642  15.410  0.5430 -1.0048  0.0791
 5710TIP3   OH238544   0.810   1.951  11.135 -0.4170  0.1937  0.6061
 5710TIP3    H138545   0.767   2.035  11.120  0.4846  0.5597 -0.0406
 5710TIP3    H238546   0.778   1.895  11.063 -0.4126  0.2275  0.5776
 5711TIP3   OH238547   4.785   3.606   0.775 -0.1099 -0.2946  0.7906
 5711TIP3    H138548   4.783   3.528   0.720  0.5195 -2.7478  3.9457
 5711TIP3    H238549   4.840   3.582   0.850 -0.8946  2.7692  2.5578
 5712TIP3   OH238550   3.103   3.981  11.566  0.1864  0.1656  0.2086
 5712TIP3    H138551   3.126   3.896  11.528  3.9710  0.4854  1.3422
 5712TIP3    H238552   3.095   3.965  11.659 -2.4644  0.5494  0.1164
 5713TIP3   OH238553   5.828   6.435  10.494  0.3349  0.0330  0.1655
 5713TIP3    H138554   5.910   6.485  10.499  0.6765 -0.6380  2.9049
 5713TIP3    H238555   5.760   6.501  10.506  0.7007  0.1376  1.9447
 5714TIP3   OH238556   1.550   6.189   3.548 -0.0610  0.6216 -0.1475
 5714TIP3    H138557   1.628   6.224   3.590  0.4910  0.2229 -0.8120
 5714TIP3    H238558   1.558   6.094   3.556  1.5866  0.2928 -3.5889
 5715TIP3   OH238559   1.848   2.848   2.827 -0.4930 -0.1326  0.5271
 5715TIP3    H138560   1.937   2.817   2.841 -0.3891  0.0267  0.2251
 5715TIP3    H238561   1.835   2.845   2.732 -0.3019  1.2070  0.4358
 5716TIP3   OH238562   4.805   4.209   5.253  0.0507 -0.0551 -0.3216
 5716TIP3    H138563   4.869   4.217   5.323  0.7542 -0.7567 -0.8714
 5716TIP3    H238564   4.857   4.206   5.173 -0.4591 -3.0288 -0.6427
 5717TIP3   OH238565   6.701   3.985  16.000 -0.5053  0.6276 -0.5279
 5717TIP3    H138566   6.702   3.893  16.027 -0.8695  0.1109 -2.1751
 5717TIP3    H238567   6.764   4.027  16.059  2.1583 -1.2952 -1.7647
 5718TIP3   OH238568   2.840   4.005  12.711  0.2127  0.4047  0.0997
 5718TIP3    H138569   2.872   3.988  12.622  0.9339  0.5960  0.3133
 5718TIP3    H238570   2.757   4.051  12.699  0.1063  0.0675 -0.4735
 5719TIP3   OH238571   3.939   0.569   2.737  0.1761  0.0980 -0.4540
 5719TIP3    H138572   3.890   0.534   2.811  0.9774  0.4041  0.2437
 5719TIP3    H238573   3.885   0.642   2.705 -0.1923 -0.0576 -0.1928
 5720TIP3   OH238574   2.145   5.605   3.650  0.3095  0.1228 -0.6012
 5720TIP3    H138575   2.075   5.671   3.652 -0.1256 -0.3373  0.1037
 5720TIP3    H238576   2.215   5.645   3.598  1.0271  2.1220  1.7082
 5721TIP3   OH238577   6.732   1.219  13.905  0.6829 -0.4484  0.0441
 5721TIP3    H138578   6.662   1.273  13.871  1.4482  0.4979 -0.0691
 5721TIP3    H238579   6.708   1.202  13.996 -0.1829 -0.9880 -0.2788
 5722TIP3   OH238580   6.355   2.152  16.605  0.2271  0.8453 -0.0514
 5722TIP3    H138581   6.401   2.181  16.684  1.2625  4.5808 -1.8369
 5722TIP3    H238582   6.263   2.164  16.625  0.2338 -1.1745  1.5426
 5723TIP3   OH238583   6.597   4.064  16.416  0.6919  0.1892 -0.0683
 5723TIP3    H138584   6.547   3.983  16.407 -1.7143  1.7507 -2.2165
 5723TIP3    H238585   6.686   4.039  16.392  0.1171 -1.8914 -0.3058
 5724TIP3   OH238586   4.580   0.539   5.800  0.0553  0.1071 -0.2242
 5724TIP3    H138587   4.504   0.589   5.827 -1.5737 -2.6767  0.6911
 5724TIP3    H238588   4.557   0.504   5.713 -0.5550 -2.1573  0.7723
 5725TIP3   OH238589   1.645   6.504  15.073  0.0086 -0.3781 -0.1184
 5725TIP3    H138590   1.736   6.531  15.059  0.6261 -2.0846  0.3542
 5725TIP3    H238591   1.594   6.583  15.059  1.5555  0.5766 -0.5747
 5726TIP3   OH238592   4.306   5.885   2.424  0.8715  0.0071 -0.7834
 5726TIP3    H138593   4.388   5.836   2.428  0.5455 -0.5923 -1.2982
 5726TIP3    H238594   4.264   5.869   2.508  1.4338  0.6060 -0.3754
 5727TIP3   OH238595   2.300   5.950   3.733  0.0920  0.2786  0.1254
 5727TIP3    H138596   2.289   6.029   3.786  0.3235  0.9861 -0.8361
 5727TIP3    H238597   2.365   5.898   3.779 -0.8611  0.1371  1.3406
 5728TIP3   OH238598   2.981   1.121  16.488  0.1379  0.0118  0.2171
 5728TIP3    H138599   3.064   1.110  16.533  0.2880 -1.1918 -0.3355
 5728TIP3    H238600   3.003   1.123  16.395 -0.6176 -2.6371 -0.0948
 5729TIP3   OH238601   1.603   3.457   6.691 -0.5351  0.1730 -0.4470
 5729TIP3    H138602   1.556   3.505   6.759 -0.3029  1.2594 -1.0239
 5729TIP3    H238603   1.554   3.375   6.680 -2.0624  1.0927 -0.7665
 5730TIP3   OH238604   6.450   6.765   4.999  0.0996  0.1129 -0.3257
 5730TIP3    H138605   6.380   6.714   5.039  2.4714 -2.6970  0.5960
 5730TIP3    H238606   6.514   6.777   5.069  1.1234  1.5440 -1.4394
 5731TIP3   OH238607   5.339   5.035  13.660 -0.1749 -0.5251 -0.2106
 5731TIP3    H138608   5.330   4.948  13.701 -0.1996 -0.8615 -0.9098
 5731TIP3    H238609   5.348   5.016  13.567  2.8657  0.0361 -0.1396
 5732TIP3   OH238610   6.439   1.450   5.658 -0.8230  0.0815 -0.1862
 5732TIP3    H138611   6.345   1.431   5.654 -0.4911 -1.8361  0.3536
 5732TIP3    H238612   6.444   1.532   5.708 -2.2180  0.4813 -0.6424
 5733TIP3   OH238613   2.232   5.662  14.565 -0.4179 -0.3235  0.0455
 5733TIP3    H138614   2.175   5.662  14.641 -0.6753  3.3744  0.0504
 5733TIP3    H238615   2.320   5.650  14.601 -0.7295 -0.7873  0.6607
 5734TIP3   OH238616   3.350   2.866   3.286 -0.4143 -0.3332 -0.0606
 5734TIP3    H138617   3.350   2.956   3.253 -0.6264 -0.9830 -1.8980
 5734TIP3    H238618   3.265   2.857   3.329  0.7525  1.2406  2.9092
 5735TIP3   OH238619   4.212   0.352   5.579 -0.2374 -0.1037 -0.5430
 5735TIP3    H138620   4.262   0.270   5.581 -0.2393 -0.1132  1.1917
 5735TIP3    H238621   4.133   0.330   5.530 -0.2718 -1.1758 -0.0462
 5736TIP3   OH238622   2.718   4.452   1.067  0.3279  0.4507 -0.7194
 5736TIP3    H138623   2.687   4.542   1.073 -1.5929 -0.2178  0.2973
 5736TIP3    H238624   2.645   4.399   1.101  2.3171 -1.3164  1.0927
 5737TIP3   OH238625   4.040   1.911   3.938  0.4603 -0.2839 -0.8100
 5737TIP3    H138626   4.119   1.859   3.955  0.1623 -0.5880 -0.3383
 5737TIP3    H238627   3.980   1.887   4.008  1.1147  2.3755  0.7901
 5738TIP3   OH238628   4.004   5.998   3.373 -0.1807  0.2669 -1.2018
 5738TIP3    H138629   4.079   6.058   3.374  0.3940 -0.4297 -0.3557
 5738TIP3    H238630   4.024   5.934   3.442 -0.8768 -0.7716 -1.9357
 5739TIP3   OH238631   2.029   3.108   5.685 -1.0849  0.6085 -0.2712
 5739TIP3    H138632   2.097   3.128   5.622  1.2898  0.6791  2.1471
 5739TIP3    H238633   2.029   3.182   5.746 -1.0428 -0.8325  1.5927
 5740TIP3   OH238634   2.867   6.185  13.377  0.1391 -0.1862 -0.8910
 5740TIP3    H138635   2.834   6.268  13.341  0.0577 -0.5338 -1.6466
 5740TIP3    H238636   2.946   6.167  13.326  0.4891 -0.2779 -0.3210
 5741TIP3   OH238637   3.954   2.811   3.163 -0.6083 -0.6781  0.4158
 5741TIP3    H138638   3.873   2.762   3.145 -0.3873 -1.0042  0.2996
 5741TIP3    H238639   3.974   2.855   3.080 -0.1143 -1.4112  0.1410
 5742TIP3   OH238640   3.682   5.861  12.207 -0.4557 -0.2471 -0.5221
 5742TIP3    H138641   3.637   5.778  12.188 -0.2205 -0.6982  0.7629
 5742TIP3    H238642   3.652   5.884  12.295 -0.1087  0.7679 -0.6619
 5743TIP3   OH238643   0.077   3.313  11.847 -0.1858 -0.3974 -0.0748
 5743TIP3    H138644   0.036   3.400  11.852  0.5764 -0.0944  1.2382
 5743TIP3    H238645   0.067   3.277  11.935 -0.1720 -1.5121 -0.5143
 5744TIP3   OH238646   0.597   5.743  14.190 -0.0162  0.4905  0.1685
 5744TIP3    H138647   0.549   5.824  14.206 -0.8265  0.1220 -0.3467
 5744TIP3    H238648   0.676   5.771  14.143  0.1212  1.0634  0.7333
 5745TIP3   OH238649   4.853   0.673   1.369 -0.2845  0.1354 -0.7347
 5745TIP3    H138650   4.878   0.585   1.342  0.9947  0.3112 -0.1910
 5745TIP3    H238651   4.778   0.660   1.427  0.1399 -0.6394 -0.3427
 5746TIP3   OH238652   5.823   2.219   4.378  0.4542  0.3806 -0.0602
 5746TIP3    H138653   5.846   2.284   4.312  0.1036  1.0730  0.4898
 5746TIP3    H238654   5.845   2.259   4.462 -1.7856  0.7171  0.4408
 5747TIP3   OH238655   3.783   3.404   1.100  0.6034 -0.4224  0.4287
 5747TIP3    H138656   3.854   3.399   1.163  2.2196 -0.6301 -1.3207
 5747TIP3    H238657   3.765   3.313   1.076 -0.9728 -0.4565  1.5387
 5748TIP3   OH238658   2.824   2.905   5.601 -0.2108  0.0413  0.3738
 5748TIP3    H138659   2.856   2.950   5.523 -1.5410  0.8962  0.2852
 5748TIP3    H238660   2.898   2.852   5.630  0.7613  0.7695 -0.6706
 5749TIP3   OH238661   5.387   6.073   3.015  0.4790  0.2592 -0.2118
 5749TIP3    H138662   5.423   6.123   2.941 -0.2798  0.3833 -0.5089
 5749TIP3    H238663   5.305   6.037   2.981  1.6146 -2.2815 -0.4238
 5750TIP3   OH238664   1.607   3.199   5.021 -0.2661  0.2992  0.1360
 5750TIP3    H138665   1.663   3.269   4.989 -1.0388  1.1569  0.5938
 5750TIP3    H238666   1.521   3.218   4.983 -0.8065  0.4056  1.3560
 5751TIP3   OH238667   5.590   3.523  12.456 -0.3679 -0.0717 -0.5037
 5751TIP3    H138668   5.558   3.462  12.521 -0.4976 -0.1396 -0.6308
 5751TIP3    H238669   5.538   3.505  12.378 -0.0867 -0.1157 -0.6815
 5752TIP3   OH238670   2.620   4.646   3.431 -0.5067  0.4119  0.1185
 5752TIP3    H138671   2.611   4.742   3.428 -0.7635  0.3739 -0.5227
 5752TIP3    H238672   2.539   4.616   3.473 -0.0139  0.5294  1.1657
 5753TIP3   OH238673   0.295   3.688   1.561  0.3511  0.0067 -0.0848
 5753TIP3    H138674   0.327   3.637   1.635  1.5145 -0.5728 -0.9487
 5753TIP3    H238675   0.249   3.762   1.600 -1.2532 -1.5821  1.2171
 5754TIP3   OH238676   5.847   5.087   5.531  0.2143 -0.3876  0.2542
 5754TIP3    H138677   5.941   5.083   5.512  0.2220  1.4078 -0.3383
 5754TIP3    H238678   5.837   5.165   5.586 -0.9276 -0.5484  0.3054
 5755TIP3   OH238679   1.085   2.361   0.530 -0.3612 -0.9831 -0.1514
 5755TIP3    H138680   1.157   2.354   0.593 -0.0948 -1.0753 -0.4666
 5755TIP3    H238681   1.021   2.295   0.559  0.6859 -2.5171 -1.1888
 5756TIP3   OH238682   1.512   5.880   0.775  0.6507 -0.6483 -0.8360
 5756TIP3    H138683   1.435   5.904   0.826  0.4171 -0.9024 -1.0674
 5756TIP3    H238684   1.557   5.815   0.830  0.5517 -0.7071 -0.8234
 5757TIP3   OH238685   0.922   0.296  15.985 -0.3274  0.0044 -0.3287
 5757TIP3    H138686   0.909   0.349  16.064  0.5872 -0.7658  0.3715
 5757TIP3    H238687   0.928   0.360  15.914 -3.4692  0.6192 -0.1719
 5758TIP3   OH238688   0.221   4.603  15.576  0.4565  0.6787  0.0363
 5758TIP3    H138689   0.129   4.594  15.550  0.8231  0.7039 -1.3431
 5758TIP3    H238690   0.248   4.514  15.598  0.7075  0.2580 -1.7918
 5759TIP3   OH238691   0.357   4.548  13.212 -0.2875  0.5137 -0.6271
 5759TIP3    H138692   0.383   4.634  13.178  1.0114 -0.5082 -2.3527
 5759TIP3    H238693   0.271   4.532  13.174 -0.8996  1.3590  0.3454
 5760TIP3   OH238694   0.036   3.574  16.742 -0.2053 -0.2374  0.0329
 5760TIP3    H138695   0.056   3.542  16.654  0.9429  0.4330  0.0314
 5760TIP3    H238696  -0.059   3.572  16.747 -0.2489 -1.8666 -0.6168
 5761TIP3   OH238697   6.372   2.967  15.248  0.5022 -0.3981 -0.0497
 5761TIP3    H138698   6.323   3.044  15.221  1.4104 -0.1691 -1.1049
 5761TIP3    H238699   6.442   3.002  15.304  1.6374 -0.2764 -1.4798
 5762TIP3   OH238700   6.097   0.668  15.906 -0.3976  0.2726  0.2690
 5762TIP3    H138701   6.112   0.635  15.995 -2.1021 -0.2534  0.4017
 5762TIP3    H238702   6.169   0.632  15.854 -0.5232 -1.1538  1.0355
 5763TIP3   OH238703   1.273   3.334  12.491 -0.4171  1.0273  0.1566
 5763TIP3    H138704   1.281   3.244  12.522  1.3521  0.7188 -1.0508
 5763TIP3    H238705   1.315   3.386  12.559 -1.1349  0.9233  0.6923
 5764TIP3   OH238706   1.870   2.408   4.859  0.2993  0.1158  0.1874
 5764TIP3    H138707   1.793   2.352   4.868  0.1440  0.5723  2.0397
 5764TIP3    H238708   1.942   2.357   4.896  0.7575  0.0051 -0.8162
 5765TIP3   OH238709   5.387   0.759  13.770  0.7666 -0.0368 -0.0575
 5765TIP3    H138710   5.463   0.713  13.807  1.3265  1.2887  0.5026
 5765TIP3    H238711   5.357   0.817  13.840 -2.7296 -2.6317  0.8717
 5766TIP3   OH238712   1.593   3.274  13.601  0.5938 -0.3290  0.4187
 5766TIP3    H138713   1.630   3.325  13.529 -0.7089 -0.6576 -0.5349
 5766TIP3    H238714   1.660   3.210  13.622  0.3448 -1.4112 -1.7771
 5767TIP3   OH238715   3.033   0.668   0.769  0.2235 -0.1893  0.1209
 5767TIP3    H138716   3.023   0.757   0.735  0.4018 -0.2697 -0.1439
 5767TIP3    H238717   2.945   0.630   0.762  0.3601 -0.3710 -0.7279
 5768TIP3   OH238718   6.371   3.651  16.163 -0.1571  0.3165 -0.0349
 5768TIP3    H138719   6.356   3.685  16.074 -1.1203  0.2326  0.0819
 5768TIP3    H238720   6.283   3.637  16.198  0.1960 -1.8672  0.1046
 5769TIP3   OH238721   5.390   2.904  16.342  0.2001 -0.1148  0.2930
 5769TIP3    H138722   5.351   2.817  16.352 -3.6388  1.2842 -0.7116
 5769TIP3    H238723   5.341   2.944  16.271  0.9093  3.3209  1.5552
 5770TIP3   OH238724   0.427   5.893   4.923 -0.1193  0.0103  0.6412
 5770TIP3    H138725   0.341   5.912   4.959  0.1868  1.2953  0.7709
 5770TIP3    H238726   0.487   5.948   4.975  0.4000  1.5330 -1.4240
 5771TIP3   OH238727   2.311   0.244  12.115  0.3548  0.0666  0.6732
 5771TIP3    H138728   2.322   0.239  12.210  0.5601  1.3390  0.7414
 5771TIP3    H238729   2.306   0.338  12.097  1.2291 -0.1158 -0.6749
 5772TIP3   OH238730   5.228   6.372  11.764  0.5097  0.0463 -0.0047
 5772TIP3    H138731   5.171   6.296  11.753  0.7173 -0.0456 -0.4439
 5772TIP3    H238732   5.316   6.337  11.755  0.7326 -0.0789  2.0906
 5773TIP3   OH238733   2.821   1.485  13.459 -0.0952 -0.2215  0.2120
 5773TIP3    H138734   2.746   1.460  13.404 -0.4304  2.9678 -0.9984
 5773TIP3    H238735   2.898   1.457  13.409 -0.4351  1.0498 -1.0732
 5774TIP3   OH238736   2.702   4.001   0.899  0.1805  0.0138 -0.7704
 5774TIP3    H138737   2.712   4.084   0.853 -0.3192 -0.5717 -1.9958
 5774TIP3    H238738   2.768   3.944   0.860  0.7418 -0.0857  0.2864
 5775TIP3   OH238739   2.520   5.865  11.949  0.7315  0.8951  0.1533
 5775TIP3    H138740   2.583   5.793  11.951 -0.1156  0.0467 -1.5472
 5775TIP3    H238741   2.545   5.917  11.872  1.3085  2.4615  1.3337
 5776TIP3   OH238742   1.346   1.230  15.008  0.3389  0.1615 -0.4963
 5776TIP3    H138743   1.300   1.304  15.048 -0.5166 -0.1802 -0.8415
 5776TIP3    H238744   1.305   1.219  14.922  1.4275  0.1895 -1.0437
 5777TIP3   OH238745   3.457   6.586   0.925 -0.0084  0.3199 -0.1831
 5777TIP3    H138746   3.522   6.655   0.938  0.5431 -0.3181  0.5198
 5777TIP3    H238747   3.508   6.507   0.908 -0.5642  0.6458 -4.8736
 5778TIP3   OH238748   0.518   5.045  14.831  0.3183  0.4083 -0.0397
 5778TIP3    H138749   0.569   4.975  14.792  2.8658  0.0387  3.4650
 5778TIP3    H238750   0.427   5.017  14.823  0.8008 -0.5950 -3.4639
 5779TIP3   OH238751   4.827   0.068  10.760  0.7316 -0.0540  0.0417
 5779TIP3    H138752   4.849  -0.018  10.726 -0.9559  0.3016 -2.1784
 5779TIP3    H238753   4.870   0.129  10.701  1.6966  0.6529  1.4407
 5780TIP3   OH238754   1.996   4.712   3.453  0.0441  0.1589 -0.3638
 5780TIP3    H138755   1.939   4.683   3.382  2.1121 -2.0358 -1.2634
 5780TIP3    H238756   2.085   4.696   3.421  1.1109  0.4445  2.1771
 5781TIP3   OH238757   0.440   1.600  15.744 -0.5380  0.0030 -0.5330
 5781TIP3    H138758   0.474   1.645  15.822 -0.6718 -0.0663 -0.4355
 5781TIP3    H238759   0.357   1.561  15.772  0.4571 -1.8849 -0.1043
 5782TIP3   OH238760   3.467   5.354   2.278 -0.2277 -0.1929  0.2656
 5782TIP3    H138761   3.562   5.361   2.278 -0.2777  0.9566  1.5255
 5782TIP3    H238762   3.439   5.388   2.193  0.4191  1.0325  0.5262
 5783TIP3   OH238763   4.983   5.866   0.291  0.1040 -0.3870 -0.1300
 5783TIP3    H138764   4.968   5.773   0.308 -0.5240  0.0336  1.8637
 5783TIP3    H238765   4.895   5.905   0.294  0.4826  0.4511  0.3271
 5784TIP3   OH238766   2.568   1.941   3.292 -0.1193  0.1348 -0.3189
 5784TIP3    H138767   2.541   1.860   3.249 -0.1571 -0.2223  0.3601
 5784TIP3    H238768   2.514   2.009   3.251 -0.2850 -0.2242 -0.7003
 5785TIP3   OH238769   0.945   6.457   3.433  0.3805 -0.8436 -0.0748
 5785TIP3    H138770   0.941   6.412   3.348 -0.9961 -0.6108 -0.1512
 5785TIP3    H238771   0.858   6.495   3.444  1.6165  2.2920 -0.2455
 5786TIP3   OH238772   1.865   4.358   3.422  0.5385  0.6620  0.2143
 5786TIP3    H138773   1.937   4.344   3.361  0.4222  1.3742 -0.0959
 5786TIP3    H238774   1.902   4.412   3.492  0.6727 -0.1557  0.7770
 5787TIP3   OH238775   1.301   5.860   1.039  0.0280 -0.0711 -0.6340
 5787TIP3    H138776   1.348   5.777   1.048 -0.3898 -0.1830  0.5647
 5787TIP3    H238777   1.354   5.923   1.089  1.2554  0.8067 -2.8663
 5788TIP3   OH238778   3.621   1.831   5.287 -0.1649 -0.0981 -0.0486
 5788TIP3    H138779   3.661   1.748   5.261  2.8384  1.1900 -0.0459
 5788TIP3    H238780   3.632   1.887   5.210 -3.1706  0.0515 -0.4576
 5789TIP3   OH238781   5.143   1.171   5.189  0.3146  0.3687 -0.0758
 5789TIP3    H138782   5.098   1.124   5.259 -0.5610  0.4876 -0.5464
 5789TIP3    H238783   5.104   1.258   5.190 -0.1949  0.1605 -1.1525
 5790TIP3   OH238784   5.572   2.592   3.628 -0.3654 -0.1852 -0.0497
 5790TIP3    H138785   5.576   2.658   3.696  0.1577 -1.3272  1.0664
 5790TIP3    H238786   5.523   2.633   3.557  2.4059  2.4639 -0.6148
 5791TIP3   OH238787   4.887   5.527  15.245 -0.1933  0.2571 -0.3417
 5791TIP3    H138788   4.847   5.611  15.268  1.2102  1.1581 -1.0183
 5791TIP3    H238789   4.814   5.465  15.244 -1.2426  1.4315  0.3226
 5792TIP3   OH238790   1.169   2.353  14.840  0.0419  0.1251  0.1111
 5792TIP3    H138791   1.080   2.319  14.830 -1.1159  2.7635  0.6191
 5792TIP3    H238792   1.225   2.279  14.817 -2.2580 -1.5278 -0.6007
 5793TIP3   OH238793   1.842   3.930   0.461  0.4617  0.1531 -0.3405
 5793TIP3    H138794   1.843   3.892   0.549 -0.6995 -1.7864 -1.1197
 5793TIP3    H238795   1.932   3.923   0.431  0.9418  1.1120  0.7610
 5794TIP3   OH238796   2.915   3.037   2.377 -0.6001  0.0170 -0.5510
 5794TIP3    H138797   2.951   3.046   2.288  0.3700  0.4813 -0.1328
 5794TIP3    H238798   2.849   3.106   2.384 -1.0564 -0.3576 -1.0795
 5795TIP3   OH238799   5.384   6.679  14.925 -0.3723 -0.2262  0.1146
 5795TIP3    H138800   5.448   6.724  14.981 -0.5276 -1.8978  1.7396
 5795TIP3    H238801   5.346   6.612  14.982 -1.3685 -1.2812 -1.7106
 5796TIP3   OH238802   1.649   1.480   4.021  0.3603  0.4265 -0.2478
 5796TIP3    H138803   1.675   1.553   4.077  0.0125  1.4392 -1.3693
 5796TIP3    H238804   1.705   1.488   3.944 -0.4631  0.1963 -0.8843
 5797TIP3   OH238805   3.596   4.976   0.662 -0.3293  0.1451 -0.0674
 5797TIP3    H138806   3.678   4.955   0.618 -0.3641  0.6533 -0.3895
 5797TIP3    H238807   3.611   5.063   0.699  1.0258 -1.6006  4.1449
 5798TIP3   OH238808   3.176   1.501  16.889  0.5110 -0.0890 -0.3983
 5798TIP3    H138809   3.260   1.461  16.867  0.3515 -0.7138  0.0943
 5798TIP3    H238810   3.122   1.488  16.811  0.0932 -1.8909  0.1521
 5799TIP3   OH238811   1.540   3.708  14.894 -0.6549  0.2919 -0.2600
 5799TIP3    H138812   1.513   3.767  14.964 -0.5204 -0.3000  0.2957
 5799TIP3    H238813   1.502   3.624  14.918 -1.5223  0.3185 -1.4613
 5800TIP3   OH238814   5.206   1.526   5.731  0.0236  0.0936  0.3562
 5800TIP3    H138815   5.175   1.585   5.800 -1.0011 -1.2077  1.0471
 5800TIP3    H238816   5.296   1.553   5.715 -0.0856  1.1437  1.3997
 5801TIP3   OH238817   2.499   1.382  13.693  0.5210  0.3067  0.2548
 5801TIP3    H138818   2.476   1.312  13.754 -1.7855  0.0416 -0.8162
 5801TIP3    H238819   2.486   1.462  13.744  2.2941  0.0493  1.2033
 5802TIP3   OH238820   6.696   3.482   3.079  0.0959  0.6591 -0.3792
 5802TIP3    H138821   6.666   3.540   3.010  1.4594 -0.5180 -2.0505
 5802TIP3    H238822   6.657   3.397   3.057  1.3052  0.0558 -0.2915
 5803TIP3   OH238823   4.931   4.620   3.595 -0.3085  0.0418  0.3524
 5803TIP3    H138824   5.021   4.645   3.574  0.0347  1.0845  2.7894
 5803TIP3    H238825   4.881   4.643   3.517  1.2690  1.0852 -0.3955
 5804TIP3   OH238826   0.725   2.839   5.419 -0.3707  0.0892 -0.1585
 5804TIP3    H138827   0.692   2.903   5.356 -0.7363  0.1448  0.0853
 5804TIP3    H238828   0.653   2.827   5.481 -0.8005 -1.4976 -0.8995
 5805TIP3   OH238829   4.176   3.253  11.954  0.7926 -0.5523 -0.3489
 5805TIP3    H138830   4.134   3.184  11.902 -0.4491 -0.0299 -0.0709
 5805TIP3    H238831   4.157   3.334  11.907  1.6907 -0.3109 -0.3229
 5806TIP3   OH238832   4.110   4.600  10.965  0.0297 -0.2629 -0.1332
 5806TIP3    H138833   4.085   4.514  10.998  1.7422 -1.0664 -0.8109
 5806TIP3    H238834   4.206   4.596  10.958  0.0507  1.3229 -1.1777
 5807TIP3   OH238835   6.784   2.660  15.845  0.0059  0.2453  0.0664
 5807TIP3    H138836   6.801   2.729  15.781  1.1213 -0.6054 -0.5950
 5807TIP3    H238837   6.863   2.607  15.844 -1.0151 -1.3399  0.1781
 5808TIP3   OH238838   1.592   0.292  10.865  0.4862  0.0398 -0.5762
 5808TIP3    H138839   1.580   0.329  10.778  1.6893 -1.0776 -1.2538
 5808TIP3    H238840   1.558   0.202  10.858  1.5739 -0.4197 -0.2303
 5809TIP3   OH238841   5.428   1.844   2.214  0.0819  0.2375 -0.7536
 5809TIP3    H138842   5.343   1.801   2.219 -0.4733  0.8289 -3.2977
 5809TIP3    H238843   5.407   1.938   2.221  0.3450  0.4471 -2.4172
 5810TIP3   OH238844   5.972   0.043   3.206 -0.2146  0.4060 -0.0414
 5810TIP3    H138845   6.055   0.089   3.217  0.8591 -1.6992  1.5350
 5810TIP3    H238846   5.905   0.108   3.227  1.0727  1.8436 -0.2092
 5811TIP3   OH238847   1.962   0.442  13.984 -0.3648 -0.2929  0.1347
 5811TIP3    H138848   1.932   0.533  13.977  1.0898  0.1294 -1.1157
 5811TIP3    H238849   1.905   0.394  13.924 -1.3793 -0.3180  1.0671
 5812TIP3   OH238850   1.388   1.233   3.230  0.4404 -0.3779  0.5906
 5812TIP3    H138851   1.295   1.232   3.205  1.1047  1.4608 -2.4176
 5812TIP3    H238852   1.435   1.219   3.148  2.8283  2.8455  1.1897
 5813TIP3   OH238853   2.688   1.918   0.785 -0.0924 -0.7620  0.0292
 5813TIP3    H138854   2.605   1.886   0.750  0.0232 -1.7174  0.6084
 5813TIP3    H238855   2.695   1.878   0.871  0.8818 -0.5377  0.0620
 5814TIP3   OH238856   6.044   3.745   5.169 -0.1846  0.2753 -0.0414
 5814TIP3    H138857   6.026   3.709   5.255 -2.0281  1.6773  0.2330
 5814TIP3    H238858   6.093   3.677   5.123 -1.6802 -1.6741  1.1264
 5815TIP3   OH238859   5.498   3.406   3.669  0.2163  0.3767  0.0498
 5815TIP3    H138860   5.495   3.415   3.574 -1.2788 -0.4286 -0.0130
 5815TIP3    H238861   5.572   3.347   3.685 -1.2299 -1.8050 -0.8781
 5816TIP3   OH238862   1.921   3.356   2.319  0.6980 -0.5102  0.1935
 5816TIP3    H138863   1.901   3.399   2.402  0.1525  0.2527 -0.3237
 5816TIP3    H238864   2.016   3.344   2.321  0.8012  0.3006  0.5544
 5817TIP3   OH238865   1.254   5.307  16.115  0.3948  0.0474 -0.2747
 5817TIP3    H138866   1.176   5.273  16.158  1.2411 -1.6780  0.0019
 5817TIP3    H238867   1.282   5.381  16.169  0.9381 -1.5228  1.7053
 5818TIP3   OH238868   1.508   3.143   5.869  0.0773  0.3530  0.0105
 5818TIP3    H138869   1.584   3.101   5.829 -0.1830 -0.3023  0.1854
 5818TIP3    H238870   1.438   3.078   5.860  0.1562 -0.0760  2.0696
 5819TIP3   OH238871   2.619   1.336   4.482 -0.1624 -0.2010 -0.6944
 5819TIP3    H138872   2.654   1.274   4.546  1.0810  0.6977 -0.4790
 5819TIP3    H238873   2.553   1.386   4.530  1.2972  0.9852  0.1346
 5820TIP3   OH238874   5.134   1.503   4.700 -0.2634  0.7869  0.1687
 5820TIP3    H138875   5.058   1.453   4.668 -0.0187 -0.6537  1.7226
 5820TIP3    H238876   5.098   1.589   4.721 -1.2002  0.5348 -0.3164
 5821TIP3   OH238877   0.394   4.943   4.747  0.5034  0.3356  0.8046
 5821TIP3    H138878   0.299   4.934   4.760  0.4400  0.5167  0.4794
 5821TIP3    H238879   0.431   4.930   4.834  0.1621  0.4737  0.9725
 5822TIP3   OH238880   4.710   5.318  11.633 -0.0537  0.4976 -0.0745
 5822TIP3    H138881   4.647   5.390  11.633 -0.5936  0.1086  1.9417
 5822TIP3    H238882   4.674   5.256  11.697  1.8372 -0.2290  0.3348
 5823TIP3   OH238883   2.301   1.898  13.877  0.4913 -0.4462  0.1245
 5823TIP3    H138884   2.327   1.828  13.817  0.4302  0.4144 -0.9317
 5823TIP3    H238885   2.205   1.891  13.882  0.3674  0.2664 -0.9053
 5824TIP3   OH238886   3.350   4.549  16.328  0.4720  0.0651  0.4123
 5824TIP3    H138887   3.384   4.589  16.248  1.1627 -0.1819  0.5771
 5824TIP3    H238888   3.290   4.614  16.364  1.4351  0.8789  0.5762
 5825TIP3   OH238889   2.164   5.957   1.844  0.0956  0.2486 -0.1885
 5825TIP3    H138890   2.169   5.999   1.930  2.4686  0.1107 -0.1783
 5825TIP3    H238891   2.079   5.913   1.844  0.4369 -0.6206  2.5138
 5826TIP3   OH238892   2.808   1.891   5.152 -0.6709 -0.1514  1.2302
 5826TIP3    H138893   2.796   1.905   5.058 -1.3785 -1.9334  1.0198
 5826TIP3    H238894   2.720   1.886   5.187 -0.4113  0.1322  1.9493
 5827TIP3   OH238895   2.947   4.616  17.094  0.1441  0.3034 -0.3366
 5827TIP3    H138896   3.026   4.571  17.123  1.2029  2.1131 -0.2583
 5827TIP3    H238897   2.885   4.605  17.166  0.9632  0.3625  0.3971
 5828TIP3   OH238898   1.620   2.040   5.558 -0.2725  0.2593 -0.0614
 5828TIP3    H138899   1.678   2.114   5.574  1.8743 -1.0536 -1.2982
 5828TIP3    H238900   1.679   1.967   5.535 -2.3418 -1.5248 -0.0520
 5829TIP3   OH238901   4.982   2.474   2.612 -0.1568 -0.1749 -0.4498
 5829TIP3    H138902   5.021   2.538   2.672 -1.9548 -2.2767  3.3724
 5829TIP3    H238903   4.924   2.525   2.556 -0.2037  1.7664  1.2639
 5830TIP3   OH238904   6.156   6.652  17.021  0.2184 -0.0352 -0.4893
 5830TIP3    H138905   6.139   6.597  16.945 -2.2052  1.1545 -0.9030
 5830TIP3    H238906   6.120   6.603  17.095  1.0348 -0.4308 -0.3422
 5831TIP3   OH238907   5.174   2.655  15.644  0.1974  0.0516  0.1397
 5831TIP3    H138908   5.237   2.722  15.667 -1.1116  1.0361  1.0390
 5831TIP3    H238909   5.223   2.592  15.591  2.3607 -0.1978  2.2726
 5832TIP3   OH238910   3.648   3.293   0.299  0.0744  0.0364  0.2690
 5832TIP3    H138911   3.591   3.351   0.248 -0.9548  0.2378  1.5888
 5832TIP3    H238912   3.665   3.220   0.241  0.0567  0.8939 -0.8529
 5833TIP3   OH238913   4.749   2.748   0.204 -0.2104  0.1054 -0.0816
 5833TIP3    H138914   4.729   2.671   0.150 -0.8141  0.1738  0.0392
 5833TIP3    H238915   4.719   2.724   0.292 -3.1456  1.5341 -0.5935
 5834TIP3   OH238916   6.383   2.750   0.902 -0.1611 -0.0919  0.2075
 5834TIP3    H138917   6.364   2.763   0.995 -0.8046 -0.0445  0.0754
 5834TIP3    H238918   6.462   2.695   0.901  0.1362  0.3145  0.7767
 5835TIP3   OH238919   4.069   3.934   0.349 -0.1067 -0.3123  0.0564
 5835TIP3    H138920   4.117   3.854   0.371 -0.9334 -0.7480  0.3045
 5835TIP3    H238921   4.013   3.950   0.425 -1.7005 -0.8403 -0.9672
 5836TIP3   OH238922   5.369   5.809   2.302 -0.2329  0.2823 -0.4491
 5836TIP3    H138923   5.327   5.728   2.331  2.4859 -0.6048  1.4113
 5836TIP3    H238924   5.456   5.781   2.271  0.1607  2.3250 -1.3622
 5837TIP3   OH238925   4.942   0.993   3.096 -0.0873 -0.6732 -0.3423
 5837TIP3    H138926   4.986   1.077   3.086 -0.8006 -0.2134  0.2893
 5837TIP3    H238927   4.990   0.948   3.165 -0.2505 -0.4108 -0.0563
 5838TIP3   OH238928   3.134   1.674  14.768  0.3573 -0.2009 -0.3990
 5838TIP3    H138929   3.092   1.674  14.855 -0.2249 -2.5978 -0.6297
 5838TIP3    H238930   3.113   1.589  14.731  2.0453  0.1195 -2.2343
 5839TIP3   OH238931   3.199   0.413   4.291  0.4161  0.9043  1.2759
 5839TIP3    H138932   3.285   0.424   4.249 -0.3325 -1.0350 -1.0230
 5839TIP3    H238933   3.219   0.366   4.372  1.4552 -2.8345 -0.8575
 5840TIP3   OH238934   4.283   4.529   5.093 -0.7007 -0.1752  0.1264
 5840TIP3    H138935   4.330   4.577   5.025 -0.4833  1.0456  1.0888
 5840TIP3    H238936   4.212   4.486   5.047  0.1391 -0.3609 -1.0477
 5841TIP3   OH238937   0.781   3.038   2.488  0.0865  0.4065  0.1880
 5841TIP3    H138938   0.792   2.993   2.572 -0.5243 -0.3644 -0.1205
 5841TIP3    H238939   0.796   2.969   2.423 -0.6395  0.7020 -0.2997
 5842TIP3   OH238940   5.211   5.669   3.121 -0.3723 -0.5540 -0.0351
 5842TIP3    H138941   5.296   5.690   3.082 -0.9164  0.5348 -0.6912
 5842TIP3    H238942   5.179   5.594   3.070 -0.2955 -0.2592 -0.5205
 5843TIP3   OH238943   1.570   3.608  11.965  0.1154 -0.1628  0.4055
 5843TIP3    H138944   1.577   3.582  11.873 -0.3383  0.7753  0.0889
 5843TIP3    H238945   1.478   3.634  11.976 -0.2725 -1.8108  1.5712
 5844TIP3   OH238946   3.068   3.030  15.772 -0.1504 -0.2039 -0.2938
 5844TIP3    H138947   3.057   3.062  15.861 -1.7030  1.5277 -1.0517
 5844TIP3    H238948   3.127   3.093  15.731  1.2071 -1.4326 -0.3129
 5845TIP3   OH238949   0.608   5.650  10.706  0.3003 -0.2682  0.7043
 5845TIP3    H138950   0.658   5.577  10.670 -0.1387 -0.2881  0.1205
 5845TIP3    H238951   0.521   5.615  10.722  0.0441  0.1551  0.2857
 5846TIP3   OH238952   4.836   5.353   1.691  0.2277  0.1398  0.3626
 5846TIP3    H138953   4.855   5.305   1.610 -0.3484 -0.1148  0.3725
 5846TIP3    H238954   4.755   5.314   1.723  0.0265  0.7856  0.6422
 5847TIP3   OH238955   4.774   6.790   5.046  0.4841 -0.1810  0.1247
 5847TIP3    H138956   4.826   6.837   4.981  0.7658 -0.1148  0.3966
 5847TIP3    H238957   4.703   6.751   4.995  0.5224  0.1324 -0.1757
 5848TIP3   OH238958   4.487   5.461  12.708 -0.6702 -0.3876  0.3200
 5848TIP3    H138959   4.475   5.540  12.656 -1.4847 -0.7294 -0.0213
 5848TIP3    H238960   4.564   5.480  12.761  0.8394 -0.3995 -1.7226
 5849TIP3   OH238961   3.836   4.470   2.457 -0.4112  0.1174  0.2186
 5849TIP3    H138962   3.816   4.531   2.387  1.4640  0.2932 -0.2097
 5849TIP3    H238963   3.887   4.521   2.520 -0.4915 -0.5172  0.8188
 5850TIP3   OH238964   3.230   3.847  12.146 -0.2166 -0.0138  0.4177
 5850TIP3    H138965   3.220   3.797  12.065 -0.3815  1.4223 -0.4709
 5850TIP3    H238966   3.322   3.873  12.147 -0.3943  0.6291  0.2930
 5851TIP3   OH238967   5.622   3.933  11.687  0.6977 -0.2789  0.0612
 5851TIP3    H138968   5.588   4.001  11.629  1.6502 -0.6743 -0.9943
 5851TIP3    H238969   5.572   3.855  11.663  0.8204 -0.3528  0.0436
 5852TIP3   OH238970   1.040   6.266  16.545 -0.6184  0.3366 -0.4788
 5852TIP3    H138971   1.035   6.301  16.456 -0.3827  0.8766 -0.2846
 5852TIP3    H238972   1.133   6.270  16.567 -0.1902 -2.6175 -1.3178
 5853TIP3   OH238973   3.819   5.596  15.990 -0.0595 -0.6033 -0.2832
 5853TIP3    H138974   3.891   5.600  15.927  0.5519 -0.1734  0.4340
 5853TIP3    H238975   3.777   5.681  15.984 -0.8734 -1.0368 -1.0963
 5854TIP3   OH238976   2.369   4.698   0.725  0.1391  0.2212  0.1448
 5854TIP3    H138977   2.327   4.644   0.658  0.8536 -1.3425  0.8856
 5854TIP3    H238978   2.312   4.689   0.802 -1.2114  2.7990 -0.4639
 5855TIP3   OH238979   2.200   2.965   5.850  0.0857  0.4994 -0.3775
 5855TIP3    H138980   2.149   2.902   5.901  0.3347  0.9175  0.4001
 5855TIP3    H238981   2.135   3.026   5.814 -0.0055  0.8056  0.2957
 5856TIP3   OH238982   1.731   3.513  13.429  0.5199  0.2438  0.0233
 5856TIP3    H138983   1.701   3.534  13.341 -1.9517 -1.9645  0.1953
 5856TIP3    H238984   1.810   3.461  13.415 -0.4403 -1.0204 -1.0414
 5857TIP3   OH238985   4.496   1.677  11.856 -0.2969  0.1543 -0.4177
 5857TIP3    H138986   4.431   1.663  11.787 -1.8630 -1.9429  1.3121
 5857TIP3    H238987   4.448   1.725  11.924  1.2649  2.3603 -0.7486
 5858TIP3   OH238988   5.196   4.912   4.617  0.1703 -0.0491  0.4737
 5858TIP3    H138989   5.122   4.874   4.570  0.0826  0.8777 -0.1506
 5858TIP3    H238990   5.252   4.948   4.548  2.1160 -2.2682  0.7742
 5859TIP3   OH238991   6.557   4.134   3.287 -0.0958  0.4566 -0.0687
 5859TIP3    H138992   6.553   4.224   3.255  1.3365 -0.2919 -2.6473
 5859TIP3    H238993   6.628   4.094   3.237  0.7880 -1.5563  2.5534
 5860TIP3   OH238994   5.993   2.608   2.581 -0.6581 -0.2362  0.3979
 5860TIP3    H138995   6.051   2.536   2.604 -0.5637 -1.5406 -3.2559
 5860TIP3    H238996   6.015   2.678   2.643  3.1226 -1.4764  0.6962
 5861TIP3   OH238997   5.696   4.979   6.499  0.3615 -0.6457  0.0227
 5861TIP3    H138998   5.610   4.936   6.499  0.3251 -0.6948 -2.2467
 5861TIP3    H238999   5.675   5.073   6.494  0.4567 -0.5917  0.5692
 5862TIP3   OH239000   6.005   5.877  14.447  0.0912 -0.3951 -0.0200
 5862TIP3    H139001   6.067   5.829  14.501 -0.3651 -0.0307  0.8560
 5862TIP3    H239002   6.008   5.833  14.362  0.3874 -1.3633  0.4727
 5863TIP3   OH239003   6.348   3.246   1.250 -0.1872  0.0326  0.0951
 5863TIP3    H139004   6.391   3.173   1.205  1.6015  1.1168 -0.0933
 5863TIP3    H239005   6.377   3.239   1.341  0.6113  0.8787 -0.0706
 5864TIP3   OH239006   6.386   1.924  17.134 -0.0714  0.2911  0.1666
 5864TIP3    H139007   6.429   1.962  17.058  2.0724  1.8827  2.0171
 5864TIP3    H239008   6.453   1.867  17.173 -1.2307 -0.7418  0.7106
 5865TIP3   OH239009   4.709   5.616   3.582  0.2239  0.0393  0.1401
 5865TIP3    H139010   4.797   5.651   3.568  0.6692 -1.1646 -0.1653
 5865TIP3    H239011   4.718   5.558   3.657 -0.2570 -0.2899 -0.0554
 5866TIP3   OH239012   4.675   4.445  15.497 -0.0962 -0.3168  0.0241
 5866TIP3    H139013   4.617   4.441  15.421  2.5868 -1.4428 -2.1219
 5866TIP3    H239014   4.702   4.536  15.502 -0.9314 -0.0662  0.2045
 5867TIP3   OH239015   0.092   4.557   5.421 -0.6918  0.4107  0.1173
 5867TIP3    H139016   0.000   4.546   5.395 -0.8022 -1.0729  1.0406
 5867TIP3    H239017   0.124   4.468   5.434  0.9509  0.8975 -0.3691
 5868TIP3   OH239018   5.737   5.994  12.264  0.2419 -0.0560  0.5475
 5868TIP3    H139019   5.662   5.941  12.292 -0.7854  0.4826 -1.0565
 5868TIP3    H239020   5.712   6.084  12.284 -0.3308  0.3011 -1.5644
 5869TIP3   OH239021   0.659   2.404   5.491  0.3640  0.6763  0.2864
 5869TIP3    H139022   0.613   2.488   5.489 -1.5067 -0.3139  0.1687
 5869TIP3    H239023   0.661   2.375   5.400  1.3351  0.7222  0.2743
 5870TIP3   OH239024   0.264   5.762   3.792 -0.6249  0.3907 -0.3130
 5870TIP3    H139025   0.255   5.773   3.697 -3.4358  0.0262 -0.1883
 5870TIP3    H239026   0.265   5.851   3.826  0.0855  0.5196 -0.6637
 5871TIP3   OH239027   6.104   6.184   0.441  0.0458 -0.4600  0.1905
 5871TIP3    H139028   6.049   6.130   0.384  0.3397 -0.0488 -0.4890
 5871TIP3    H239029   6.164   6.122   0.482  1.3523 -0.5236 -1.6833
 5872TIP3   OH239030   1.307   3.598  15.508  0.2270  0.2199 -0.5984
 5872TIP3    H139031   1.322   3.670  15.570  1.3684  1.2008 -1.9517
 5872TIP3    H239032   1.349   3.522  15.550 -0.6044  0.4146  0.6391
 5873TIP3   OH239033   3.448   2.328  16.176 -0.1262 -0.0879 -0.4079
 5873TIP3    H139034   3.426   2.236  16.160 -1.1410  0.1843 -0.7088
 5873TIP3    H239035   3.363   2.369  16.194  0.3562  0.7301  0.0381
 5874TIP3   OH239036   6.327   2.132  11.618 -0.1953 -0.3257 -0.2842
 5874TIP3    H139037   6.364   2.129  11.706 -0.9478  0.4137  0.0747
 5874TIP3    H239038   6.266   2.058  11.615  1.0556 -1.3588 -0.7733
 5875TIP3   OH239039   4.401   6.544   1.765 -0.0542 -0.7526 -0.1777
 5875TIP3    H139040   4.472   6.483   1.747 -0.2844 -1.5534  1.3930
 5875TIP3    H239041   4.380   6.584   1.681  2.8602  0.1898 -0.5630
 5876TIP3   OH239042   5.999   5.338   4.525  0.1863  0.3524 -0.7227
 5876TIP3    H139043   6.049   5.407   4.482  1.1617  0.2054  0.1389
 5876TIP3    H239044   6.026   5.257   4.481 -0.2345  0.4102 -1.0903
 5877TIP3   OH239045   0.129   4.414   4.102 -0.6925  0.1991 -0.0333
 5877TIP3    H139046   0.064   4.352   4.071 -0.3110  0.0902 -0.6312
 5877TIP3    H239047   0.079   4.493   4.122 -0.8616  0.5942 -1.8117
 5878TIP3   OH239048   0.083   2.978   0.825  0.3346 -0.3195  0.3876
 5878TIP3    H139049   0.099   3.036   0.750  0.7013  1.0136  1.4546
 5878TIP3    H239050  -0.010   2.957   0.820  0.1507  0.5451  0.0943
 5879TIP3   OH239051   2.945   1.588  14.351 -0.6894  0.1337  0.2014
 5879TIP3    H139052   2.967   1.561  14.262 -0.5176  2.4609 -0.5412
 5879TIP3    H239053   2.877   1.527  14.379 -2.9385  1.0427 -2.6824
 5880TIP3   OH239054   5.458   4.910   0.180  0.0454  0.3760 -0.4994
 5880TIP3    H139055   5.458   4.849   0.254 -1.8356  2.2852  1.2443
 5880TIP3    H239056   5.544   4.900   0.140  0.7683 -1.4828  1.3273
 5881TIP3   OH239057   1.974   4.287   2.764  0.0225 -0.0955 -0.7455
 5881TIP3    H139058   1.904   4.324   2.819  0.3132  0.9568 -1.0607
 5881TIP3    H239059   2.019   4.225   2.822  1.5048  2.3230  0.9151
 5882TIP3   OH239060   2.566   1.426   2.664  0.0479  0.3958 -0.3267
 5882TIP3    H139061   2.505   1.393   2.598  1.1293  1.5668 -2.0107
 5882TIP3    H239062   2.626   1.354   2.680 -0.0414  0.1968 -0.8746
 5883TIP3   OH239063   0.722   0.969  13.605 -0.3486 -0.1317  0.0803
 5883TIP3    H139064   0.704   0.935  13.693 -1.1625  0.5060  0.1746
 5883TIP3    H239065   0.692   0.899  13.547 -2.0143  0.3721  0.2753
 5884TIP3   OH239066   1.491   3.829   3.826  0.7400  0.0752  0.1976
 5884TIP3    H139067   1.400   3.806   3.808  0.9196 -0.5113  0.0148
 5884TIP3    H239068   1.512   3.782   3.906  0.3509  1.6180  1.2532
 5885TIP3   OH239069   2.716   3.878  16.528 -0.3895  0.2991  0.1969
 5885TIP3    H139070   2.664   3.897  16.450 -1.5856 -0.0462  0.8759
 5885TIP3    H239071   2.734   3.965  16.566  1.4040  0.5771 -1.1621
 5886TIP3   OH239072   6.472   3.000  14.611 -0.6091 -0.1460  0.2947
 5886TIP3    H139073   6.475   3.018  14.517  0.5261  0.8513  0.4884
 5886TIP3    H239074   6.546   2.941  14.626  0.1625  0.9000  0.7609
 5887TIP3   OH239075   3.137   1.715   4.880 -0.2934  0.2260 -0.3787
 5887TIP3    H139076   3.099   1.649   4.822  1.1416 -0.8722 -0.1317
 5887TIP3    H239077   3.179   1.778   4.822 -1.2357  0.6776 -0.5959
 5888TIP3   OH239078   4.382   6.191  14.277  1.3679  0.1907  0.2976
 5888TIP3    H139079   4.435   6.159  14.350  0.6579 -1.1569  0.2520
 5888TIP3    H239080   4.311   6.239  14.318  1.2974 -0.0564  0.4675
 5889TIP3   OH239081   5.569   2.868  12.355 -0.1938  0.5299  0.1765
 5889TIP3    H139082   5.547   2.955  12.321 -2.0474  0.2726  0.5879
 5889TIP3    H239083   5.558   2.810  12.280 -3.0842  0.1334  0.7778
 5890TIP3   OH239084   2.845   5.073  12.695  0.4964  0.2850  0.1559
 5890TIP3    H139085   2.797   5.155  12.708  1.5722  0.6794  1.9166
 5890TIP3    H239086   2.937   5.097  12.703  0.8263 -1.1490  1.1012
 5891TIP3   OH239087   0.031   5.786  10.577  0.2128  0.0630  0.3636
 5891TIP3    H139088  -0.063   5.794  10.593 -0.0189 -0.4730 -0.6418
 5891TIP3    H239089   0.069   5.773  10.664 -0.6850 -0.1489  0.7354
 5892TIP3   OH239090   5.834   0.721  15.669  0.0001  0.0136  0.1568
 5892TIP3    H139091   5.896   0.702  15.598  0.4641  0.3968  0.4563
 5892TIP3    H239092   5.888   0.724  15.748 -0.2980  0.9838  0.3389
 5893TIP3   OH239093   0.874   5.738  14.487 -0.2127 -0.0243  0.0426
 5893TIP3    H139094   0.888   5.758  14.395  0.7037 -0.1719  0.1387
 5893TIP3    H239095   0.882   5.643  14.493  0.8537  0.0740  0.4390
 5894TIP3   OH239096   6.245   3.642  11.524  0.2920 -0.7441 -0.4440
 5894TIP3    H139097   6.186   3.711  11.492  0.3449 -0.4537  0.0742
 5894TIP3    H239098   6.332   3.668  11.495  0.8200  1.1235  2.3927
 5895TIP3   OH239099   5.689   3.142  10.840  0.2340  0.1253  0.0380
 5895TIP3    H139100   5.604   3.182  10.858  0.1845  0.5225 -1.0067
 5895TIP3    H239101   5.740   3.211  10.798  2.4150  1.1135  3.7810
 5896TIP3   OH239102   2.579   3.748  12.470 -0.9618  0.1016 -0.0380
 5896TIP3    H139103   2.658   3.768  12.519  0.4973 -1.7182 -1.5184
 5896TIP3    H239104   2.527   3.693  12.529  1.0896 -2.6762 -0.6235
 5897TIP3   OH239105   0.749   6.182  11.213 -0.2409  0.4631  0.2717
 5897TIP3    H139106   0.687   6.255  11.207 -0.0877  0.4822 -1.2885
 5897TIP3    H239107   0.731   6.129  11.136  0.7144 -0.3280  0.5751
 5898TIP3   OH239108   4.045   2.611  14.223  0.2725 -1.1458 -0.5262
 5898TIP3    H139109   4.130   2.580  14.252  2.2104  1.8137 -2.4399
 5898TIP3    H239110   4.006   2.652  14.300  2.4354  0.9093 -0.4179
 5899TIP3   OH239111   3.957   1.071   2.541  0.0248 -0.1116  0.4195
 5899TIP3    H139112   4.037   1.044   2.496 -0.3498 -0.1595 -0.2331
 5899TIP3    H239113   3.987   1.130   2.610  0.6999 -0.8538  0.7755
 5900TIP3   OH239114   4.634   1.480   5.676  0.3247 -0.2757 -0.3290
 5900TIP3    H139115   4.575   1.405   5.685  1.5156 -0.9952  2.8832
 5900TIP3    H239116   4.590   1.551   5.721  0.9548 -0.2142  0.2012
 5901TIP3   OH239117   2.200   1.583   2.124  0.1579 -0.0547 -0.4340
 5901TIP3    H139118   2.195   1.496   2.086  2.5742  0.2750 -1.7091
 5901TIP3    H239119   2.109   1.608   2.138 -0.6346 -2.2799 -1.1802
 5902TIP3   OH239120   3.648   0.612  16.229  0.9357  0.2948 -0.0763
 5902TIP3    H139121   3.726   0.557  16.231  0.2227 -0.7489 -0.0883
 5902TIP3    H239122   3.610   0.596  16.142 -0.1230 -0.4373  0.4932
 5903TIP3   OH239123   0.563   5.245   4.020  0.5056  0.4865 -0.0167
 5903TIP3    H139124   0.647   5.291   4.024  1.4186 -0.9735 -1.2049
 5903TIP3    H239125   0.550   5.212   4.109  1.0149  1.0247  0.2676
 5904TIP3   OH239126   3.419   5.134   4.635 -0.0254  0.3725 -0.4092
 5904TIP3    H139127   3.469   5.085   4.700  0.6291  2.1155  0.4732
 5904TIP3    H239128   3.349   5.177   4.685 -0.6220  0.3021 -1.1588
 5905TIP3   OH239129   0.127   0.880  12.174  0.5103 -0.1041 -0.2190
 5905TIP3    H139130   0.118   0.908  12.265  3.1520 -0.2142  0.1370
 5905TIP3    H239131   0.085   0.794  12.172  1.0007 -0.4006  1.0802
 5906TIP3   OH239132   4.715   4.832  14.824 -0.4340 -0.6218 -0.2410
 5906TIP3    H139133   4.716   4.784  14.742  0.0120 -0.8814 -0.0870
 5906TIP3    H239134   4.625   4.863  14.833 -0.0642  0.9951 -1.7178
 5907TIP3   OH239135   1.978   3.166  14.176  0.2923 -0.0993  0.1501
 5907TIP3    H139136   1.963   3.259  14.163  2.0115  0.3446  1.0969
 5907TIP3    H239137   1.994   3.132  14.087  1.0622  0.7788 -0.0541
 5908TIP3   OH239138   2.217   4.660   3.317 -0.0742 -0.3981  0.3736
 5908TIP3    H139139   2.165   4.721   3.265  1.5243  0.9675  0.2961
 5908TIP3    H239140   2.286   4.631   3.258  0.7357 -0.2111  1.2112
 5909TIP3   OH239141   4.395   3.683  11.561  0.2426 -1.0835 -0.0688
 5909TIP3    H139142   4.489   3.700  11.552  0.3980 -1.0260  1.3314
 5909TIP3    H239143   4.376   3.706  11.652 -1.1982 -0.7974 -0.4254
 5910TIP3   OH239144   0.225   2.275  14.222 -0.2442 -0.0272  0.3806
 5910TIP3    H139145   0.255   2.280  14.131 -2.5428  1.2363 -0.3850
 5910TIP3    H239146   0.196   2.185  14.233 -0.1849 -0.1241 -0.2210
 5911TIP3   OH239147   3.223   2.543   1.409  0.4185 -0.2281  0.0112
 5911TIP3    H139148   3.307   2.564   1.368 -0.7179  0.1395 -2.2807
 5911TIP3    H239149   3.167   2.617   1.388 -1.0773 -1.4115 -0.3593
 5912TIP3   OH239150   1.574   5.027  15.097 -0.0368 -0.3184  0.5029
 5912TIP3    H139151   1.634   4.953  15.095  0.0332 -0.2716  0.8254
 5912TIP3    H239152   1.600   5.077  15.174 -0.9261 -0.6728  1.0576
 5913TIP3   OH239153   0.004   4.497   4.721  0.2243 -1.0098  0.4349
 5913TIP3    H139154   0.089   4.456   4.737  0.3609 -1.0553 -0.3589
 5913TIP3    H239155   0.018   4.552   4.644  0.4215  1.6896  2.2893
 5914TIP3   OH239156   3.653   4.636  12.563  0.0983  0.1073 -0.2759
 5914TIP3    H139157   3.670   4.682  12.481 -2.9161  0.0592 -1.0690
 5914TIP3    H239158   3.605   4.557  12.537  0.1482 -0.5439  1.4625
 5915TIP3   OH239159   5.310   0.879   2.919 -0.4413  0.1476  0.4770
 5915TIP3    H139160   5.308   0.909   2.828 -0.8840 -0.6602  0.2124
 5915TIP3    H239161   5.331   0.958   2.970 -2.5931  1.1917 -0.1089
 5916TIP3   OH239162   2.537   4.922  13.360  0.2562 -0.3829  0.9404
 5916TIP3    H139163   2.496   4.873  13.432 -1.0970 -1.3700 -0.4335
 5916TIP3    H239164   2.609   4.866  13.332  1.4958  0.5195  2.1941
 5917TIP3   OH239165   3.406   3.763  12.769 -0.2994 -0.0776 -0.0215
 5917TIP3    H139166   3.447   3.677  12.767  0.1773  0.1578 -1.4140
 5917TIP3    H239167   3.333   3.753  12.830 -1.2267 -1.9392 -1.3374
 5918TIP3   OH239168   6.683   6.167   0.482  0.3764 -0.2243 -0.3116
 5918TIP3    H139169   6.717   6.129   0.401 -0.8032  0.2204 -1.0489
 5918TIP3    H239170   6.606   6.113   0.502  0.0064  0.3705 -0.1202
 5919TIP3   OH239171   1.740   3.701  16.718  0.1652 -0.3890  0.2292
 5919TIP3    H139172   1.764   3.761  16.789 -1.1431 -0.2253  0.5491
 5919TIP3    H239173   1.714   3.620  16.763 -2.0512  0.1738  0.0657
 5920TIP3   OH239174   2.491   5.996  11.276  0.4985  0.1638 -0.4765
 5920TIP3    H139175   2.514   5.925  11.335 -1.9726  1.0659  1.7712
 5920TIP3    H239176   2.518   6.075  11.322 -0.6643  0.8569 -0.9389
 5921TIP3   OH239177   4.776   6.389  15.398  0.1548 -0.4468 -0.4923
 5921TIP3    H139178   4.694   6.341  15.401 -0.3861  0.4248 -1.0191
 5921TIP3    H239179   4.831   6.348  15.465 -0.1238 -2.0823 -1.2174
 5922TIP3   OH239180   4.118   6.692   1.383 -0.3663  0.3132  0.3654
 5922TIP3    H139181   4.046   6.755   1.375 -1.7900 -1.4023 -1.5843
 5922TIP3    H239182   4.168   6.702   1.302 -0.2005 -0.5706  0.3540
 5923TIP3   OH239183   6.663   5.083   1.768  1.0270 -0.2339  0.4510
 5923TIP3    H139184   6.703   5.046   1.689 -0.6694 -0.7711 -0.2024
 5923TIP3    H239185   6.703   5.036   1.840  0.3541 -1.9995 -0.2712
 5924TIP3   OH239186   2.043   0.831   2.557 -0.2707 -0.4582  0.1196
 5924TIP3    H139187   2.009   0.851   2.644 -3.6660  1.5378 -1.4499
 5924TIP3    H239188   2.038   0.736   2.551 -0.1534 -0.6243  1.9909
 5925TIP3   OH239189   4.930   4.767  13.794 -0.1239  0.8737  0.2593
 5925TIP3    H139190   4.837   4.765  13.816 -0.1967  2.8245  0.2883
 5925TIP3    H239191   4.933   4.777  13.699  0.1148 -0.9857  0.0366
 5926TIP3   OH239192   1.963   6.176  15.042 -0.3277 -0.2125 -0.4517
 5926TIP3    H139193   1.876   6.183  15.082 -1.3940 -1.0686 -2.4779
 5926TIP3    H239194   2.012   6.119  15.101 -1.3547 -0.2577  0.3867
 5927TIP3   OH239195   3.927   2.117  15.035 -0.4735  0.4097  0.3300
 5927TIP3    H139196   3.914   2.207  15.066 -0.7681  0.9983 -1.4180
 5927TIP3    H239197   3.846   2.096  14.989 -0.8570 -1.1841  1.6265
 5928TIP3   OH239198   3.962   5.735  12.718  0.1161 -0.0016  0.0543
 5928TIP3    H139199   4.027   5.774  12.661  0.9196  0.0311  0.9550
 5928TIP3    H239200   3.887   5.794  12.715  0.9281  1.0844  0.6178
 5929TIP3   OH239201   3.247   4.853  13.794  0.1052  0.2947 -0.3830
 5929TIP3    H139202   3.235   4.948  13.786  0.3797  0.3671  0.0518
 5929TIP3    H239203   3.160   4.817  13.776 -0.8784  0.8015  2.7869
 5930TIP3   OH239204   6.622   3.546  11.504 -0.1224 -0.1525 -0.0240
 5930TIP3    H139205   6.569   3.573  11.430  1.7800  0.6181 -1.1784
 5930TIP3    H239206   6.620   3.450  11.502 -0.6263 -0.1287 -0.6614
 5931TIP3   OH239207   5.219   5.395   0.495  0.2227  0.2592 -0.4670
 5931TIP3    H139208   5.291   5.451   0.521 -0.2835  0.9727 -0.5707
 5931TIP3    H239209   5.204   5.337   0.570 -0.0072  1.0483  0.1035
 5932TIP3   OH239210   6.720   2.417   5.617 -0.3059 -0.1623 -0.4975
 5932TIP3    H139211   6.715   2.343   5.557 -1.4904  0.0263 -0.6587
 5932TIP3    H239212   6.729   2.494   5.560 -2.1046  0.0819 -0.5060
 5933TIP3   OH239213   6.542   2.450   3.825 -0.2603  0.1150  0.3982
 5933TIP3    H139214   6.518   2.374   3.878  0.2582  0.6814  1.4832
 5933TIP3    H239215   6.505   2.524   3.872 -1.2133  0.5051 -0.9327
 5934TIP3   OH239216   4.686   4.404  13.459 -0.1966 -0.2897 -0.1342
 5934TIP3    H139217   4.714   4.473  13.399 -0.1031  0.9672  1.2735
 5934TIP3    H239218   4.765   4.351  13.472 -0.4017 -0.9843 -1.6189
 5935TIP3   OH239219   2.655   1.228   2.262 -0.0969 -0.0145 -0.0390
 5935TIP3    H139220   2.701   1.158   2.308 -0.3249  0.6989  1.3075
 5935TIP3    H239221   2.697   1.231   2.176 -1.2171 -2.9431 -0.7971
 5936TIP3   OH239222   2.324   3.344  14.947  0.4408 -0.1501 -1.0224
 5936TIP3    H139223   2.235   3.353  14.980  0.0425 -1.2914 -1.7414
 5936TIP3    H239224   2.369   3.292  15.013  0.9053  1.3107 -0.1297
 5937TIP3   OH239225   2.004   0.087  12.968 -0.4396 -0.2789 -0.3788
 5937TIP3    H139226   1.971   0.037  12.893  0.7896 -1.7415 -0.0088
 5937TIP3    H239227   2.099   0.086  12.957 -0.3581  1.8139 -0.1945
 5938TIP3   OH239228   5.759   0.382  12.560  0.0180 -0.2728 -0.3106
 5938TIP3    H139229   5.818   0.394  12.485 -0.2057 -0.6964 -0.5606
 5938TIP3    H239230   5.683   0.435  12.539  0.6194  0.8917  0.3696
 5939TIP3   OH239231   0.887   4.362   1.974  0.0454 -0.4436 -0.6032
 5939TIP3    H139232   0.955   4.334   1.913  0.4846 -1.1572  0.1924
 5939TIP3    H239233   0.846   4.280   2.003 -0.9268 -0.0412 -0.8063
 5940TIP3   OH239234   5.238   3.726   0.839  0.0174 -0.5079  0.6097
 5940TIP3    H139235   5.237   3.639   0.799  0.0289 -0.0022 -0.5593
 5940TIP3    H239236   5.190   3.716   0.921 -0.5212 -1.4809  0.1930
 5941TIP3   OH239237   5.357   5.213  11.724 -0.3293  0.8735  0.1542
 5941TIP3    H139238   5.319   5.126  11.732 -0.7034  1.1729  2.4674
 5941TIP3    H239239   5.422   5.205  11.655 -0.1317 -1.3161  0.5312
 5942TIP3   OH239240   0.655   0.562   5.113 -0.0235  0.2644 -0.3385
 5942TIP3    H139241   0.623   0.535   5.027 -0.8836  0.8603 -0.2173
 5942TIP3    H239242   0.692   0.649   5.098  0.9063 -0.1218 -0.3323
 5943TIP3   OH239243   6.176   0.834   3.871  0.6511  0.3107  0.7283
 5943TIP3    H139244   6.227   0.904   3.913  3.5797 -0.9546 -0.4798
 5943TIP3    H239245   6.149   0.778   3.943  2.7796 -0.0685  1.3040
 5944TIP3   OH239246   4.821   1.700  12.119 -0.2621  0.4698 -0.1160
 5944TIP3    H139247   4.827   1.605  12.103 -0.1066  0.4099  0.2867
 5944TIP3    H239248   4.892   1.737  12.067  0.6182  0.2160  0.8715
 5945TIP3   OH239249   0.098   4.690  14.982  0.4333 -0.1806 -0.2266
 5945TIP3    H139250   0.155   4.647  15.046 -0.4722  0.1342  0.8248
 5945TIP3    H239251   0.009   4.678  15.017  0.1151  2.3974  0.0298
 5946TIP3   OH239252   2.042   6.262  13.911 -0.2895  0.7886  0.1415
 5946TIP3    H139253   2.084   6.183  13.945 -0.0867  0.8818  0.1078
 5946TIP3    H239254   2.111   6.328  13.913 -0.0140  0.5685 -1.2935
 5947TIP3   OH239255   2.217   2.449  14.378 -0.0930 -0.4004 -0.0071
 5947TIP3    H139256   2.227   2.388  14.306 -0.8338 -0.9268  0.3135
 5947TIP3    H239257   2.127   2.435  14.409 -0.2433  0.7651  0.1549
 5948TIP3   OH239258   3.619   5.298  15.754  0.4442  0.6145 -0.2613
 5948TIP3    H139259   3.655   5.340  15.676 -1.1361  1.9900 -0.3085
 5948TIP3    H239260   3.592   5.211  15.724 -0.1525  1.1284 -1.2623
 5949TIP3   OH239261   2.537   1.951  12.704 -0.6067  0.5385  0.0378
 5949TIP3    H139262   2.480   2.026  12.689 -1.8702 -0.5664 -1.0100
 5949TIP3    H239263   2.529   1.899  12.624  0.1527 -0.7602  0.7746
 5950TIP3   OH239264   0.119   0.811  13.372  0.2070 -0.3448  0.0589
 5950TIP3    H139265   0.085   0.724  13.351 -0.6287 -0.0900  0.3236
 5950TIP3    H239266   0.051   0.851  13.426 -1.2348  1.8891 -3.1016
 5951TIP3   OH239267   3.298   4.701  15.152 -0.0521 -0.1793 -0.7691
 5951TIP3    H139268   3.256   4.618  15.175 -0.5416 -0.2203 -1.7770
 5951TIP3    H239269   3.389   4.679  15.135  0.3415 -0.1510  1.0675
 5952TIP3   OH239270   3.392   3.518   2.293 -0.3900  0.0807  0.7898
 5952TIP3    H139271   3.450   3.594   2.289 -1.4136  0.8389 -0.6189
 5952TIP3    H239272   3.400   3.486   2.383 -0.3415  2.1924  1.6018
 5953TIP3   OH239273   1.112   4.456   6.526  0.2339 -0.2359 -0.1813
 5953TIP3    H139274   1.030   4.415   6.499 -0.5214  1.6543 -0.8922
 5953TIP3    H239275   1.112   4.449   6.621 -1.5413  1.0707 -0.0289
 5954TIP3   OH239276   3.590   6.531  16.273  0.1673  0.3949 -0.2666
 5954TIP3    H139277   3.516   6.580  16.308  0.1597  0.8717 -0.9207
 5954TIP3    H239278   3.550   6.455  16.231  0.0193  0.7737 -0.8256
 5955TIP3   OH239279   2.728   5.819  12.298 -0.2938 -0.1353  0.0812
 5955TIP3    H139280   2.633   5.822  12.300 -0.2827  0.0909  0.3112
 5955TIP3    H239281   2.754   5.821  12.391 -0.1026 -1.4829  0.0774
 5956TIP3   OH239282   3.560   5.360   5.158  0.4737 -0.4932 -0.0671
 5956TIP3    H139283   3.473   5.372   5.195  0.7548  0.9991  0.1490
 5956TIP3    H239284   3.618   5.352   5.233  0.8474  1.0584 -0.1735
 5957TIP3   OH239285   6.101   3.861   3.514  0.0188 -0.2822  0.3684
 5957TIP3    H139286   6.142   3.931   3.565 -0.3405 -0.0637  0.3571
 5957TIP3    H239287   6.019   3.899   3.481  0.7368 -0.0535 -1.2705
 5958TIP3   OH239288   4.823   3.110   3.331 -0.2260  0.4549  0.0995
 5958TIP3    H139289   4.729   3.100   3.318 -0.2879  1.1250 -0.0139
 5958TIP3    H239290   4.837   3.089   3.424 -0.2590 -1.1082 -0.2267
 5959TIP3   OH239291   3.206   6.350  11.840 -0.0756 -0.1434  0.8765
 5959TIP3    H139292   3.277   6.302  11.797  0.8841  1.5561  0.4498
 5959TIP3    H239293   3.182   6.417  11.776 -0.8915  0.3712  1.7072
 5960TIP3   OH239294   3.229   3.907   5.952  0.4638 -0.4291 -0.8254
 5960TIP3    H139295   3.233   3.864   5.867  1.3396 -0.6172 -0.6981
 5960TIP3    H239296   3.209   3.999   5.932 -0.0436 -0.6149 -1.1835
 5961TIP3   OH239297   1.078   4.757  12.267  0.0430 -0.6445  0.0054
 5961TIP3    H139298   1.120   4.673  12.285  0.7028 -0.8936 -2.4151
 5961TIP3    H239299   0.991   4.734  12.236  0.0801 -0.4165 -0.2701
 5962TIP3   OH239300   3.303   6.045   5.625  0.3246  0.4985 -0.1161
 5962TIP3    H139301   3.325   6.128   5.667  0.5352 -0.0411  0.8840
 5962TIP3    H239302   3.283   5.986   5.698 -1.0173 -0.0046 -0.8456
 5963TIP3   OH239303   3.999   4.402  14.664  0.2796  0.3866 -0.5297
 5963TIP3    H139304   4.009   4.485  14.710  1.7496 -0.9432  1.7484
 5963TIP3    H239305   4.088   4.373  14.647 -0.0650 -1.8323  0.9776
 5964TIP3   OH239306   2.644   0.658   1.685  0.4388  0.1750  0.4437
 5964TIP3    H139307   2.676   0.623   1.768  1.3176  1.5661  0.7215
 5964TIP3    H239308   2.614   0.746   1.705 -1.3063 -0.1928 -0.3284
 5965TIP3   OH239309   5.176   0.305   2.540  0.5008  0.0328 -0.4066
 5965TIP3    H139310   5.157   0.397   2.557 -0.5015 -0.3243  0.6283
 5965TIP3    H239311   5.135   0.259   2.614  2.7182 -1.1036  0.1919
 5966TIP3   OH239312   1.171   2.497  15.328  0.2797 -0.4754  0.8869
 5966TIP3    H139313   1.095   2.439  15.335  0.2535 -0.4819  0.5204
 5966TIP3    H239314   1.138   2.577  15.289  0.1996  0.0123  1.9116
 5967TIP3   OH239315   3.716   4.260  13.136  0.3101 -0.1902  0.5062
 5967TIP3    H139316   3.710   4.269  13.041 -1.6784  2.1637  0.7362
 5967TIP3    H239317   3.649   4.196  13.159 -1.9040  1.9675  0.4997
 5968TIP3   OH239318   5.889   2.665  11.548 -0.3019 -0.6608  0.1307
 5968TIP3    H139319   5.899   2.632  11.638 -2.4050 -1.5949  0.0917
 5968TIP3    H239320   5.937   2.601  11.494 -0.4433 -1.0548  0.4622
 5969TIP3   OH239321   5.585   1.052  12.608  0.3883  0.0774 -0.6116
 5969TIP3    H139322   5.511   1.111  12.601 -0.3654 -0.8948 -1.0748
 5969TIP3    H239323   5.631   1.061  12.524 -0.6356 -1.1514 -1.3305
 5970TIP3   OH239324   2.001   1.186  14.731  0.1532  0.1351 -0.6748
 5970TIP3    H139325   1.922   1.133  14.725 -0.3719  0.6993  0.6992
 5970TIP3    H239326   1.972   1.275  14.708  0.2580  0.4318  0.2820
 5971TIP3   OH239327   6.324   6.032   4.288  0.5251 -0.3787  0.1018
 5971TIP3    H139328   6.263   5.982   4.234  0.8706  0.2238 -0.8640
 5971TIP3    H239329   6.270   6.066   4.359  0.0980 -1.3185  0.2429
 5972TIP3   OH239330   0.227   1.192   2.411  0.3879  0.1859 -0.3214
 5972TIP3    H139331   0.149   1.235   2.448  0.8046  0.2708  0.4968
 5972TIP3    H239332   0.215   1.099   2.433 -0.4122 -0.1159 -1.9073
 5973TIP3   OH239333   2.108   0.283   5.444 -0.1066  0.5485 -0.0866
 5973TIP3    H139334   2.055   0.355   5.478 -0.3482  0.0248  0.6575
 5973TIP3    H239335   2.117   0.223   5.517 -0.3080 -0.4181 -0.8336
 5974TIP3   OH239336   1.342   5.293   0.778 -0.0274  0.6502 -0.5363
 5974TIP3    H139337   1.293   5.362   0.733  0.0672  0.8264 -0.3708
 5974TIP3    H239338   1.275   5.237   0.817 -0.3782 -2.0059 -4.3902
 5975TIP3   OH239339   0.787   0.632  14.989  0.3719  0.1087  0.1141
 5975TIP3    H139340   0.733   0.602  14.916 -0.1035  0.5595  0.2786
 5975TIP3    H239341   0.728   0.684  15.043  0.7512 -0.1219  0.7618
 5976TIP3   OH239342   0.841   3.539   3.095  0.2489 -0.3159 -0.4440
 5976TIP3    H139343   0.853   3.481   3.019 -0.7524  0.7255 -1.4376
 5976TIP3    H239344   0.746   3.553   3.099  0.5663  2.6528 -1.3370
 5977TIP3   OH239345   6.286   3.506  13.098  0.5270 -0.7161 -0.0667
 5977TIP3    H139346   6.303   3.435  13.160  1.4499 -0.4786 -0.0339
 5977TIP3    H239347   6.270   3.461  13.014  2.3282 -0.9568 -0.3257
 5978TIP3   OH239348   1.530   4.217  15.131 -0.0866  0.4338 -0.1652
 5978TIP3    H139349   1.569   4.130  15.135  0.0265  0.5214  0.7640
 5978TIP3    H239350   1.593   4.274  15.175  0.5608  1.2778 -2.0727
 5979TIP3   OH239351   1.089   5.317  16.933  0.2369  0.2276  0.1603
 5979TIP3    H139352   1.101   5.346  16.843 -2.1123 -1.5654 -0.8635
 5979TIP3    H239353   1.151   5.245  16.944  0.7009  0.6138  0.0492
 5980TIP3   OH239354   5.217   4.351  12.684  0.1001  0.2029 -0.0356
 5980TIP3    H139355   5.193   4.381  12.596 -1.2358 -1.4505 -0.2826
 5980TIP3    H239356   5.265   4.425  12.721 -2.0292  2.2293 -0.9880
 5981TIP3   OH239357   2.066   1.384   3.306  0.4231 -0.1445  0.3007
 5981TIP3    H139358   2.142   1.336   3.272  1.2434  1.6064 -0.5072
 5981TIP3    H239359   2.047   1.449   3.238 -0.2608  1.0362  1.5670
 5982TIP3   OH239360   3.273   6.688  15.511 -0.2997  0.3706  0.2059
 5982TIP3    H139361   3.197   6.630  15.510  1.1992 -1.7360 -0.6277
 5982TIP3    H239362   3.300   6.692  15.419  1.3939 -0.1005  0.6522
 5983TIP3   OH239363   5.114   0.576  16.522  0.3461  0.4359  0.7278
 5983TIP3    H139364   5.115   0.568  16.427 -0.2590  0.3543  0.7248
 5983TIP3    H239365   5.204   0.555  16.549  0.2299 -0.7615  0.2688
 5984TIP3   OH239366   4.193   4.126  11.375 -0.5726 -0.1492 -0.5174
 5984TIP3    H139367   4.159   4.039  11.396 -0.8962  0.1652  0.3147
 5984TIP3    H239368   4.249   4.112  11.299 -0.0980 -1.1951  0.0016
 5985TIP3   OH239369   3.446   2.944  10.705  0.6510  0.1843  0.0462
 5985TIP3    H139370   3.527   2.965  10.659  1.5640 -1.1428  0.9575
 5985TIP3    H239371   3.453   2.851  10.725  1.1890  0.9679  4.4045
 5986TIP3   OH239372   4.779   1.905  13.202  0.1202  0.0794  0.5442
 5986TIP3    H139373   4.716   1.844  13.164  1.4887 -1.5030  0.7024
 5986TIP3    H239374   4.732   1.947  13.274 -1.8991  1.7010 -1.5503
 5987TIP3   OH239375   0.309   3.995  16.160 -0.4139 -0.3910  0.5114
 5987TIP3    H139376   0.285   4.001  16.067  1.8502 -1.3857 -0.2050
 5987TIP3    H239377   0.327   4.086  16.186 -1.6624 -0.0332  0.1674
 5988TIP3   OH239378   4.085   5.549   0.316 -0.2590  0.8348  0.0277
 5988TIP3    H139379   4.154   5.614   0.324 -0.6559  1.4204 -1.1044
 5988TIP3    H239380   4.106   5.501   0.236  0.7230 -1.3095  1.4702
 5989TIP3   OH239381   4.038   3.179  11.305  0.7577 -0.0539 -0.7580
 5989TIP3    H139382   4.129   3.152  11.298  0.9863  0.9583 -1.9798
 5989TIP3    H239383   3.991   3.120  11.246  0.2247 -2.0147  1.4468
 5990TIP3   OH239384   2.838   0.432  14.257  0.0290  0.0117  0.3477
 5990TIP3    H139385   2.803   0.448  14.344 -2.1476  2.8187 -0.8593
 5990TIP3    H239386   2.912   0.493  14.249 -0.0842  0.1129  0.0660
 5991TIP3   OH239387   1.665   1.730  13.492 -0.2835 -0.0367  0.9744
 5991TIP3    H139388   1.722   1.704  13.420  0.4931  0.1451  1.5023
 5991TIP3    H239389   1.597   1.783  13.452 -1.7630 -2.5721 -0.1192
 5992TIP3   OH239390   3.871   0.281  11.672 -0.6217  0.1786 -0.1474
 5992TIP3    H139391   3.859   0.211  11.736  1.0593 -0.3705 -0.3919
 5992TIP3    H239392   3.816   0.353  11.705 -0.0005 -0.1728  1.7782
 5993TIP3   OH239393   5.653   5.880  11.680 -0.9044  0.2263  0.0593
 5993TIP3    H139394   5.659   5.879  11.585 -0.2999  1.1229  0.0751
 5993TIP3    H239395   5.623   5.968  11.702 -1.3319 -0.0659  0.6878
 5994TIP3   OH239396   4.790   3.174  11.555  0.0752  0.0924 -0.2644
 5994TIP3    H139397   4.809   3.082  11.539  0.9811  0.1911  0.1544
 5994TIP3    H239398   4.856   3.221  11.503  0.3039  0.4812  0.3706
 5995TIP3   OH239399   1.252   1.808  16.471 -0.3622  0.0518 -0.0664
 5995TIP3    H139400   1.292   1.749  16.406 -1.1224 -0.6386  0.0702
 5995TIP3    H239401   1.166   1.769  16.488 -0.6181  0.8551  0.5176
 5996TIP3   OH239402   3.595   0.687   5.828  0.1327  1.0434 -0.3587
 5996TIP3    H139403   3.530   0.687   5.758  0.1587 -0.7487 -0.4323
 5996TIP3    H239404   3.660   0.621   5.801  1.2423  1.7892  0.3810
 5997TIP3   OH239405   4.226   1.705   5.925  0.6641 -0.2676 -0.3034
 5997TIP3    H139406   4.162   1.735   5.860 -0.7945  0.7245  1.5204
 5997TIP3    H239407   4.176   1.694   6.005  2.5661 -0.6758  0.8872
 5998TIP3   OH239408   6.686   1.905   3.440 -0.3670  0.1511 -0.2238
 5998TIP3    H139409   6.706   1.864   3.524 -1.5013 -0.0532 -0.0417
 5998TIP3    H239410   6.592   1.918   3.441 -0.2787  0.9810 -1.0993
 5999TIP3   OH239411   4.951   2.225  11.412  0.4015  0.9563 -0.0721
 5999TIP3    H139412   5.014   2.155  11.394  1.5798  1.8441  0.4451
 5999TIP3    H239413   4.923   2.254  11.326  0.9663  0.7650 -0.3280
 6000TIP3   OH239414   1.102   0.806  11.296 -0.3896 -0.2936 -0.0485
 6000TIP3    H139415   1.131   0.756  11.371 -2.1576  0.2290  1.0404
 6000TIP3    H239416   1.006   0.806  11.302 -0.6868 -1.3522 -3.0462
 6001TIP3   OH239417   3.984   5.134  15.172  0.0694  0.2354  0.4434
 6001TIP3    H139418   3.895   5.155  15.202  0.0668 -0.6112  1.0679
 6001TIP3    H239419   4.032   5.216  15.182 -0.4508  0.5014  0.8516
 6002TIP3   OH239420   2.978   5.461   3.278 -0.5358  0.1338  0.4438
 6002TIP3    H139421   2.974   5.417   3.193  1.0804 -3.2007  1.9004
 6002TIP3    H239422   3.044   5.530   3.265  0.9416 -1.3836 -0.6662
 6003TIP3   OH239423   5.300   4.570   4.077  0.2229  0.5413 -0.4308
 6003TIP3    H139424   5.372   4.633   4.072 -0.9565  2.1599  1.4348
 6003TIP3    H239425   5.228   4.612   4.030 -0.6549  0.7633  1.0508
 6004TIP3   OH239426   0.899   4.545  13.848 -0.6099 -0.0933  1.0612
 6004TIP3    H139427   0.929   4.497  13.770 -0.0122  1.5903  0.2106
 6004TIP3    H239428   0.916   4.637  13.827 -1.6690  0.4977  2.6662
 6005TIP3   OH239429   0.916   4.384  16.234  0.3146 -0.2823 -0.0338
 6005TIP3    H139430   0.893   4.292  16.223  2.0383 -1.1558  2.5976
 6005TIP3    H239431   0.981   4.402  16.167  0.2271 -1.0863 -0.3387
 6006TIP3   OH239432   2.317   4.518  12.035 -0.6478  0.4320 -0.1496
 6006TIP3    H139433   2.374   4.540  12.109 -0.0413 -0.4796 -0.3261
 6006TIP3    H239434   2.336   4.585  11.970 -0.9485  1.0553  0.4009
 6007TIP3   OH239435   5.869   6.316  12.598  0.7411  0.0705 -0.6328
 6007TIP3    H139436   5.882   6.320  12.693 -2.6979 -0.0148 -0.0613
 6007TIP3    H239437   5.905   6.230  12.574 -1.2786 -1.4009  1.2138
 6008TIP3   OH239438   2.153   1.637  16.206 -0.2276  0.6042 -0.3571
 6008TIP3    H139439   2.224   1.638  16.142  0.9689  1.5019  0.9420
 6008TIP3    H239440   2.156   1.723  16.247  0.2249 -0.5297  2.1618
 6009TIP3   OH239441   0.086   0.160  11.690  0.0864  0.2849 -0.1321
 6009TIP3    H139442   0.028   0.235  11.704  0.5474  0.7843 -0.8773
 6009TIP3    H239443   0.142   0.186  11.617  1.4998 -0.0547  0.8012
 6010TIP3   OH239444   1.739   5.650   4.147 -0.3612 -0.2726 -0.1962
 6010TIP3    H139445   1.701   5.563   4.154 -0.8836  0.0117  0.6286
 6010TIP3    H239446   1.765   5.657   4.055  0.3926 -1.5774 -0.1049
 6011TIP3   OH239447   5.222   5.063   4.405 -0.1248 -0.9170 -0.1293
 6011TIP3    H139448   5.279   5.139   4.414 -0.4043 -0.6514 -0.5235
 6011TIP3    H239449   5.233   5.036   4.314  1.6838 -2.7479  0.5514
 6012TIP3   OH239450   0.412   1.980  13.110  0.5385  0.3076  0.1244
 6012TIP3    H139451   0.317   1.988  13.103  0.5194  0.9819  1.0300
 6012TIP3    H239452   0.443   2.071  13.109  0.9992  0.2098  1.9792
 6013TIP3   OH239453   5.294   5.167  10.762  0.0189 -0.2153 -0.6014
 6013TIP3    H139454   5.346   5.205  10.691 -1.3317  0.1010 -1.4586
 6013TIP3    H239455   5.351   5.102  10.802  2.4878  2.6988  0.9834
 6014TIP3   OH239456   6.061   5.170  12.447 -0.6129  0.3192  0.1877
 6014TIP3    H139457   6.004   5.214  12.384 -0.0862  0.9245  0.1257
 6014TIP3    H239458   6.123   5.238  12.474  0.7177 -0.5799 -0.5009
 6015TIP3   OH239459   2.547   5.611  10.304  0.2180 -0.4438  0.1731
 6015TIP3    H139460   2.520   5.645  10.389  0.7203 -1.4096  0.7324
 6015TIP3    H239461   2.634   5.574  10.319 -0.1851 -1.7122 -0.4685
 6016TIP3   OH239462   3.289   5.191  14.962 -0.1269 -0.3215  0.6764
 6016TIP3    H139463   3.200   5.156  14.965 -0.2152 -0.0591  1.3017
 6016TIP3    H239464   3.334   5.151  15.036  1.2150 -2.8196 -1.3188
 6017TIP3   OH239465   1.358   4.775   2.476 -0.0695 -0.2710 -0.4481
 6017TIP3    H139466   1.389   4.709   2.415 -0.0704 -1.6212  0.9447
 6017TIP3    H239467   1.371   4.858   2.430  2.8573 -0.9526 -1.1085
 6018TIP3   OH239468   4.095   5.386  13.751 -0.0099  0.2096 -0.5942
 6018TIP3    H139469   4.141   5.462  13.716  0.4232  0.9096  1.3862
 6018TIP3    H239470   4.038   5.421  13.820 -1.0899 -1.0611 -0.7803
 6019TIP3   OH239471   6.016   2.357  12.247 -0.8567  0.0846 -0.4891
 6019TIP3    H139472   6.104   2.349  12.284 -1.2634  0.6359  0.6541
 6019TIP3    H239473   6.022   2.315  12.161  0.8604  1.2810 -1.0110
 6020TIP3   OH239474   3.517   5.744   1.545 -0.1148  0.0959 -0.5153
 6020TIP3    H139475   3.560   5.666   1.580  1.2708  1.6436  1.4930
 6020TIP3    H239476   3.544   5.747   1.453 -2.2402 -3.0536 -1.3925
 6021TIP3   OH239477   6.795   1.712  16.062  1.0372 -0.1848 -0.3253
 6021TIP3    H139478   6.883   1.750  16.052  1.3057 -0.7813 -0.2656
 6021TIP3    H239479   6.789   1.647  15.993  1.3736 -1.4869  0.8195
 6022TIP3   OH239480   0.522   4.626   1.071  0.1989 -0.2240 -0.9311
 6022TIP3    H139481   0.599   4.675   1.044 -0.1137  1.3718  0.8365
 6022TIP3    H239482   0.552   4.572   1.144 -0.5193  1.2591  0.5325
 6023TIP3   OH239483   2.424   0.534   2.105  0.4695 -0.0783  0.1210
 6023TIP3    H139484   2.340   0.491   2.120  1.2783 -1.9743 -0.5746
 6023TIP3    H239485   2.475   0.471   2.055  1.3712  2.0810 -1.8715
 6024TIP3   OH239486   6.795   2.682   2.641 -0.0158  0.2182 -0.4706
 6024TIP3    H139487   6.773   2.711   2.729  0.1651 -1.5344  0.1953
 6024TIP3    H239488   6.890   2.693   2.635 -0.2382  2.0273 -1.1280
 6025TIP3   OH239489   4.941   4.889   1.309 -0.0733 -0.1091  0.5114
 6025TIP3    H139490   4.992   4.861   1.233  0.6553  1.7813  0.2456
 6025TIP3    H239491   4.864   4.832   1.309 -0.0862 -0.1594 -1.6295
 6026TIP3   OH239492   0.015   6.036  15.830  0.0960  0.1229  0.0277
 6026TIP3    H139493  -0.074   6.040  15.797 -0.3300 -0.6280  1.0418
 6026TIP3    H239494   0.064   6.097  15.774 -0.9032  0.0496 -0.9551
 6027TIP3   OH239495   0.784   5.449  10.619  0.6694 -0.0458  0.1574
 6027TIP3    H139496   0.862   5.455  10.563 -0.8409  0.2852 -2.0096
 6027TIP3    H239497   0.764   5.356  10.624  0.3942 -0.0209 -0.4628
 6028TIP3   OH239498   3.256   2.454  13.541 -0.2505 -0.6580 -0.4729
 6028TIP3    H139499   3.327   2.442  13.604  0.4019 -1.1491 -1.2900
 6028TIP3    H239500   3.178   2.463  13.596  0.4767  0.3545  0.4616
 6029TIP3   OH239501   4.434   2.876   3.020  0.4108 -0.2055 -0.0180
 6029TIP3    H139502   4.527   2.856   3.014  0.4137 -0.2364  0.1147
 6029TIP3    H239503   4.423   2.956   2.970  0.5188 -0.1732  0.0095
 6030TIP3   OH239504   3.532   5.649  15.724  0.6406 -0.3266 -0.0268
 6030TIP3    H139505   3.487   5.595  15.789  0.2266  0.0661  0.0147
 6030TIP3    H239506   3.541   5.735  15.766  0.6354 -0.1540 -0.3730
 6031TIP3   OH239507   0.083   0.439  11.985 -0.5248 -0.1569 -0.1837
 6031TIP3    H139508   0.125   0.475  11.906 -0.9214  0.0269 -0.3102
 6031TIP3    H239509  -0.011   0.448  11.969 -0.6316  2.0326  1.2857
 6032TIP3   OH239510   6.152   2.816   5.975  0.9802 -0.7885 -0.0638
 6032TIP3    H139511   6.098   2.821   5.897  1.1363 -1.2823 -0.2043
 6032TIP3    H239512   6.227   2.762   5.950  0.8119 -1.3233  0.5495
 6033TIP3   OH239513   1.956   1.590   1.129 -0.1700 -0.6121  0.5903
 6033TIP3    H139514   1.894   1.662   1.137  0.8235  0.1793  1.3862
 6033TIP3    H239515   2.035   1.622   1.172  1.3159 -0.9796 -1.7115
 6034TIP3   OH239516   1.681   0.009  11.501  0.5434  1.1158  0.2995
 6034TIP3    H139517   1.752  -0.026  11.555  1.1502  1.4582 -0.2672
 6034TIP3    H239518   1.723   0.033  11.419 -0.8162 -2.0956 -1.5220
 6035TIP3   OH239519   0.955   1.254   0.713  0.5082  0.0348  0.0406
 6035TIP3    H139520   0.997   1.200   0.781  0.4638 -0.1731 -0.0942
 6035TIP3    H239521   1.026   1.306   0.676  0.3659  0.8973  0.9314
 6036TIP3   OH239522   1.750   6.246   2.939  0.4030  0.1507  0.6745
 6036TIP3    H139523   1.749   6.331   2.982  0.8592 -0.1396  1.2627
 6036TIP3    H239524   1.833   6.206   2.965 -0.1667 -0.8142  1.0741
 6037TIP3   OH239525   6.133   4.529  17.033  0.0376 -0.9206  0.5564
 6037TIP3    H139526   6.073   4.458  17.057 -0.8125  0.2393  2.0138
 6037TIP3    H239527   6.077   4.604  17.015  0.8640 -0.8262 -1.9920
 6038TIP3   OH239528   3.799   6.771   0.545 -0.2134  0.0898 -0.3649
 6038TIP3    H139529   3.744   6.692   0.544  0.8238 -0.7172  1.2775
 6038TIP3    H239530   3.865   6.755   0.477 -1.0279  0.3397 -1.2301
 6039TIP3   OH239531   0.330   2.310   1.819 -0.8946 -0.6735  0.3355
 6039TIP3    H139532   0.418   2.317   1.781 -1.0559 -0.9064 -0.0835
 6039TIP3    H239533   0.330   2.375   1.890  0.0787 -1.6204  1.2350
 6040TIP3   OH239534   4.550   4.046  16.374 -0.0268  0.4496 -0.1150
 6040TIP3    H139535   4.528   3.963  16.416 -1.0009  0.9905  0.4840
 6040TIP3    H239536   4.529   4.112  16.439  1.1932  1.1557 -0.4083
 6041TIP3   OH239537   2.290   1.743   5.774 -0.4228 -0.0523  0.0471
 6041TIP3    H139538   2.316   1.751   5.866 -0.9145 -0.7259  0.2503
 6041TIP3    H239539   2.344   1.808   5.728 -0.5883  0.6980  0.8913
 6042TIP3   OH239540   6.352   2.035   2.184  0.1082 -0.1762  0.5958
 6042TIP3    H139541   6.372   2.016   2.276  0.5100  0.0683  0.5607
 6042TIP3    H239542   6.268   1.992   2.169 -1.0066  1.4991  1.6568
 6043TIP3   OH239543   0.329   0.272  14.404 -0.1573  0.9959 -0.1899
 6043TIP3    H139544   0.363   0.350  14.358 -0.3121  1.2954  0.2038
 6043TIP3    H239545   0.390   0.202  14.379  1.4671  1.7603  1.4227
 6044TIP3   OH239546   2.772   1.110   1.702  0.0154  0.1541  0.2760
 6044TIP3    H139547   2.731   1.190   1.669  0.0482 -0.5966 -1.7248
 6044TIP3    H239548   2.865   1.123   1.689 -0.0166 -0.4130 -0.5786
 6045TIP3   OH239549   1.470   0.532  11.017 -0.5755  0.0062 -0.3002
 6045TIP3    H139550   1.503   0.562  10.933  0.4815  1.2978  0.5234
 6045TIP3    H239551   1.463   0.612  11.070  0.8924 -0.9776  1.5113
 6046TIP3   OH239552   0.792   0.822  14.084 -0.2953 -0.6194 -0.0969
 6046TIP3    H139553   0.769   0.906  14.122  0.3395 -1.2735  1.8697
 6046TIP3    H239554   0.749   0.757  14.140 -0.7566 -1.6311 -1.5491
 6047TIP3   OH239555   2.525   0.689  14.328 -0.5301 -0.3702  0.8134
 6047TIP3    H139556   2.489   0.628  14.392  0.2878 -0.4597  1.1966
 6047TIP3    H239557   2.456   0.698  14.262  0.2472 -3.7849 -0.6811
 6048TIP3   OH239558   4.959   3.073  12.604  0.4544  0.1514 -0.5155
 6048TIP3    H139559   4.976   3.110  12.691 -2.2458  1.6599 -0.5342
 6048TIP3    H239560   5.023   3.118  12.547  1.3564  0.1386  0.4569
 6049TIP3   OH239561   6.199   0.135   6.196 -0.2543  0.1077 -0.0826
 6049TIP3    H139562   6.104   0.151   6.194  0.1542  3.2554  0.3996
 6049TIP3    H239563   6.217   0.113   6.288 -0.1923  2.8240  0.6448
 6050TIP3   OH239564   0.255   5.837   2.444  0.1222  0.7331 -0.0455
 6050TIP3    H139565   0.339   5.790   2.448  0.2637  0.9269 -0.6786
 6050TIP3    H239566   0.237   5.847   2.350 -2.0436 -1.8719 -0.0382
 6051TIP3   OH239567   0.180   2.021   5.416  0.3343  0.0864  0.4489
 6051TIP3    H139568   0.128   1.946   5.387 -0.2709  0.0688  1.5281
 6051TIP3    H239569   0.266   1.984   5.436 -0.0299 -0.3784  1.2036
 6052TIP3   OH239570   4.468   1.905   1.392 -0.1705  0.2081  0.0187
 6052TIP3    H139571   4.503   1.991   1.367  0.6758  0.0146  0.5159
 6052TIP3    H239572   4.505   1.888   1.479 -0.3275 -0.6628 -0.0781
 6053TIP3   OH239573   0.780   0.207  14.935  0.3152  1.2559 -0.0922
 6053TIP3    H139574   0.773   0.123  14.890  2.5015  1.6105 -1.2365
 6053TIP3    H239575   0.697   0.217  14.980  0.6553 -2.4141  1.7113
 6054TIP3   OH239576   4.070   4.904   4.558  0.0290 -0.3563  0.4157
 6054TIP3    H139577   4.040   4.887   4.647  1.0526 -0.2673  0.7934
 6054TIP3    H239578   4.032   4.988   4.535  0.4972  0.0631  1.1264
 6055TIP3   OH239579   1.055   2.708   2.607  0.6284 -0.1217 -0.3917
 6055TIP3    H139580   0.996   2.692   2.680  1.0334  0.4751  0.0760
 6055TIP3    H239581   1.041   2.635   2.547  0.1961 -0.5393  0.2209
 6056TIP3   OH239582   4.316   5.673   0.433  0.3894 -0.2763 -0.3355
 6056TIP3    H139583   4.347   5.639   0.350 -0.5852 -1.2467 -0.3236
 6056TIP3    H239584   4.391   5.664   0.492  1.4394  1.4280 -1.3434
 6057TIP3   OH239585   4.114   6.300   1.387 -0.7708  0.0097  0.0157
 6057TIP3    H139586   4.107   6.207   1.365 -1.7972  0.2290 -0.6579
 6057TIP3    H239587   4.125   6.303   1.482 -0.2924 -0.8099 -0.0093
 6058TIP3   OH239588   2.397   3.349  13.253 -0.2779  0.3999  0.5708
 6058TIP3    H139589   2.459   3.322  13.186 -0.9829 -0.7924  0.3813
 6058TIP3    H239590   2.450   3.356  13.333  0.3266  0.6230  0.1633
 6059TIP3   OH239591   4.247   0.828  15.317 -0.3966 -0.7282  0.4703
 6059TIP3    H139592   4.206   0.749  15.281  0.8468 -0.7671 -0.9369
 6059TIP3    H239593   4.184   0.859  15.382 -2.6376 -0.8265 -1.5142
 6060TIP3   OH239594   6.410   2.229   3.630  0.4278  0.3463 -0.0450
 6060TIP3    H139595   6.334   2.176   3.656 -0.7588  1.8643 -0.2824
 6060TIP3    H239596   6.486   2.178   3.659 -0.6278 -1.6493 -0.6022
 6061TIP3   OH239597   0.785   1.989   0.034 -0.0901  0.6696  0.4465
 6061TIP3    H139598   0.774   1.994  -0.061  0.5816 -0.7832  0.2539
 6061TIP3    H239599   0.707   1.942   0.065 -0.0274  0.6172  0.5263
 6062TIP3   OH239600   3.377   3.177  11.204 -0.5100 -0.2181 -0.1895
 6062TIP3    H139601   3.347   3.086  11.213 -0.8731 -0.2403 -1.5198
 6062TIP3    H239602   3.343   3.221  11.282 -0.1393 -1.2660  0.5889
 6063TIP3   OH239603   0.757   6.522   5.410 -0.0652 -0.0749 -0.3885
 6063TIP3    H139604   0.737   6.612   5.438 -2.3124 -1.0525  1.5030
 6063TIP3    H239605   0.852   6.520   5.403  0.0226  2.6836 -1.4773
 6064TIP3   OH239606   2.493   2.993  14.949  0.0745  0.1722 -0.3639
 6064TIP3    H139607   2.489   3.060  15.017 -3.4000 -2.3353  2.2449
 6064TIP3    H239608   2.421   3.015  14.890  1.1221  0.5714 -1.5463
 6065TIP3   OH239609   4.295   6.376   4.572  0.0645  0.2640  0.0437
 6065TIP3    H139610   4.355   6.356   4.501 -1.2800 -0.8495 -0.8219
 6065TIP3    H239611   4.302   6.302   4.632  0.2915  0.6161  0.4592
 6066TIP3   OH239612   4.200   5.459   3.198 -0.0381 -0.1479 -0.2501
 6066TIP3    H139613   4.201   5.526   3.129  0.6315 -0.5490 -0.6439
 6066TIP3    H239614   4.113   5.466   3.237 -0.5733 -0.1649 -1.3985
 6067TIP3   OH239615   2.555   5.636  12.933 -0.4689  0.2697  0.0432
 6067TIP3    H139616   2.616   5.567  12.907 -0.3116 -0.5160  2.3109
 6067TIP3    H239617   2.596   5.717  12.903 -0.0893 -0.4933 -1.6365
 6068TIP3   OH239618   3.913   1.472   3.415 -0.2217 -0.7141  0.5065
 6068TIP3    H139619   3.897   1.557   3.457 -1.1200 -0.6819  0.1006
 6068TIP3    H239620   4.009   1.466   3.410 -0.1559  0.4051  0.2640
 6069TIP3   OH239621   0.027   4.194  14.343  0.0817  0.4874 -0.2404
 6069TIP3    H139622   0.076   4.273  14.323 -0.4332  0.4724 -1.6832
 6069TIP3    H239623   0.082   4.122  14.311  0.6939  0.2105  1.3508
 6070TIP3   OH239624   0.537   0.393   3.453 -0.0789  0.4157  0.1415
 6070TIP3    H139625   0.606   0.447   3.414  0.3628  0.3397  0.8105
 6070TIP3    H239626   0.465   0.398   3.390  1.3957 -1.5680 -1.8613
 6071TIP3   OH239627   4.212   4.775  16.721  0.3485 -0.0285 -0.3599
 6071TIP3    H139628   4.177   4.844  16.778 -0.5116 -0.8971  0.1987
 6071TIP3    H239629   4.192   4.805  16.632  0.9688  0.9566 -0.1836
 6072TIP3   OH239630   2.380   5.414  15.148  0.4728 -0.1906 -0.6278
 6072TIP3    H139631   2.315   5.484  15.156  2.5552  1.7375  0.9928
 6072TIP3    H239632   2.382   5.393  15.054 -1.8957  0.1940 -0.8142
 6073TIP3   OH239633   4.517   5.332   5.020 -0.1286  0.1591 -0.5655
 6073TIP3    H139634   4.435   5.290   4.994 -0.1604 -1.0137  1.2847
 6073TIP3    H239635   4.585   5.266   5.002  0.3348  0.8033 -1.2723
 6074TIP3   OH239636   0.915   3.534   5.323  0.2077  0.0307 -0.4033
 6074TIP3    H139637   0.906   3.598   5.393 -1.0513  0.3507 -0.8398
 6074TIP3    H239638   1.007   3.506   5.328  0.3859  0.7590  0.7367
 6075TIP3   OH239639   4.590   5.596  17.040  0.5217 -0.5522  0.3401
 6075TIP3    H139640   4.602   5.688  17.017  3.0255 -0.6533  0.9833
 6075TIP3    H239641   4.495   5.586  17.052  0.0630  1.5978 -1.0044
 6076TIP3   OH239642   3.938   4.215   5.292 -0.4020 -0.5375  0.1590
 6076TIP3    H139643   3.859   4.163   5.278 -1.2962  0.8026  0.0041
 6076TIP3    H239644   3.911   4.284   5.354  0.6111  0.0116  0.0155
 6077TIP3   OH239645   3.638   4.551  13.044 -0.1520 -0.8363 -0.2305
 6077TIP3    H139646   3.653   4.457  13.043  0.4506 -0.7588 -1.6059
 6077TIP3    H239647   3.621   4.573  12.952  2.7949  0.8152 -0.5271
 6078TIP3   OH239648   2.867   3.192  16.783  0.6087 -0.2908 -0.4351
 6078TIP3    H139649   2.890   3.285  16.775  0.3936 -0.2075 -0.1325
 6078TIP3    H239650   2.777   3.193  16.814 -0.0283 -0.6140 -2.1895
 6079TIP3   OH239651   0.791   3.459   0.250 -0.0057  0.8415 -0.7741
 6079TIP3    H139652   0.752   3.399   0.314 -0.2266  1.6241 -0.1485
 6079TIP3    H239653   0.822   3.532   0.303  3.4110 -0.2480 -1.0765
 6080TIP3   OH239654   2.335   4.761  15.312  0.6803 -0.0651 -0.0461
 6080TIP3    H139655   2.411   4.704  15.299  0.2303 -0.8812  0.7231
 6080TIP3    H239656   2.342   4.789  15.403  0.7866  0.9691 -0.3639
 6081TIP3   OH239657   0.162   2.368   0.115 -0.5111  0.4775 -0.7528
 6081TIP3    H139658   0.078   2.353   0.158  0.4223 -0.3983  0.8489
 6081TIP3    H239659   0.208   2.429   0.173  0.9368 -1.0252 -0.2438
 6082TIP3   OH239660   4.362   3.724  13.593  0.2164  0.6540  0.4201
 6082TIP3    H139661   4.340   3.641  13.635  1.7571  0.3228  0.6294
 6082TIP3    H239662   4.284   3.746  13.541 -1.1268  0.2899  2.1795
 6083TIP3   OH239663   5.045   4.552  15.531 -0.3538  0.0526  0.0795
 6083TIP3    H139664   5.053   4.464  15.567  0.4849  0.2329  0.3807
 6083TIP3    H239665   5.059   4.542  15.437 -1.5356 -0.2899 -0.0731
 6084TIP3   OH239666   5.576   1.415  16.082  0.3045  0.5825 -0.0161
 6084TIP3    H139667   5.593   1.503  16.117 -0.8463  1.3587 -1.2973
 6084TIP3    H239668   5.552   1.363  16.159  0.1043  1.6291  0.6541
 6085TIP3   OH239669   0.421   3.620  15.754  0.0926  0.2887 -0.7916
 6085TIP3    H139670   0.492   3.559  15.773 -1.3301 -1.3126 -0.3416
 6085TIP3    H239671   0.460   3.686  15.697  3.0698  1.9452  2.7232
 6086TIP3   OH239672   5.300   0.803   2.155  0.1149  0.2760 -0.5908
 6086TIP3    H139673   5.253   0.869   2.103 -0.7491  0.9032  0.9098
 6086TIP3    H239674   5.231   0.753   2.197  0.7292  1.1267  1.5596
 6087TIP3   OH239675   1.846   0.819   4.859 -0.4094  0.1892 -0.0011
 6087TIP3    H139676   1.768   0.766   4.879  0.9219 -1.5197  0.9077
 6087TIP3    H239677   1.851   0.819   4.764 -1.2120 -0.1300 -0.0572
 6088TIP3   OH239678   0.857   1.552  15.450  0.3898 -0.3682  0.0544
 6088TIP3    H139679   0.784   1.561  15.510 -0.4782 -1.0867 -0.8600
 6088TIP3    H239680   0.826   1.589  15.368 -0.5286 -4.2869 -1.5643
 6089TIP3   OH239681   2.456   3.746  13.330 -0.1287  0.0780 -0.0713
 6089TIP3    H139682   2.390   3.811  13.308 -0.6882  0.2167  1.8483
 6089TIP3    H239683   2.407   3.671  13.363  0.6040 -0.4668 -0.1836
 6090TIP3   OH239684   3.652   1.670  16.484 -0.0589 -0.6111  0.4205
 6090TIP3    H139685   3.624   1.603  16.422 -1.1446  1.1222 -1.0557
 6090TIP3    H239686   3.722   1.628  16.534 -0.4408 -2.7035 -0.6728
 6091TIP3   OH239687   2.751   1.952   4.887 -0.0828 -0.0423 -0.0907
 6091TIP3    H139688   2.774   1.900   4.810  1.1637  1.5585 -0.8626
 6091TIP3    H239689   2.657   1.939   4.898 -0.0959 -1.1029 -1.2589
 6092TIP3   OH239690   6.195   0.451   2.014 -0.4172  0.1377  0.2169
 6092TIP3    H139691   6.130   0.414   1.954 -0.0529  0.7086 -0.5525
 6092TIP3    H239692   6.147   0.518   2.062 -0.3008  0.8986 -0.6934
 6093TIP3   OH239693   6.610   5.976   2.995 -0.1578  0.2047  0.4508
 6093TIP3    H139694   6.703   5.999   2.984 -0.1395  0.4811  1.1247
 6093TIP3    H239695   6.594   5.987   3.089 -0.2805 -2.1480  0.7492
 6094TIP3   OH239696   3.701   6.482  15.201 -0.0971 -0.0305 -0.6729
 6094TIP3    H139697   3.670   6.547  15.264  0.2257 -0.6287  0.1166
 6094TIP3    H239698   3.796   6.487  15.206 -0.0585  0.2221 -1.4498
 6095TIP3   OH239699   1.126   1.717   5.642  0.2001  0.0087 -0.2064
 6095TIP3    H139700   1.137   1.791   5.583 -1.2375  1.9248  1.7775
 6095TIP3    H239701   1.204   1.663   5.628  0.6856  1.1802 -2.6078
 6096TIP3   OH239702   4.590   4.015   2.811 -0.1698  0.1360  0.1915
 6096TIP3    H139703   4.525   4.081   2.787  2.0741  2.1194 -0.8703
 6096TIP3    H239704   4.577   3.944   2.747 -0.6920  0.9322 -0.6148
 6097TIP3   OH239705   3.200   3.100   3.548 -0.1060 -0.0582  0.1771
 6097TIP3    H139706   3.165   3.170   3.603 -1.6736  0.6738 -1.6262
 6097TIP3    H239707   3.222   3.030   3.609  0.1647  1.4520  1.9033
 6098TIP3   OH239708   0.299   0.627   2.190 -0.1473  0.0570  0.1542
 6098TIP3    H139709   0.373   0.687   2.192 -0.5169  0.5481 -0.5331
 6098TIP3    H239710   0.269   0.627   2.099  0.5653 -2.0702 -0.1473
 6099TIP3   OH239711   3.838   2.323  17.038 -0.1852 -0.0557  0.1470
 6099TIP3    H139712   3.833   2.237  16.997 -0.7377 -0.1776  0.4589
 6099TIP3    H239713   3.762   2.371  17.005  0.1653  0.3488 -0.0915
 6100TIP3   OH239714   1.883   4.633  13.316 -0.2478 -0.5772 -0.0120
 6100TIP3    H139715   1.878   4.727  13.337 -0.0878 -0.2108 -1.4952
 6100TIP3    H239716   1.977   4.617  13.303 -0.4460 -0.3858 -1.9893
 6101TIP3   OH239717   4.369   0.525  10.442  0.1872 -0.1819 -0.1852
 6101TIP3    H139718   4.457   0.489  10.437  0.4139  0.2987  0.2344
 6101TIP3    H239719   4.313   0.449  10.461  0.2704 -0.7739 -2.1053
 6102TIP3   OH239720   2.750   4.634  15.844 -0.0899 -0.2732 -0.4492
 6102TIP3    H139721   2.745   4.554  15.897 -0.1758 -0.4131 -0.6677
 6102TIP3    H239722   2.760   4.704  15.908 -1.2360 -0.3352 -0.1791
 6103TIP3   OH239723   3.683   2.772  12.350 -0.1917 -0.1787 -0.4154
 6103TIP3    H139724   3.633   2.785  12.270 -0.7863  0.9532  0.1217
 6103TIP3    H239725   3.691   2.676  12.358 -1.3972 -0.3457 -1.0299
 6104TIP3   OH239726   2.227   6.046   0.798  0.1089  0.0496  0.3679
 6104TIP3    H139727   2.198   6.128   0.758 -0.2752 -0.5699 -0.6433
 6104TIP3    H239728   2.272   6.073   0.878 -3.3709  1.1028  2.1760
 6105TIP3   OH239729   6.408   3.329  13.880 -0.2249  0.2552  0.2713
 6105TIP3    H139730   6.436   3.373  13.960  0.9948 -0.8850  0.5143
 6105TIP3    H239731   6.314   3.346  13.874  0.1432  2.6364  0.4630
 6106TIP3   OH239732   6.650   2.487   4.250  0.0193  0.2766  0.0590
 6106TIP3    H139733   6.563   2.450   4.266  0.0779 -1.2396 -2.5398
 6106TIP3    H239734   6.709   2.435   4.304 -0.4090 -0.3919 -0.1100
 6107TIP3   OH239735   4.556   3.793  15.960  0.0782  0.7596  0.1977
 6107TIP3    H139736   4.649   3.806  15.978  0.5485 -1.3001 -0.4040
 6107TIP3    H239737   4.519   3.881  15.957  2.0599  1.6441  0.1754
 6108TIP3   OH239738   1.436   2.495  13.957  0.3804 -0.1509  0.5156
 6108TIP3    H139739   1.430   2.561  14.026 -0.1789 -0.3127  0.6254
 6108TIP3    H239740   1.391   2.418  13.992 -1.1100  0.1968 -0.5196
 6109TIP3   OH239741   5.556   0.950  16.980 -0.5706  0.1006  0.0028
 6109TIP3    H139742   5.618   1.016  17.012 -0.9453  0.3772  0.1767
 6109TIP3    H239743   5.570   0.948  16.885 -1.4400  1.3938 -0.1874
 6110TIP3   OH239744   6.248   4.915   0.234  0.3344 -0.5887 -0.4329
 6110TIP3    H139745   6.227   4.840   0.178  0.5399 -1.7406  0.9875
 6110TIP3    H239746   6.209   4.893   0.318 -0.1297  1.2076 -0.1497
 6111TIP3   OH239747   6.166   0.724   0.218 -0.4721  0.5442  0.3258
 6111TIP3    H139748   6.171   0.682   0.304  0.1849  0.5950  0.3237
 6111TIP3    H239749   6.076   0.756   0.212 -0.3850  1.0047  1.2217
 6112TIP3   OH239750   4.461   4.563  14.650 -0.1806 -0.4781  0.4278
 6112TIP3    H139751   4.540   4.512  14.668  0.8231  1.5290  2.1744
 6112TIP3    H239752   4.404   4.546  14.725 -0.3886 -0.0624  0.3668
 6113TIP3   OH239753   5.046   4.667   5.053 -0.6482  0.2403  0.4069
 6113TIP3    H139754   5.102   4.619   5.114 -0.8893  0.4739  0.8121
 6113TIP3    H239755   5.092   4.662   4.969 -0.1413  0.2240  0.6841
 6114TIP3   OH239756   3.976   1.737  11.637 -0.5572 -0.3730 -0.2163
 6114TIP3    H139757   4.002   1.719  11.546 -0.3190 -0.4520 -0.1329
 6114TIP3    H239758   3.899   1.793  11.629 -0.3869 -0.1710 -0.4689
 6115TIP3   OH239759   3.411   3.213  15.538 -0.0029  0.0911  0.8283
 6115TIP3    H139760   3.427   3.125  15.573 -1.3884 -0.5999 -0.2111
 6115TIP3    H239761   3.338   3.247  15.590 -1.0159 -0.3149 -0.2951
 6116TIP3   OH239762   3.399   4.498   3.458 -0.2910 -0.1151 -0.3430
 6116TIP3    H139763   3.367   4.585   3.434  0.1375  0.5769  1.4581
 6116TIP3    H239764   3.338   4.468   3.526 -0.8974 -1.5875 -1.4757
 6117TIP3   OH239765   2.684   0.011   0.892 -0.1699 -0.0620  0.1800
 6117TIP3    H139766   2.734   0.013   0.974  0.0354 -0.6624  0.0735
 6117TIP3    H239767   2.622  -0.061   0.904 -0.3857  0.0840 -0.0545
 6118TIP3   OH239768   0.895   2.910  13.123  0.7223  0.1610 -0.6940
 6118TIP3    H139769   0.951   2.919  13.200  0.6880  0.5283 -0.7086
 6118TIP3    H239770   0.911   2.990  13.073 -0.3378  0.6154 -0.3510
 6119TIP3   OH239771   2.310   4.799   1.955 -0.6727  0.5637  0.5911
 6119TIP3    H139772   2.223   4.815   1.919 -0.7970 -0.8870  0.1722
 6119TIP3    H239773   2.370   4.843   1.894 -0.9151 -1.3929 -1.1762
 6120TIP3   OH239774   1.402   3.605   1.590  0.0768  0.3045  0.3826
 6120TIP3    H139775   1.316   3.629   1.623  0.7265  1.1560  1.4955
 6120TIP3    H239776   1.400   3.509   1.586 -0.4291  0.2382  1.7925
 6121TIP3   OH239777   6.469   6.364  14.771  0.2329 -0.0641  0.3023
 6121TIP3    H139778   6.396   6.367  14.710  0.4335 -1.1287 -0.0149
 6121TIP3    H239779   6.521   6.442  14.750 -0.0672 -0.0498 -0.4154
 6122TIP3   OH239780   3.737   2.317  16.076  0.4349  0.5610 -0.1862
 6122TIP3    H139781   3.651   2.276  16.078  0.5071  0.4375  1.2019
 6122TIP3    H239782   3.720   2.408  16.051  0.1463  0.0339 -2.0386
 6123TIP3   OH239783   2.674   5.143  13.810 -0.5787 -0.2752 -0.7806
 6123TIP3    H139784   2.766   5.115  13.819 -0.3792  0.3127 -0.9279
 6123TIP3    H239785   2.642   5.150  13.900 -1.3424 -3.1985 -0.7459
 6124TIP3   OH239786   4.062   3.338   0.083 -0.2631 -0.7097  0.0299
 6124TIP3    H139787   4.109   3.317   0.002  0.8491 -0.2583  0.5351
 6124TIP3    H239788   3.991   3.396   0.055 -2.6975 -4.0022 -1.2327
 6125TIP3   OH239789   5.420   3.246  11.167 -0.0444 -0.5221 -0.2853
 6125TIP3    H139790   5.432   3.257  11.072 -0.4807  2.3897 -0.0906
 6125TIP3    H239791   5.337   3.291  11.186  0.3976 -0.4073  1.5608
 6126TIP3   OH239792   0.291   5.830  11.388 -0.2114  0.8559  0.0344
 6126TIP3    H139793   0.326   5.780  11.462 -1.0874 -0.3720 -0.3512
 6126TIP3    H239794   0.330   5.917  11.396  2.6513 -0.3222 -0.1749
 6127TIP3   OH239795   4.950   4.287   5.560  0.4301  0.1946  0.1054
 6127TIP3    H139796   4.931   4.283   5.653  1.1444  1.7626  0.3488
 6127TIP3    H239797   5.033   4.240   5.551  0.8045  0.7791  0.4170
 6128TIP3   OH239798   5.380   2.174   6.393  0.7099 -0.5105 -0.2574
 6128TIP3    H139799   5.353   2.256   6.434 -0.1381 -0.6962 -0.4362
 6128TIP3    H239800   5.456   2.146   6.445  1.7395  0.9651 -0.9246
 6129TIP3   OH239801   6.530   1.787   2.139 -0.3998 -0.2227  0.7586
 6129TIP3    H139802   6.506   1.831   2.220 -1.6027  0.0276  0.2867
 6129TIP3    H239803   6.447   1.752   2.106  0.1993 -0.9727  0.0269
 6130TIP3   OH239804   0.154   1.355  15.630  1.0353  0.3190  0.5156
 6130TIP3    H139805   0.101   1.376  15.707  2.2192  0.1901  1.4009
 6130TIP3    H239806   0.190   1.268  15.649 -1.3466 -1.3039 -1.7289
 6131TIP3   OH239807   5.471   6.067   0.829  0.3796  0.0549 -0.8696
 6131TIP3    H139808   5.434   5.985   0.797  2.0624 -0.9213 -0.3861
 6131TIP3    H239809   5.444   6.132   0.764  0.4636 -1.1772 -2.1820
 6132TIP3   OH239810   6.483   0.102  16.281  0.0528  0.1000  0.7384
 6132TIP3    H139811   6.428   0.073  16.353  1.2902  0.1064  1.7369
 6132TIP3    H239812   6.564   0.131  16.324  1.0692 -0.4952 -0.7016
 6133TIP3   OH239813   5.815   5.670   0.531  0.2140 -0.7425  0.4690
 6133TIP3    H139814   5.892   5.624   0.497  0.9962  0.6469  0.2644
 6133TIP3    H239815   5.835   5.687   0.623  0.4438  0.1677  0.2603
 6134TIP3   OH239816   5.049   1.247   3.430  0.1945  0.2683  0.5880
 6134TIP3    H139817   4.977   1.237   3.492  0.0930  0.8327  0.5654
 6134TIP3    H239818   5.082   1.158   3.418  0.0298  0.1142  1.2279
 6135TIP3   OH239819   4.951   6.290   1.474 -0.2099 -0.0979 -0.7737
 6135TIP3    H139820   4.870   6.249   1.503  0.4182  0.2272  1.7329
 6135TIP3    H239821   5.020   6.232   1.508  0.6134  0.7124 -1.0143
 6136TIP3   OH239822   3.464   3.405   4.160  0.1012  0.0482  0.0163
 6136TIP3    H139823   3.543   3.362   4.128 -0.2629 -0.3222 -0.4021
 6136TIP3    H239824   3.423   3.341   4.218  1.3317  1.1185  2.1958
 6137TIP3   OH239825   1.100   1.362  12.434  0.0638  0.6932 -0.0341
 6137TIP3    H139826   1.108   1.266  12.433  2.1897  0.8206 -0.9518
 6137TIP3    H239827   1.012   1.378  12.466 -0.3303 -1.5748  0.2119
 6138TIP3   OH239828   1.380   5.729   4.051  0.2158  0.2211  0.6187
 6138TIP3    H139829   1.311   5.797   4.053  0.1382  0.1729 -0.1410
 6138TIP3    H239830   1.403   5.716   4.143 -0.7478  0.2893  0.8844
 6139TIP3   OH239831   6.651   4.943  17.030  0.4422  0.1222 -0.1476
 6139TIP3    H139832   6.721   4.883  17.004  1.0135  0.9515 -0.5845
 6139TIP3    H239833   6.573   4.888  17.035  0.7067 -0.4605 -1.6769
 6140TIP3   OH239834   1.654   4.777  15.898  0.1504  0.0972 -1.0854
 6140TIP3    H139835   1.729   4.821  15.859 -1.0235  1.5014 -1.8567
 6140TIP3    H239836   1.625   4.715  15.831  0.3418 -0.1072 -0.9782
 6141TIP3   OH239837   1.019   3.051   5.076  0.2497  0.0047  0.4701
 6141TIP3    H139838   1.060   2.966   5.060  0.3485  0.1799 -0.2046
 6141TIP3    H239839   1.092   3.112   5.085  0.1466  0.3685 -1.0174
 6142TIP3   OH239840   0.955   4.817   5.370 -0.3777 -0.3133  0.0233
 6142TIP3    H139841   1.039   4.854   5.398 -0.7515  0.2619  0.4020
 6142TIP3    H239842   0.977   4.765   5.293  0.4146 -0.6156  0.4365
 6143TIP3   OH239843   5.901   4.810   6.390 -0.2993 -0.8559 -0.3796
 6143TIP3    H139844   5.933   4.846   6.307 -2.7320  1.2344 -0.5146
 6143TIP3    H239845   5.835   4.872   6.420 -1.8671 -3.2503  1.4971
 6144TIP3   OH239846   3.204   4.639   0.723  0.5160  0.5286  0.3181
 6144TIP3    H139847   3.271   4.694   0.681  0.2736  0.0139 -0.7892
 6144TIP3    H239848   3.249   4.556   0.739 -0.2261 -0.3839 -1.8961
 6145TIP3   OH239849   1.848   3.332  16.046  0.1345 -0.4866  0.0098
 6145TIP3    H139850   1.871   3.344  16.139  0.9186 -1.3792 -0.0488
 6145TIP3    H239851   1.928   3.297  16.007  0.2678  1.1579 -1.3076
 6146TIP3   OH239852   3.904   0.080  13.442 -0.0742  0.8263 -0.5795
 6146TIP3    H139853   3.946   0.157  13.481  0.2634  0.0713  0.6001
 6146TIP3    H239854   3.838   0.054  13.506  0.8803 -0.7860 -0.2179
 6147TIP3   OH239855   2.102   4.768   5.746 -0.1055 -0.3327  0.3915
 6147TIP3    H139856   2.147   4.849   5.769  0.5033 -0.3563 -0.6606
 6147TIP3    H239857   2.050   4.747   5.823  0.6954  0.3880  1.1504
 6148TIP3   OH239858   6.284   6.228  13.284 -0.4766  0.4471  0.1937
 6148TIP3    H139859   6.195   6.239  13.317 -0.6971  0.4799 -0.3920
 6148TIP3    H239860   6.320   6.317  13.282 -0.2928  0.3922  0.7874
 6149TIP3   OH239861   2.265   0.900  12.166  0.6514  0.1233  0.1926
 6149TIP3    H139862   2.237   0.841  12.095 -0.7330  2.0648 -0.9711
 6149TIP3    H239863   2.184   0.921  12.213  1.3850 -0.1958  1.6606
 6150TIP3   OH239864   3.040   1.685  13.193  0.9527  0.0862 -0.3732
 6150TIP3    H139865   3.027   1.773  13.157 -1.5458 -0.5128 -1.1221
 6150TIP3    H239866   3.067   1.632  13.118  2.2375  0.1308  0.0327
 6151TIP3   OH239867   0.586   1.948  12.894  0.3673 -0.0559  0.0056
 6151TIP3    H139868   0.569   1.858  12.866 -0.6947 -0.0662  0.6434
 6151TIP3    H239869   0.537   1.958  12.975  1.7976  0.5912  0.8374
 6152TIP3   OH239870   6.348   5.230   0.229  0.2634  0.3737 -0.1905
 6152TIP3    H139871   6.381   5.311   0.268  1.0194  0.0114 -0.0544
 6152TIP3    H239872   6.258   5.223   0.260 -0.4414  2.1143 -1.6822
 6153TIP3   OH239873   4.220   3.561   4.167  0.0205  0.4869 -0.3606
 6153TIP3    H139874   4.136   3.604   4.159 -0.1371  0.1233 -0.6950
 6153TIP3    H239875   4.215   3.513   4.250  0.0975  0.8939 -0.1204
 6154TIP3   OH239876   6.343   3.082   3.783  0.4598 -0.8035 -0.5094
 6154TIP3    H139877   6.388   3.024   3.845 -3.6059 -1.2393  2.3957
 6154TIP3    H239878   6.256   3.094   3.820 -1.1346  1.8425 -4.4736
 6155TIP3   OH239879   6.660   0.752  16.404 -0.3944 -0.2543  0.6002
 6155TIP3    H139880   6.699   0.730  16.488 -0.4116 -0.6053  0.5185
 6155TIP3    H239881   6.706   0.831  16.376 -0.0193 -0.4366  0.6969
 6156TIP3   OH239882   1.770   4.816   5.425 -0.0783 -0.1795 -0.1723
 6156TIP3    H139883   1.719   4.781   5.352  0.4997 -3.8412  0.9450
 6156TIP3    H239884   1.754   4.755   5.497  2.7551  0.7490  1.4177
 6157TIP3   OH239885   2.372   6.473  11.223 -0.0305 -0.5849  0.4209
 6157TIP3    H139886   2.307   6.414  11.187 -1.9787  1.1403  0.8976
 6157TIP3    H239887   2.367   6.460  11.318 -0.9398  0.7061  0.5816
 6158TIP3   OH239888   4.918   4.041  11.020 -0.1032 -0.7925  0.0229
 6158TIP3    H139889   4.935   4.099  11.094  2.8080 -2.9522  1.2640
 6158TIP3    H239890   4.938   4.093  10.943  1.9522  0.0758  1.0638
 6159TIP3   OH239891   0.335   4.824   5.130  0.2481  0.1670 -0.0529
 6159TIP3    H139892   0.354   4.833   5.223 -1.8248 -1.7580  0.6521
 6159TIP3    H239893   0.275   4.896   5.111 -0.9069 -0.5763  0.6491
 6160TIP3   OH239894   5.963   4.617  15.793 -0.4568 -0.5805  0.3257
 6160TIP3    H139895   6.013   4.535  15.786 -0.3644 -0.5403  0.5069
 6160TIP3    H239896   5.937   4.621  15.884  1.5819  0.7723  0.9132
 6161TIP3   OH239897   2.371   2.310   0.270 -0.7640  0.0698  0.5172
 6161TIP3    H139898   2.285   2.268   0.267 -0.5927 -0.4101  1.5785
 6161TIP3    H239899   2.398   2.316   0.179 -1.4832 -0.7114  0.2357
 6162TIP3   OH239900   2.451   6.041  13.840 -0.2020  0.2054 -0.0419
 6162TIP3    H139901   2.412   5.955  13.828  1.8994 -0.5235 -2.5207
 6162TIP3    H239902   2.500   6.035  13.922 -0.2738 -0.8860 -0.0652
 6163TIP3   OH239903   4.862   4.085   2.857 -0.2665  0.6953  0.4892
 6163TIP3    H139904   4.814   4.168   2.858  0.2085  0.9809  1.6126
 6163TIP3    H239905   4.813   4.029   2.798 -2.5133  0.6752  2.2504
 6164TIP3   OH239906   3.421   6.446  11.282 -0.1187  0.0817  0.0189
 6164TIP3    H139907   3.505   6.400  11.276  0.2780  0.8236 -0.2114
 6164TIP3    H239908   3.407   6.483  11.195 -0.8321 -0.2720 -0.0283
 6165TIP3   OH239909   1.117   5.632   0.897 -0.2830  0.4116 -0.3471
 6165TIP3    H139910   1.052   5.585   0.949 -1.5273  2.2407 -0.1778
 6165TIP3    H239911   1.174   5.674   0.962 -0.0330  0.2932 -0.4873
 6166TIP3   OH239912   6.673   6.374  10.128  0.2030  0.4781  0.1095
 6166TIP3    H139913   6.735   6.331  10.188 -0.7190 -1.0230  0.0274
 6166TIP3    H239914   6.661   6.462  10.165  1.0906  0.2235  1.0548
 6167TIP3   OH239915   2.756   6.547  12.100 -0.1122 -0.0534  0.3170
 6167TIP3    H139916   2.703   6.618  12.138 -1.5480 -0.8336 -0.1266
 6167TIP3    H239917   2.691   6.481  12.075  1.1489 -1.3077  0.2628
 6168TIP3   OH239918   2.758   1.924  15.095  0.1520  0.5170  0.1434
 6168TIP3    H139919   2.842   1.971  15.091  0.8283 -0.7304 -1.2745
 6168TIP3    H239920   2.728   1.921  15.004  0.7704 -2.7944 -0.0640
 6169TIP3   OH239921   0.494   0.191  16.183 -0.2932  0.0373  0.2745
 6169TIP3    H139922   0.534   0.269  16.222  0.2384  0.8452 -1.7131
 6169TIP3    H239923   0.542   0.178  16.101 -1.3001 -1.5663 -0.1178
 6170TIP3   OH239924   0.764   5.607   4.293 -0.3585 -0.0415  0.0478
 6170TIP3    H139925   0.860   5.599   4.295 -0.3136 -0.1686 -1.6358
 6170TIP3    H239926   0.735   5.557   4.370  0.9607  0.9019  1.2155
 6171TIP3   OH239927   4.561   0.338   1.174  0.1648  0.2653 -0.1897
 6171TIP3    H139928   4.468   0.359   1.183  0.2085  0.7572 -0.8846
 6171TIP3    H239929   4.562   0.254   1.128  0.0709  0.3297 -0.3084
 6172TIP3   OH239930   4.258   1.954   4.910 -0.5135 -0.6570  0.1535
 6172TIP3    H139931   4.332   1.981   4.964  0.2606  0.3106 -1.3242
 6172TIP3    H239932   4.184   2.004   4.943 -0.9187 -2.6897  2.5941
 6173TIP3   OH239933   0.777   6.710  13.946  0.5222  0.5479  0.4019
 6173TIP3    H139934   0.803   6.789  13.898 -0.6924  2.5591  2.8260
 6173TIP3    H239935   0.809   6.637  13.891  1.2104  2.6529 -2.2251
 6174TIP3   OH239936   0.512   3.357   3.579  0.5848 -0.3763 -0.2609
 6174TIP3    H139937   0.581   3.394   3.633  0.2669  0.3042 -0.3106
 6174TIP3    H239938   0.431   3.378   3.626  0.4205 -1.4226 -0.0486
 6175TIP3   OH239939   0.412   4.924   3.780 -0.0466 -0.0150  0.1947
 6175TIP3    H139940   0.417   4.888   3.691  1.4486  0.2870  0.1328
 6175TIP3    H239941   0.466   5.003   3.777 -0.4897  0.3398  1.2210
 6176TIP3   OH239942   0.951   0.287   0.746  0.0335 -0.2418  0.1518
 6176TIP3    H139943   0.979   0.202   0.778  0.4032  0.0307  0.5672
 6176TIP3    H239944   1.022   0.315   0.688 -0.0601 -0.1943  0.0606
 6177TIP3   OH239945   1.522   3.630  10.966  0.3899  0.3105  0.1613
 6177TIP3    H139946   1.546   3.714  10.926  1.4723  0.9979  2.1321
 6177TIP3    H239947   1.600   3.602  11.012 -0.2852 -1.2935  0.3824
 6178TIP3   OH239948   5.122   3.540  13.829  0.1509 -0.0237  0.0848
 6178TIP3    H139949   5.040   3.495  13.811 -0.1659  1.5576 -3.2505
 6178TIP3    H239950   5.139   3.525  13.922 -2.0428 -3.3386  0.0882
 6179TIP3   OH239951   2.763   5.102   1.003 -0.1549  0.0102 -0.3956
 6179TIP3    H139952   2.801   5.107   1.091  0.6812 -0.3440 -0.7142
 6179TIP3    H239953   2.801   5.021   0.966  0.2171  0.6178 -1.3939
 6180TIP3   OH239954   5.466   0.822  13.362 -0.2075  0.0573  0.8000
 6180TIP3    H139955   5.471   0.743  13.309 -2.5286  0.3977 -0.0150
 6180TIP3    H239956   5.391   0.870  13.328  1.3233  2.8387  1.0142
 6181TIP3   OH239957   1.528   6.679   5.432  0.1387 -0.1226  0.2026
 6181TIP3    H139958   1.472   6.735   5.379 -0.4251 -1.2144 -0.4096
 6181TIP3    H239959   1.479   6.597   5.440  1.8608 -1.3186 -0.8209
 6182TIP3   OH239960   1.873   0.370   0.233  0.3509  0.2446  0.7840
 6182TIP3    H139961   1.862   0.359   0.327  0.2563 -0.5449  0.6905
 6182TIP3    H239962   1.911   0.287   0.204 -0.6567  0.0504 -0.0305
 6183TIP3   OH239963   0.910   0.397  13.625  0.0264  0.1970  0.5342
 6183TIP3    H139964   0.864   0.319  13.595  2.0574 -1.2002  0.8033
 6183TIP3    H239965   0.882   0.407  13.716  0.9892 -1.3038  1.0488
 6184TIP3   OH239966   6.621   3.708  12.120  0.0014  0.5193 -0.0080
 6184TIP3    H139967   6.621   3.773  12.049  1.3624  2.1767  1.4102
 6184TIP3    H239968   6.641   3.759  12.198  0.1479 -1.5115  1.3381
 6185TIP3   OH239969   2.086   0.172  14.582 -0.1529  0.0295  0.2445
 6185TIP3    H139970   2.107   0.156  14.490  1.0158  0.9670  0.3268
 6185TIP3    H239971   2.170   0.161  14.628 -0.4214  0.9901  0.9950
 6186TIP3   OH239972   0.576   4.992   0.753 -0.0138  0.3295  0.3657
 6186TIP3    H139973   0.514   5.054   0.717 -2.3762 -0.0484  3.3798
 6186TIP3    H239974   0.626   5.041   0.817  1.4371  0.1225 -0.5447
 6187TIP3   OH239975   2.033   5.748  11.177 -0.4984 -0.0687  0.0042
 6187TIP3    H139976   1.961   5.687  11.164 -1.3390  0.7198  0.8037
 6187TIP3    H239977   2.011   5.824  11.123  0.1292 -0.1311 -0.3496
 6188TIP3   OH239978   1.500   5.184  12.585 -0.4094 -0.3194 -0.3398
 6188TIP3    H139979   1.493   5.096  12.622 -0.5401 -0.6346 -1.0883
 6188TIP3    H239980   1.427   5.232  12.624 -0.0462 -0.3896  0.4564
 6189TIP3   OH239981   5.725   3.357  13.193 -0.0787  0.5597  0.1899
 6189TIP3    H139982   5.679   3.357  13.109  0.5290 -0.7136 -0.1670
 6189TIP3    H239983   5.655   3.366  13.259 -0.5909  1.1807 -0.4260
 6190TIP3   OH239984   3.822   4.947  16.375  0.3566 -0.0605  0.1080
 6190TIP3    H139985   3.857   5.017  16.320  1.1040  0.1559  0.8413
 6190TIP3    H239986   3.733   4.932  16.342  0.2607  1.0947 -0.1779
 6191TIP3   OH239987   4.226   5.069   2.936  0.5577  0.3448 -0.6510
 6191TIP3    H139988   4.167   4.994   2.928  0.3731  0.5080 -0.8264
 6191TIP3    H239989   4.281   5.048   3.011  2.4502 -1.2938 -2.3946
 6192TIP3   OH239990   2.723   0.853   0.543 -0.6026 -0.3672  0.1084
 6192TIP3    H139991   2.648   0.912   0.555  0.4922  1.4065 -1.2608
 6192TIP3    H239992   2.697   0.795   0.472 -0.8404 -0.0467 -0.0685
 6193TIP3   OH239993   1.253   4.290  13.985  0.2344 -0.3574  0.0716
 6193TIP3    H139994   1.219   4.305  13.897 -0.3901 -0.7007  0.2461
 6193TIP3    H239995   1.342   4.325  13.983  1.0699 -2.3752 -1.3759
 6194TIP3   OH239996   2.350   1.797  15.728 -0.3576 -0.2037 -0.1087
 6194TIP3    H139997   2.425   1.832  15.776  1.3595 -0.1652 -2.5847
 6194TIP3    H239998   2.382   1.789  15.638 -2.9767 -1.3827 -1.0254
 6195TIP3   OH239999   1.267   0.863   0.280  0.5790  0.0684  0.4856
 6195TIP3    H140000   1.193   0.808   0.254  0.4848  0.0363  0.8254
 6195TIP3    H240001   1.249   0.948   0.240 -0.1780  0.3737  1.4587
 6196TIP3   OH240002   4.001   5.629  16.835 -0.0487  0.0075 -0.3437
 6196TIP3    H140003   3.992   5.695  16.767 -0.4068  1.0457  0.6837
 6196TIP3    H240004   3.952   5.663  16.910  0.6375 -0.9186  0.5734
 6197TIP3   OH240005   2.472   0.968  15.119 -0.4379 -0.0896 -0.0593
 6197TIP3    H140006   2.397   0.911  15.135 -1.5117  1.7153  1.8479
 6197TIP3    H240007   2.540   0.935  15.177 -1.1555  0.6803  1.2679
 6198TIP3   OH240008   0.167   0.113   6.287 -0.0889 -0.2709 -0.9318
 6198TIP3    H140009   0.200   0.199   6.259 -0.2037 -0.0239 -0.3205
 6198TIP3    H240010   0.090   0.133   6.340 -0.3764 -0.7798 -1.1523
 6199TIP3   OH240011   0.211   1.696   3.752  0.6449 -0.1332 -0.6029
 6199TIP3    H140012   0.272   1.628   3.723  0.8385 -0.8681  1.3679
 6199TIP3    H240013   0.243   1.721   3.839 -1.7488 -0.4397  0.4372
 6200TIP3   OH240014   2.719   4.133   0.128  0.2114  0.1763 -0.4257
 6200TIP3    H140015   2.630   4.122   0.093  0.1483  0.2591 -0.2964
 6200TIP3    H240016   2.736   4.051   0.175  0.6051 -0.2540 -1.3068
 6201TIP3   OH240017   4.500   1.041  16.218  0.1821  0.3087 -0.1542
 6201TIP3    H140018   4.482   1.043  16.124  0.8147 -0.2522 -0.2963
 6201TIP3    H240019   4.431   0.985  16.254  0.8637 -0.8095 -0.5212
 6202TIP3   OH240020   3.502   3.968   4.636 -0.3065 -0.5112  0.8175
 6202TIP3    H140021   3.490   4.063   4.641 -0.5368 -0.6187  3.1075
 6202TIP3    H240022   3.596   3.957   4.623 -0.1427  0.0336  1.4796
 6203TIP3   OH240023   0.932   1.692  14.710  0.2657 -0.5221 -0.2839
 6203TIP3    H140024   0.851   1.731  14.677  1.3271 -0.3034 -2.8616
 6203TIP3    H240025   0.906   1.605  14.741 -1.1239 -0.0654 -0.1216
 6204TIP3   OH240026   4.923   4.404   2.603  0.5808  0.0658  0.3816
 6204TIP3    H140027   4.983   4.470   2.639  1.2923 -0.1474 -0.3718
 6204TIP3    H240028   4.965   4.320   2.621  0.0573 -0.1455  0.6443
 6205TIP3   OH240029   6.581   5.651  14.740  0.1240 -0.3380 -0.2133
 6205TIP3    H140030   6.617   5.730  14.700  0.0478 -1.1404 -1.9442
 6205TIP3    H240031   6.491   5.674  14.762  1.1843  1.3364  3.1609
 6206TIP3   OH240032   1.888   6.616  15.039 -0.4706  0.1530 -0.1030
 6206TIP3    H140033   1.977   6.583  15.042 -0.3099  0.2978 -2.1287
 6206TIP3    H240034   1.897   6.706  15.007 -1.3522  0.0947 -0.5424
 6207TIP3   OH240035   6.783   1.927   2.372  0.4355 -0.0264 -0.2271
 6207TIP3    H140036   6.708   1.868   2.360  0.7758 -0.6698  0.6723
 6207TIP3    H240037   6.801   1.960   2.285 -2.7841  2.5214 -0.1357
 6208TIP3   OH240038   4.878   6.491  14.421  0.4590 -0.3128 -0.1550
 6208TIP3    H140039   4.893   6.485  14.516  1.0835 -2.1958 -0.3255
 6208TIP3    H240040   4.952   6.444  14.382  0.0153  0.1133 -1.5707
 6209TIP3   OH240041   1.058   1.758   2.254 -0.4051  0.3123  0.0502
 6209TIP3    H140042   1.035   1.753   2.347 -0.8240 -1.0228 -0.1138
 6209TIP3    H240043   1.038   1.849   2.229  0.3997  0.8982  1.4254
 6210TIP3   OH240044   2.139   3.039   0.738 -0.7463  0.1823  0.0692
 6210TIP3    H140045   2.083   3.112   0.711 -1.9151 -1.0966 -1.1291
 6210TIP3    H240046   2.083   2.983   0.791  0.0135 -0.0679  0.6231
 6211TIP3   OH240047   1.097   5.293   5.438 -0.0314 -0.4545  0.2561
 6211TIP3    H140048   1.082   5.341   5.356 -0.7857 -1.4189 -0.1788
 6211TIP3    H240049   1.185   5.320   5.465  0.4044 -0.4384 -1.0906
 6212TIP3   OH240050   1.997   2.540   3.259 -0.1127 -0.5453  0.0576
 6212TIP3    H140051   1.934   2.609   3.238  2.0878  1.9037  0.9203
 6212TIP3    H240052   2.051   2.577   3.328  1.7968 -2.8028 -0.1041
 6213TIP3   OH240053   1.544   2.302  16.709 -0.4074  0.6141 -0.1407
 6213TIP3    H140054   1.622   2.248  16.718 -0.5629  0.4907  0.4958
 6213TIP3    H240055   1.504   2.302  16.796  0.4334  3.0695  0.3117
 6214TIP3   OH240056   1.495   6.322   4.508  0.2594 -0.1796  0.0963
 6214TIP3    H140057   1.423   6.306   4.569  0.9450  1.3780  1.3672
 6214TIP3    H240058   1.452   6.357   4.430 -0.4279  0.0171  0.5505
 6215TIP3   OH240059   5.175   3.134   5.288 -1.3430  0.1424 -0.5053
 6215TIP3    H140060   5.095   3.138   5.235 -1.4216 -1.3993 -0.5451
 6215TIP3    H240061   5.202   3.043   5.283 -0.1591  0.4292  0.3847
 6216TIP3   OH240062   1.684   5.911  14.591  0.1809  0.3768  0.2657
 6216TIP3    H140063   1.617   5.862  14.543 -0.4620  1.0337  0.4844
 6216TIP3    H240064   1.706   5.985  14.534 -0.4967  1.0916  0.9099
 6217TIP3   OH240065   1.256   6.489   1.689  0.4167 -0.0544 -0.8014
 6217TIP3    H140066   1.350   6.496   1.672  0.5373 -2.1734 -1.2604
 6217TIP3    H240067   1.234   6.399   1.665 -1.1607 -0.5489  2.0681
 6218TIP3   OH240068   4.300   1.571   1.500 -0.1535  0.3499  0.0392
 6218TIP3    H140069   4.214   1.531   1.510  0.3176 -1.5280 -2.3811
 6218TIP3    H240070   4.354   1.530   1.568 -0.4709 -0.8251 -0.3901
 6219TIP3   OH240071   5.724   4.231  11.720  0.1825 -0.4339 -0.2376
 6219TIP3    H140072   5.808   4.197  11.689  0.6051  0.1613  0.2336
 6219TIP3    H240073   5.683   4.268  11.642  0.8627  0.2791 -0.2745
 6220TIP3   OH240074   4.990   3.629   0.364  0.0576 -0.5449  0.1158
 6220TIP3    H140075   4.951   3.715   0.351 -0.2601 -0.8756 -1.3198
 6220TIP3    H240076   5.071   3.646   0.410  0.2428  0.5830 -0.5797
 6221TIP3   OH240077   6.215   5.829   6.080  0.2766 -0.0785  0.0713
 6221TIP3    H140078   6.124   5.825   6.052  0.8032  0.4907 -1.9694
 6221TIP3    H240079   6.222   5.911   6.129  0.1527  1.1737 -1.8972
 6222TIP3   OH240080   5.058   5.623   1.498 -0.0548  0.1071 -0.0366
 6222TIP3    H140081   5.139   5.623   1.549 -0.3617 -1.5868  0.5175
 6222TIP3    H240082   5.064   5.701   1.443  1.8916  0.0653  0.0707
 6223TIP3   OH240083   0.985   5.445  15.780  0.2118 -0.2925  0.4605
 6223TIP3    H140084   0.987   5.469  15.873 -0.0129  1.7740 -0.0198
 6223TIP3    H240085   0.911   5.385  15.772  0.7142 -1.1352  1.7217
 6224TIP3   OH240086   5.951   4.019  10.796  0.4751  0.3006 -0.8072
 6224TIP3    H140087   5.865   4.034  10.834  0.1130 -1.9668 -0.5971
 6224TIP3    H240088   5.975   4.103  10.756 -0.2552  2.0077  2.0960
 6225TIP3   OH240089   3.476   0.704   0.811  0.0048  0.3249  0.0618
 6225TIP3    H140090   3.563   0.742   0.820  0.1498 -0.4554  3.2843
 6225TIP3    H240091   3.493   0.615   0.779  0.4913 -0.0874  1.4187
 6226TIP3   OH240092   4.033   3.881  12.436  0.1358 -0.0422 -0.0600
 6226TIP3    H140093   4.026   3.976  12.425 -1.3701 -0.0885  0.3360
 6226TIP3    H240094   4.026   3.846  12.348 -2.3839  0.0909  0.0107
 6227TIP3   OH240095   1.867   4.090  15.200  0.0499  0.3189  0.6671
 6227TIP3    H140096   1.917   4.136  15.132 -0.7413  0.3879  0.1121
 6227TIP3    H240097   1.868   4.149  15.275  0.8957  0.2633  0.7132
 6228TIP3   OH240098   6.500   0.296  16.561 -0.5029  0.3522 -0.7326
 6228TIP3    H140099   6.581   0.254  16.533  0.2813  1.5442 -0.3531
 6228TIP3    H240100   6.451   0.312  16.480  0.4711  1.2353 -1.1765
 6229TIP3   OH240101   0.355   4.899   0.882  0.2696 -0.0105 -0.2436
 6229TIP3    H140102   0.301   4.898   0.803 -0.1636  2.8264 -0.1125
 6229TIP3    H240103   0.445   4.892   0.851  0.0686  0.4904 -0.9534
 6230TIP3   OH240104   3.539   4.677   0.136  0.2373 -0.1252 -0.6921
 6230TIP3    H140105   3.456   4.683   0.183  0.6729 -0.6294  0.1622
 6230TIP3    H240106   3.604   4.710   0.197  0.7043  0.0607 -1.2756
 6231TIP3   OH240107   2.132   6.602   3.243 -0.1695 -0.4075 -0.7307
 6231TIP3    H140108   2.106   6.576   3.332 -3.8216 -2.0406 -2.0683
 6231TIP3    H240109   2.146   6.696   3.249 -1.1534 -0.3352  1.4015
 6232TIP3   OH240110   4.705   0.163  15.336 -0.0689  0.3502  0.1992
 6232TIP3    H140111   4.683   0.202  15.251  0.0670 -0.1523 -0.0727
 6232TIP3    H240112   4.782   0.110  15.318  1.1599  1.7728  1.0629
 6233TIP3   OH240113   3.068   0.564  10.511  0.5855  0.6171  0.2503
 6233TIP3    H140114   3.065   0.473  10.483  1.6458  0.9335 -1.0221
 6233TIP3    H240115   2.977   0.588  10.526 -0.0750  0.2094 -2.4760
 6234TIP3   OH240116   5.306   6.411  13.574  0.4953 -0.9403 -0.4099
 6234TIP3    H140117   5.304   6.486  13.633 -0.3073 -1.6190  0.4580
 6234TIP3    H240118   5.251   6.438  13.500  1.0093 -0.3146 -0.5769
 6235TIP3   OH240119   0.567   5.038  15.119 -0.3976  0.1691  0.3833
 6235TIP3    H140120   0.575   5.026  15.024  1.7627 -1.3014  0.6855
 6235TIP3    H240121   0.542   4.951  15.151  1.8106 -0.1519  1.3929
 6236TIP3   OH240122   4.979   4.172   3.520 -0.3782 -0.0891 -0.1570
 6236TIP3    H140123   4.915   4.207   3.458  1.0688 -1.4272 -2.5699
 6236TIP3    H240124   4.935   4.098   3.560 -0.9668  0.0995 -0.4403
 6237TIP3   OH240125   0.849   5.123   1.366  0.5672  0.2861 -0.0393
 6237TIP3    H140126   0.885   5.155   1.448  2.8373  0.3236 -0.9713
 6237TIP3    H240127   0.904   5.048   1.343 -1.5365 -1.2320 -0.3680
 6238TIP3   OH240128   0.291   3.527  11.904 -0.0343  0.1441 -0.0380
 6238TIP3    H140129   0.381   3.557  11.889 -0.3803  1.1200 -0.2732
 6238TIP3    H240130   0.285   3.444  11.856  0.8753 -0.1874  0.3947
 6239TIP3   OH240131   5.937   6.201  10.905  0.9252  0.0350 -0.1564
 6239TIP3    H140132   5.842   6.199  10.897  0.7886 -0.0756  1.2361
 6239TIP3    H240133   5.969   6.219  10.816 -0.3377 -1.2587 -0.9074
 6240TIP3   OH240134   0.066   5.592  16.249 -0.4589  0.1482  0.5148
 6240TIP3    H140135   0.048   5.498  16.250 -1.8333  0.3682 -0.6890
 6240TIP3    H240136   0.073   5.615  16.342  1.1047 -1.3188  0.8182
 6241TIP3   OH240137   4.787   2.571  16.259  0.2564 -0.3446  0.0513
 6241TIP3    H140138   4.765   2.593  16.169  0.0751 -0.8157 -0.0218
 6241TIP3    H240139   4.712   2.600  16.310  0.6524  0.5544  0.1426
 6242TIP3   OH240140   6.340   5.619   0.202 -0.2375  0.6707 -0.0905
 6242TIP3    H140141   6.287   5.681   0.253 -0.5285 -1.1636  1.9559
 6242TIP3    H240142   6.390   5.570   0.267  2.6875  1.0784 -1.8513
 6243TIP3   OH240143   1.208   5.741  16.903  0.6312 -0.2159 -0.2318
 6243TIP3    H140144   1.123   5.707  16.875 -0.6687  2.0077  0.7259
 6243TIP3    H240145   1.242   5.674  16.963 -1.1806 -0.4956  0.5620
 6244TIP3   OH240146   5.954   0.371   5.161  0.6936  0.1883  0.1763
 6244TIP3    H140147   5.866   0.396   5.187 -0.1321 -1.1410 -1.1797
 6244TIP3    H240148   5.994   0.452   5.129 -1.0322  0.3481 -1.8015
 6245TIP3   OH240149   0.042   4.474   3.671  0.0831  0.4035  0.4625
 6245TIP3    H140150   0.131   4.467   3.707  0.0778 -0.8284  0.2809
 6245TIP3    H240151   0.003   4.548   3.718  0.4457 -0.4677  2.2297
 6246TIP3   OH240152   3.363   3.665  15.171  0.5625 -0.0233 -0.3390
 6246TIP3    H140153   3.437   3.672  15.231 -0.7732 -0.2111  1.4175
 6246TIP3    H240154   3.368   3.744  15.117  0.3845  1.5076  1.7529
 6247TIP3   OH240155   4.952   4.479  16.024 -0.5336 -0.1920 -0.1412
 6247TIP3    H140156   4.994   4.408  15.975  1.5569  0.1169  1.1074
 6247TIP3    H240157   4.934   4.546  15.958 -1.0233 -1.1906 -1.0526
 6248TIP3   OH240158   2.537   5.866   3.879  0.5013 -0.0775 -0.1960
 6248TIP3    H140159   2.629   5.855   3.902  0.8465 -1.0725 -1.8248
 6248TIP3    H240160   2.491   5.874   3.963  2.1860  1.7819  0.6194
 6249TIP3   OH240161   0.870   2.147  14.456  0.5167  0.4716  0.4415
 6249TIP3    H140162   0.832   2.227  14.491 -1.1255  0.0221 -0.2437
 6249TIP3    H240163   0.879   2.163  14.362 -0.2695 -0.2852  0.2190
 6250TIP3   OH240164   2.248   5.073   5.588 -0.0605 -0.0541 -0.0983
 6250TIP3    H140165   2.258   5.037   5.676 -1.4524 -1.2404 -0.3808
 6250TIP3    H240166   2.276   5.164   5.595  0.7234 -0.3839  1.3443
 6251TIP3   OH240167   3.650   2.798  16.160 -0.1616 -0.0006  0.0602
 6251TIP3    H140168   3.703   2.792  16.240  0.9938 -0.1429 -0.6924
 6251TIP3    H240169   3.641   2.892  16.145 -0.6350  0.0299  0.5159
 6252TIP3   OH240170   0.848   1.084  14.543  0.5275  0.2624  0.2419
 6252TIP3    H140171   0.872   1.082  14.450 -1.8389  0.0607 -0.4397
 6252TIP3    H240172   0.772   1.141  14.546 -1.3739 -2.1468  1.4996
 6253TIP3   OH240173   5.394   5.605  16.468 -0.2752 -0.3426  0.1925
 6253TIP3    H140174   5.478   5.602  16.512  0.8872 -0.9203 -1.9237
 6253TIP3    H240175   5.367   5.513  16.462 -0.2833 -0.2983 -0.5146
 6254TIP3   OH240176   2.751   5.507   1.818  0.0109  0.4067 -0.5609
 6254TIP3    H140177   2.715   5.570   1.880  2.0765  2.0165 -0.8914
 6254TIP3    H240178   2.809   5.451   1.870  0.4944  0.7162 -0.7619
 6255TIP3   OH240179   4.717   1.789  16.563 -0.5718  0.3336 -0.7385
 6255TIP3    H140180   4.667   1.853  16.613 -1.7162 -0.9765 -0.1479
 6255TIP3    H240181   4.707   1.817  16.472 -0.2625  1.5070 -0.4282
 6256TIP3   OH240182   3.360   4.428  15.262 -0.3928  0.3544  0.0505
 6256TIP3    H140183   3.429   4.435  15.195 -1.4373 -0.0359 -1.1220
 6256TIP3    H240184   3.392   4.360  15.322  0.3346  0.3274 -0.3533
 6257TIP3   OH240185   4.466   1.862  10.917  0.1438  0.0853 -0.1402
 6257TIP3    H140186   4.539   1.800  10.922  1.6232  1.7040 -0.5941
 6257TIP3    H240187   4.388   1.807  10.914  1.4198 -1.7925 -1.5409
 6258TIP3   OH240188   2.582   6.609   0.361 -0.5760 -0.5824  0.1530
 6258TIP3    H140189   2.605   6.605   0.268  1.5763 -2.0256  0.6700
 6258TIP3    H240190   2.561   6.701   0.377 -2.3483 -0.5331 -2.0127
 6259TIP3   OH240191   2.938   4.445  16.164  0.4115  0.0846  0.6169
 6259TIP3    H140192   2.938   4.457  16.259  0.9794  0.3979  0.5826
 6259TIP3    H240193   2.850   4.413  16.144  0.3319 -0.1178  1.2618
 6260TIP3   OH240194   6.718   4.700   3.262 -0.4098 -0.0704 -0.1100
 6260TIP3    H140195   6.752   4.775   3.214  0.4401 -0.2096  0.2622
 6260TIP3    H240196   6.750   4.712   3.352 -1.6330 -0.0258  0.3473
 6261TIP3   OH240197   5.189   1.863  15.344  0.3599  0.0844  0.1827
 6261TIP3    H140198   5.226   1.786  15.387 -0.6040 -0.4150  0.1414
 6261TIP3    H240199   5.157   1.917  15.416 -0.6398 -0.4353  0.1495
 6262TIP3   OH240200   4.700   3.096  14.259  0.5658 -0.2627  0.6419
 6262TIP3    H140201   4.756   3.169  14.288 -0.1535  0.8964 -0.7607
 6262TIP3    H240202   4.716   3.091  14.164 -1.8549  0.2615  0.1577
 6263TIP3   OH240203   2.932   2.708  12.400  0.0857 -0.1656 -1.0116
 6263TIP3    H140204   2.929   2.801  12.377  0.5838 -0.1876 -1.1678
 6263TIP3    H240205   2.842   2.688  12.426  0.3802  0.8406  0.9787
 6264TIP3   OH240206   0.759   4.987   5.271 -0.2264  0.1279 -0.1052
 6264TIP3    H140207   0.826   4.921   5.289  0.6633  0.9421 -0.3870
 6264TIP3    H240208   0.681   4.935   5.248  0.1678 -0.8313  0.6258
 6265TIP3   OH240209   6.621   6.484  13.023  0.0574  0.0284  0.1250
 6265TIP3    H140210   6.594   6.437  13.102  2.1423 -0.3904  0.6220
 6265TIP3    H240211   6.587   6.572  13.035  1.1809  0.2474  1.9800
 6266TIP3   OH240212   5.613   2.508   0.524  0.5190 -0.0469  0.3175
 6266TIP3    H140213   5.680   2.515   0.457 -0.4253 -2.0683 -0.9520
 6266TIP3    H240214   5.650   2.449   0.590  0.1453 -0.9102 -0.2273
 6267TIP3   OH240215   3.043   0.719   4.556  0.6909  0.3234  0.6371
 6267TIP3    H140216   3.119   0.750   4.507  0.7349  1.3074  1.2977
 6267TIP3    H240217   3.071   0.635   4.592  1.3117  0.4695  0.5056
 6268TIP3   OH240218   3.565   0.119  15.490  0.8502  0.8607  0.7467
 6268TIP3    H140219   3.536   0.171  15.565  1.1301  1.0547  0.7186
 6268TIP3    H240220   3.494   0.128  15.426  0.4244  0.3658  1.1423
 6269TIP3   OH240221   3.464   5.100   5.903  0.4696 -0.2392  0.3026
 6269TIP3    H140222   3.432   5.186   5.875  0.2851 -0.8000 -1.3536
 6269TIP3    H240223   3.554   5.096   5.869  0.0571 -1.1585 -0.7260
 6270TIP3   OH240224   2.020   0.332  17.173 -0.3274  0.1977  0.3202
 6270TIP3    H140225   1.960   0.387  17.224  0.8317  1.2436  0.6009
 6270TIP3    H240226   1.968   0.255  17.150 -1.5582  0.7475  1.1513
 6271TIP3   OH240227   0.347   0.036  11.906 -0.1079 -0.0481  0.5572
 6271TIP3    H140228   0.252   0.041  11.913 -0.2540  0.1321 -1.1467
 6271TIP3    H240229   0.377   0.126  11.921 -0.3917  0.3061 -0.8496
 6272TIP3   OH240230   1.176   6.378   0.524 -0.2511  0.3661 -0.1849
 6272TIP3    H140231   1.087   6.408   0.503 -0.3228  0.2911  0.0165
 6272TIP3    H240232   1.175   6.285   0.501 -0.3394  0.2757  0.1803
 6273TIP3   OH240233   0.309   1.296   4.165 -0.1142  0.6390  0.3253
 6273TIP3    H140234   0.327   1.297   4.259  0.4567  1.0025  0.2188
 6273TIP3    H240235   0.337   1.209   4.136  2.5108  1.4937 -0.0023
 6274TIP3   OH240236   2.256   4.649   1.004  1.2649  0.1970 -0.2397
 6274TIP3    H140237   2.213   4.716   1.058  0.5144  1.0021 -1.7545
 6274TIP3    H240238   2.189   4.582   0.991  0.6630  1.0520 -1.9088
 6275TIP3   OH240239   2.594   6.120  17.112 -0.1319  0.2458  0.1115
 6275TIP3    H140240   2.546   6.066  17.175  1.5226  0.0991  1.3037
 6275TIP3    H240241   2.644   6.181  17.165  1.1491  0.2714 -1.0541
 6276TIP3   OH240242   4.760   2.932   3.936 -0.2803 -0.6058  0.6235
 6276TIP3    H140243   4.812   2.927   3.856  0.1637 -0.4433  0.8958
 6276TIP3    H240244   4.819   2.971   4.001 -0.9230  0.1372  0.7895
 6277TIP3   OH240245   6.217   3.903   2.682 -0.0834  0.4964 -0.0114
 6277TIP3    H140246   6.138   3.875   2.637 -0.1331 -0.8022  0.8166
 6277TIP3    H240247   6.186   3.936   2.767  0.2770 -0.4563  0.5052
 6278TIP3   OH240248   6.688   3.756   4.638 -0.0083  0.5723  0.2645
 6278TIP3    H140249   6.596   3.741   4.619  0.7278  0.1026 -3.8000
 6278TIP3    H240250   6.712   3.832   4.585  2.3051 -0.4295 -0.2674
 6279TIP3   OH240251   1.233   5.049   5.861 -0.4691 -0.3226  0.0929
 6279TIP3    H140252   1.198   5.104   5.791 -0.3226 -1.3707 -0.8231
 6279TIP3    H240253   1.168   5.055   5.932 -0.1331  1.5380  0.2867
 6280TIP3   OH240254   4.315   2.756   4.575 -0.1702 -0.0852 -0.1136
 6280TIP3    H140255   4.359   2.838   4.599 -2.6136  1.7748 -1.5122
 6280TIP3    H240256   4.280   2.723   4.657 -0.0532  0.8545  0.3328
 6281TIP3   OH240257   0.335   2.135   0.074 -0.0461  0.9966 -0.4915
 6281TIP3    H140258   0.246   2.171   0.072  0.5067  2.4603  0.0709
 6281TIP3    H240259   0.390   2.207   0.103  1.2522 -0.0847 -0.1409
 6282TIP3   OH240260   4.292   4.736   0.881  0.5118 -0.1352  0.1456
 6282TIP3    H140261   4.305   4.801   0.949 -0.0370  0.5896 -0.4337
 6282TIP3    H240262   4.366   4.675   0.891  0.2592 -0.2315  1.5844
 6283TIP3   OH240263   3.964   5.006   5.355 -0.9212 -0.4448 -0.1914
 6283TIP3    H140264   3.936   4.941   5.420  0.7707 -0.7141  0.3181
 6283TIP3    H240265   4.004   5.076   5.407 -0.7100 -0.0498 -0.8794
 6284TIP3   OH240266   3.129   1.438   0.685  0.1097  0.8022  0.3066
 6284TIP3    H140267   3.223   1.454   0.681  0.5280 -1.5477 -1.5614
 6284TIP3    H240268   3.109   1.391   0.604 -2.5314  0.5151  1.0247
 6285TIP3   OH240269   6.440   0.894   4.186  0.3684  0.3724  0.1115
 6285TIP3    H140270   6.516   0.852   4.146  0.5845  0.5562  0.3316
 6285TIP3    H240271   6.400   0.825   4.239  1.7053  0.8837  1.8725
 6286TIP3   OH240272   1.765   2.510   5.723 -0.2199 -0.0955  0.2655
 6286TIP3    H140273   1.671   2.514   5.705 -0.0222 -1.2174 -1.2170
 6286TIP3    H240274   1.772   2.469   5.810 -1.0865 -1.6156 -0.3430
 6287TIP3   OH240275   5.564   3.922   1.279  0.0724 -0.5172 -0.4355
 6287TIP3    H140276   5.580   3.933   1.372 -1.7921  0.4806 -0.1782
 6287TIP3    H240277   5.642   3.957   1.236 -0.4659  2.3107  0.6953
 6288TIP3   OH240278   2.845   6.188   2.981  0.1865  0.2446 -0.4505
 6288TIP3    H140279   2.853   6.159   2.890 -0.1811  2.1715 -1.1346
 6288TIP3    H240280   2.751   6.182   3.000  0.5234 -2.8025  0.7872
 6289TIP3   OH240281   3.867   6.734  10.830  0.6586  0.2634 -0.2074
 6289TIP3    H140282   3.908   6.701  10.750 -1.9882 -0.2466 -1.4582
 6289TIP3    H240283   3.797   6.791  10.800 -0.9128 -0.5324  1.6966
 6290TIP3   OH240284   2.132   5.422   0.777 -0.1218  0.3605  0.0402
 6290TIP3    H140285   2.087   5.410   0.861 -0.2268 -1.1043 -0.1978
 6290TIP3    H240286   2.197   5.352   0.774  1.0270  1.4127 -0.3816
 6291TIP3   OH240287   1.786   3.610   4.616  0.1517 -0.1368 -0.1875
 6291TIP3    H140288   1.854   3.661   4.658 -0.3651  0.4305 -0.0359
 6291TIP3    H240289   1.801   3.520   4.647 -0.0560  0.2223  0.9958
 6292TIP3   OH240290   4.744   1.228  16.311  0.0033  0.3926 -0.5574
 6292TIP3    H140291   4.793   1.147  16.326 -1.0546 -0.4488 -1.4962
 6292TIP3    H240292   4.670   1.201  16.255 -0.2028  2.0530 -1.1236
 6293TIP3   OH240293   2.124   0.482  14.341 -0.0826 -0.0801 -0.8317
 6293TIP3    H140294   2.102   0.408  14.284  2.1349  0.0099 -1.9084
 6293TIP3    H240295   2.211   0.460  14.376 -0.5263  0.8253  0.9345
 6294TIP3   OH240296   4.959   2.436  14.757  0.3473 -0.1799  0.4531
 6294TIP3    H140297   5.040   2.468  14.798  0.1488 -0.5353  1.1351
 6294TIP3    H240298   4.892   2.497  14.788  0.4112  0.3614 -0.4420
 6295TIP3   OH240299   2.973   4.091  12.401  0.0772 -0.3286 -0.5198
 6295TIP3    H140300   3.045   4.102  12.338 -0.3320  0.9675 -0.7868
 6295TIP3    H240301   2.923   4.172  12.395 -0.0230 -0.1901  1.4284
 6296TIP3   OH240302   5.868   1.561   4.690  0.6374  0.0609  0.5778
 6296TIP3    H140303   5.881   1.493   4.756  0.6312  0.4106  0.9381
 6296TIP3    H240304   5.917   1.636   4.723 -0.6573  0.7580  0.9695
 6297TIP3   OH240305   0.839   3.430   0.681 -0.6147  0.1890 -0.0698
 6297TIP3    H140306   0.775   3.498   0.700  0.8614  1.3332  1.1450
 6297TIP3    H240307   0.876   3.453   0.596 -1.3762 -0.1521 -0.5029
 6298TIP3   OH240308   3.894   1.548  16.285 -0.7720  0.3373  0.2018
 6298TIP3    H140309   3.887   1.562  16.379  2.1515  1.9778  0.2665
 6298TIP3    H240310   3.896   1.453  16.275  2.5366  0.0566  2.2442
 6299TIP3   OH240311   1.262   2.720   0.098 -0.3575 -0.0488  0.2886
 6299TIP3    H140312   1.217   2.796   0.135 -0.3441 -0.3076  0.8372
 6299TIP3    H240313   1.290   2.669   0.174 -0.9016 -0.9199 -0.0929
 6300TIP3   OH240314   3.580   4.958  15.640  0.6214  0.5579  0.8320
 6300TIP3    H140315   3.518   4.996  15.701  0.1451 -0.3367  0.9262
 6300TIP3    H240316   3.662   4.950  15.689 -0.0984 -1.4090  1.8533
 6301TIP3   OH240317   3.013   6.607  15.383  0.2346  0.1260  0.1136
 6301TIP3    H140318   3.038   6.515  15.379  0.1721  0.0744  0.9107
 6301TIP3    H240319   2.937   6.613  15.324 -0.5963 -0.6067  1.0822
 6302TIP3   OH240320   2.638   2.648  11.865  0.2065 -0.0531 -0.2383
 6302TIP3    H140321   2.629   2.631  11.959 -0.8626 -1.3563 -0.5397
 6302TIP3    H240322   2.581   2.724  11.849  0.1004 -0.0549  0.1157
 6303TIP3   OH240323   3.038   2.691   2.062  0.1820 -0.0345  0.1895
 6303TIP3    H140324   3.077   2.775   2.085 -0.6070  0.3287  0.2376
 6303TIP3    H240325   3.103   2.648   2.006  0.3437  0.8481 -0.3037
 6304TIP3   OH240326   3.678   1.051  15.910  0.3110  0.1480 -0.2079
 6304TIP3    H140327   3.746   0.993  15.875 -0.0969 -0.6237  0.2543
 6304TIP3    H240328   3.599   0.997  15.912 -0.7526  1.4782 -2.2633
 6305TIP3   OH240329   3.755   0.460   4.900 -0.4398 -0.0160 -0.5470
 6305TIP3    H140330   3.745   0.460   4.995 -4.1692 -1.6655 -0.7363
 6305TIP3    H240331   3.799   0.377   4.881 -0.9453 -0.3571 -0.2726
 6306TIP3   OH240332   6.242   5.430   4.411 -0.1293 -0.1187  0.0275
 6306TIP3    H140333   6.309   5.384   4.360 -0.5842 -0.2316 -0.4775
 6306TIP3    H240334   6.284   5.513   4.435  0.5120 -0.5697  0.5095
 6307TIP3   OH240335   1.556   4.726   0.801 -0.8564  0.2449 -0.4505
 6307TIP3    H140336   1.571   4.817   0.774 -0.0740  1.1344  2.6226
 6307TIP3    H240337   1.463   4.721   0.819 -0.8211  0.5971 -0.1556
 6308TIP3   OH240338   1.785   2.125  11.383  0.4030 -0.0947 -0.2959
 6308TIP3    H140339   1.867   2.160  11.349  0.0580 -0.3210 -1.4111
 6308TIP3    H240340   1.717   2.183  11.349 -0.1732 -1.7451 -2.1319
 6309TIP3   OH240341   1.702   2.834  11.027  0.1881  0.0341  0.4317
 6309TIP3    H140342   1.608   2.843  11.006  0.4969  0.1670 -1.0273
 6309TIP3    H240343   1.704   2.779  11.105 -1.1407  0.7549  1.0134
 6310TIP3   OH240344   0.995   0.160   5.661 -0.0810 -0.2843 -0.4950
 6310TIP3    H140345   0.909   0.202   5.659 -0.4152 -0.9587 -2.0070
 6310TIP3    H240346   1.018   0.149   5.568  1.7719  0.1292 -0.1211
 6311TIP3   OH240347   1.082   4.106   5.380 -0.7367  0.8460  0.0876
 6311TIP3    H140348   1.168   4.136   5.409 -0.2716  1.7189 -2.0225
 6311TIP3    H240349   1.079   4.014   5.406  0.7097  0.8834  0.4686
 6312TIP3   OH240350   6.346   6.251   5.625  0.2730 -0.0014 -0.7427
 6312TIP3    H140351   6.354   6.256   5.720  1.5819 -0.2167 -0.8296
 6312TIP3    H240352   6.400   6.323   5.592  0.7179 -0.5983 -1.3409
 6313TIP3   OH240353   2.542   2.310   3.073 -0.1180  0.2203 -0.2200
 6313TIP3    H140354   2.553   2.299   2.979  1.2540  0.0467 -0.0679
 6313TIP3    H240355   2.496   2.231   3.102  1.5934 -0.9067 -0.4321
 6314TIP3   OH240356   6.254   0.555   4.569  0.0495 -0.0912 -0.1212
 6314TIP3    H140357   6.245   0.565   4.664  0.6628  0.8783 -0.1498
 6314TIP3    H240358   6.237   0.462   4.553 -0.7145 -0.1354  0.8554
 6315TIP3   OH240359   1.991   6.231  16.567  0.2299  0.3642 -0.1962
 6315TIP3    H140360   1.926   6.190  16.624  1.4467 -2.8872 -0.9576
 6315TIP3    H240361   2.072   6.229  16.617  0.4478  1.3853 -0.4870
 6316TIP3   OH240362   5.025   4.037  13.085  0.0805  0.3146  0.1232
 6316TIP3    H140363   5.111   4.003  13.111 -0.2738 -0.9991 -0.3295
 6316TIP3    H240364   5.013   4.116  13.138  1.0021 -0.2018  1.1387
 6317TIP3   OH240365   0.923   5.004   3.513  0.5866  0.1973  0.1456
 6317TIP3    H140366   0.834   4.974   3.532  0.5000 -1.1119 -2.0723
 6317TIP3    H240367   0.969   4.995   3.597 -1.1978  0.3971  1.2057
 6318TIP3   OH240368   3.053   3.344   3.958  0.1137 -0.1348 -0.6560
 6318TIP3    H140369   3.104   3.420   3.984 -1.4047  1.6252 -2.5060
 6318TIP3    H240370   2.971   3.352   4.007  0.1146 -0.8505 -0.5244
 6319TIP3   OH240371   1.888   6.393   0.849  0.2845  0.2500  0.4993
 6319TIP3    H140372   1.964   6.450   0.864 -0.3264  1.2151  0.0293
 6319TIP3    H240373   1.916   6.333   0.781  1.0988 -0.3349  1.3248
 6320TIP3   OH240374   5.128   5.388  17.103  0.1006  0.1726  0.4393
 6320TIP3    H140375   5.187   5.407  17.176  0.8959 -0.7347  0.0521
 6320TIP3    H240376   5.056   5.451  17.113 -2.0926 -2.4819  4.5312
 6321TIP3   OH240377   2.999   0.884  13.456  0.1378  0.1367  0.3746
 6321TIP3    H140378   2.983   0.893  13.550  0.0193  0.5294  0.3194
 6321TIP3    H240379   2.966   0.797  13.434 -1.6628  0.7858  0.3340
 6322TIP3   OH240380   1.131   6.271   0.153 -0.4043 -0.0814  0.1961
 6322TIP3    H140381   1.181   6.208   0.101  0.8506  0.7892  0.2872
 6322TIP3    H240382   1.051   6.286   0.104 -0.0757 -0.6866 -0.5346
 6323TIP3   OH240383   6.385   6.735   6.511 -0.1015 -0.0504  0.2275
 6323TIP3    H140384   6.412   6.827   6.511 -1.0740  0.2624 -0.7933
 6323TIP3    H240385   6.412   6.702   6.425  0.2671 -0.7307  0.5977
 6324TIP3   OH240386   5.427   2.430   5.759 -0.6013 -0.2553 -0.0255
 6324TIP3    H140387   5.516   2.465   5.746 -0.7998  0.0867 -0.4854
 6324TIP3    H240388   5.370   2.490   5.711 -1.0021 -0.9218 -0.4148
 6325TIP3   OH240389   5.045   5.483  10.347 -0.9695 -0.0609 -1.2272
 6325TIP3    H140390   5.033   5.392  10.376 -0.6226  0.1786 -0.3075
 6325TIP3    H240391   4.958   5.523  10.355 -0.9873 -0.1399 -1.0291
 6326TIP3   OH240392   3.303   3.174   1.471 -0.0693  0.4997  0.4739
 6326TIP3    H140393   3.368   3.234   1.507  0.8572  0.3776 -0.9426
 6326TIP3    H240394   3.218   3.214   1.492  0.4546  0.9446  1.8413
 6327TIP3   OH240395   5.608   3.689  11.959 -0.2104  0.1883 -0.7171
 6327TIP3    H140396   5.517   3.710  11.938 -0.6323 -0.2653  0.5723
 6327TIP3    H240397   5.621   3.728  12.046  1.0368  0.8244 -1.1695
 6328TIP3   OH240398   5.101   4.763  15.069  0.5481 -0.1569 -0.2439
 6328TIP3    H140399   5.021   4.816  15.067  0.0648 -0.8291  0.5076
 6328TIP3    H240400   5.171   4.826  15.086  0.4100  0.6715 -2.4145
 6329TIP3   OH240401   1.528   2.849   6.188  0.6218 -0.6877 -1.0252
 6329TIP3    H140402   1.580   2.804   6.255 -0.2243  0.2775  0.3140
 6329TIP3    H240403   1.461   2.896   6.237  0.3510  0.5508 -2.5265
 6330TIP3   OH240404   4.214   3.910   4.853 -0.0573  0.2455 -0.4522
 6330TIP3    H140405   4.309   3.903   4.865 -0.0771 -1.3398 -0.9888
 6330TIP3    H240406   4.178   3.891   4.940  0.0786 -1.9389 -0.8044
 6331TIP3   OH240407   3.576   1.353  15.965 -0.5083  0.2515  0.4336
 6331TIP3    H140408   3.553   1.397  15.883  0.9537  0.5253  0.1445
 6331TIP3    H240409   3.542   1.264  15.954  1.8374 -0.4950 -1.5846
 6332TIP3   OH240410   2.796   1.514  15.317 -0.5668  0.1333 -0.7007
 6332TIP3    H140411   2.761   1.450  15.380 -1.2992  0.9025 -0.3144
 6332TIP3    H240412   2.888   1.523  15.341 -0.9677  0.8765  0.6861
 6333TIP3   OH240413   2.139   2.788   4.632  0.0368  0.4952 -0.1799
 6333TIP3    H140414   2.104   2.769   4.719 -1.1057 -0.2749 -0.7667
 6333TIP3    H240415   2.163   2.702   4.597 -0.0246  0.7361 -0.8230
 6334TIP3   OH240416   6.614   6.463   5.038  0.1798  0.7124 -0.0859
 6334TIP3    H140417   6.630   6.531   4.973  0.5252  1.8452  1.1503
 6334TIP3    H240418   6.683   6.476   5.103 -0.2620 -0.2859  0.6013
 6335TIP3   OH240419   1.903   4.825   4.021  0.1717 -0.5535 -0.4462
 6335TIP3    H140420   1.928   4.900   3.966  2.0152 -3.4788 -4.0953
 6335TIP3    H240421   1.975   4.815   4.083  0.3464  0.1575 -0.5230
 6336TIP3   OH240422   0.654   0.505  15.244 -0.6435 -0.1230  0.2241
 6336TIP3    H140423   0.657   0.594  15.210  0.2277 -0.1783  0.1236
 6336TIP3    H240424   0.744   0.488  15.273 -0.6434 -1.1979 -0.3607
 6337TIP3   OH240425   6.340   4.776   2.635  0.2586 -0.3185  0.4867
 6337TIP3    H140426   6.353   4.793   2.729  1.9028 -0.2199  0.2564
 6337TIP3    H240427   6.274   4.706   2.633 -0.2879  0.1320  1.6908
 6338TIP3   OH240428   0.012   1.293  12.079  0.0237  0.0717  0.0539
 6338TIP3    H140429  -0.075   1.287  12.039 -0.3857 -2.0359  1.1236
 6338TIP3    H240430   0.071   1.259  12.011 -0.0079  1.1847 -0.5490
 6339TIP3   OH240431   4.058   0.703  15.765 -0.2458 -0.2832  0.8308
 6339TIP3    H140432   4.151   0.680  15.767 -0.6660 -2.2616 -0.1081
 6339TIP3    H240433   4.038   0.715  15.672 -1.0540 -0.4390  0.9762
 6340TIP3   OH240434   1.991   3.788  15.267 -0.0982 -0.7724 -0.5158
 6340TIP3    H140435   2.077   3.809  15.306  0.5023 -2.0013 -1.1169
 6340TIP3    H240436   1.956   3.873  15.239  1.2443 -0.3129 -0.8942
 6341TIP3   OH240437   4.621   3.482  11.999  0.2310 -0.1337  0.3027
 6341TIP3    H140438   4.687   3.424  12.036 -0.1387 -0.0248  1.1361
 6341TIP3    H240439   4.672   3.553  11.958  0.6310 -0.1112  0.8403
 6342TIP3   OH240440   6.699   3.161  10.347 -0.2496  0.4567 -0.5535
 6342TIP3    H140441   6.713   3.066  10.349 -0.3715  0.3644 -2.3233
 6342TIP3    H240442   6.605   3.171  10.361 -0.4593  0.2106 -1.7008
 6343TIP3   OH240443   3.155   2.501  11.710  0.1806  0.1382  0.0772
 6343TIP3    H140444   3.248   2.507  11.687  0.1470  2.6024  0.2878
 6343TIP3    H240445   3.113   2.569  11.657 -1.6018 -1.1898 -0.3093
 6344TIP3   OH240446   6.196   3.360  12.602 -0.5281  0.1930  0.3690
 6344TIP3    H140447   6.162   3.283  12.557  0.7743  0.6548 -1.5337
 6344TIP3    H240448   6.120   3.415  12.617 -1.3127 -0.9687  0.7754
 6345TIP3   OH240449   2.520   6.437   2.290 -0.0219  0.5074  0.3120
 6345TIP3    H140450   2.521   6.368   2.224  0.7659  0.6869  0.1264
 6345TIP3    H240451   2.546   6.392   2.371  0.8971  0.6549  0.1095
 6346TIP3   OH240452   4.725   2.820   4.422 -0.1654  0.5594  0.0859
 6346TIP3    H140453   4.668   2.893   4.396  0.2902  0.7605 -0.3412
 6346TIP3    H240454   4.795   2.861   4.473  0.6570  0.5545 -1.0160
 6347TIP3   OH240455   4.593   4.982  14.262 -0.3072  0.3732  0.0397
 6347TIP3    H140456   4.636   5.017  14.340 -0.2608  1.3407 -0.3948
 6347TIP3    H240457   4.663   4.975  14.197 -0.2296 -1.0171  0.2638
 6348TIP3   OH240458   5.101   4.287   6.230 -0.6419  0.1434 -0.3229
 6348TIP3    H140459   5.146   4.255   6.309 -1.7887 -1.5720 -0.2949
 6348TIP3    H240460   5.166   4.343   6.186  0.6975 -0.4171  0.8463
 6349TIP3   OH240461   4.742   4.807  10.801 -0.2997  0.3185  0.7734
 6349TIP3    H140462   4.717   4.826  10.891 -2.2254  0.0208  0.3329
 6349TIP3    H240463   4.662   4.778  10.758  0.5713  0.3858 -1.0328
 6350TIP3   OH240464   2.420   4.959  14.469 -0.0113 -0.0845 -0.6866
 6350TIP3    H140465   2.473   5.024  14.422  1.6403  0.0556  1.2248
 6350TIP3    H240466   2.330   4.980  14.446  0.4200  3.1811  0.1540
 6351TIP3   OH240467   5.378   0.752   3.449 -0.0559  0.2521 -0.0791
 6351TIP3    H140468   5.437   0.730   3.521  1.4845  0.0426 -1.3332
 6351TIP3    H240469   5.360   0.668   3.407 -0.5864  0.4270 -0.2023
 6352TIP3   OH240470   4.234   5.850   0.724 -0.5139  0.7000 -0.2605
 6352TIP3    H140471   4.307   5.793   0.746  0.1880  1.9386  0.7532
 6352TIP3    H240472   4.183   5.855   0.805 -2.5236 -1.1807 -1.2825
 6353TIP3   OH240473   4.708   5.565  16.779 -0.2206 -0.0103  0.3185
 6353TIP3    H140474   4.799   5.588  16.799 -0.3232  1.3589 -0.6442
 6353TIP3    H240475   4.664   5.563  16.864  0.9019 -1.7240  0.9122
 6354TIP3   OH240476   3.303   1.432  15.790 -0.0123 -0.0288 -0.0324
 6354TIP3    H140477   3.358   1.510  15.778 -1.5831  1.0507 -0.5366
 6354TIP3    H240478   3.282   1.432  15.883 -0.1206  0.2427 -0.0546
 6355TIP3   OH240479   0.295   6.579  14.830 -0.3845 -0.4171  0.2518
 6355TIP3    H140480   0.370   6.595  14.772 -0.1498  0.6647  0.8335
 6355TIP3    H240481   0.333   6.541  14.909 -0.6272 -1.2644 -0.0355
 6356TIP3   OH240482   1.449   3.761   4.123 -0.2376  0.1889  0.1531
 6356TIP3    H140483   1.404   3.697   4.068  1.2577 -0.5810 -0.2334
 6356TIP3    H240484   1.484   3.710   4.196  0.8732  0.5543 -0.0961
 6357TIP3   OH240485   1.050   0.904  12.657  0.3062  0.0941 -0.2412
 6357TIP3    H140486   1.055   0.820  12.702 -3.3669 -0.8052 -1.2192
 6357TIP3    H240487   0.994   0.887  12.581  1.0221  3.0333 -1.5588
 6358TIP3   OH240488   4.358   3.464   0.190 -0.6052 -1.0242  0.1340
 6358TIP3    H140489   4.298   3.535   0.164 -1.6226 -2.0220 -0.3312
 6358TIP3    H240490   4.423   3.462   0.119 -0.0271  0.0156  0.6028
 6359TIP3   OH240491   2.215   4.780  12.564  0.5363  0.4329  0.2166
 6359TIP3    H140492   2.127   4.818  12.554 -0.5575 -2.4944 -3.8845
 6359TIP3    H240493   2.272   4.839  12.515  0.5501  1.2669  1.1978
 6360TIP3   OH240494   1.494   5.220  12.313 -0.1600  0.4452  0.2158
 6360TIP3    H140495   1.405   5.253  12.327  0.1489  0.9138  1.1772
 6360TIP3    H240496   1.529   5.208  12.401  0.5781 -0.1725 -0.1491
 6361TIP3   OH240497   1.867   1.264  12.662 -0.1229 -0.6456 -0.2621
 6361TIP3    H140498   1.870   1.350  12.621 -0.2917 -0.5551 -0.0860
 6361TIP3    H240499   1.908   1.205  12.599 -1.5288 -0.7498 -1.1151
 6362TIP3   OH240500   4.979   6.612   2.264  0.5288 -0.2775 -0.0330
 6362TIP3    H140501   4.980   6.613   2.359  0.0815  1.5957 -0.0035
 6362TIP3    H240502   4.887   6.600   2.241  0.0203  2.9415 -0.1126
 6363TIP3   OH240503   1.116   4.089  12.444  0.9351  0.2049  0.4523
 6363TIP3    H140504   1.206   4.088  12.410  1.1556 -0.8004  1.0328
 6363TIP3    H240505   1.105   4.003  12.484 -1.3659 -1.0428 -2.4515
 6364TIP3   OH240506   6.797   2.714   5.530  0.1322  0.5835  0.1781
 6364TIP3    H140507   6.868   2.744   5.587  1.4511 -1.1452 -0.4711
 6364TIP3    H240508   6.824   2.743   5.442 -0.6058  1.0037  0.0844
 6365TIP3   OH240509   5.891   6.792  10.903  0.6290  0.1702 -0.3809
 6365TIP3    H140510   5.799   6.778  10.880  0.6509 -0.5393 -0.0671
 6365TIP3    H240511   5.935   6.711  10.877  0.7897 -0.3519  1.3345
 6366TIP3   OH240512   0.952   6.508   1.807 -0.0021  0.3053  0.3181
 6366TIP3    H140513   0.907   6.424   1.801 -0.0276  0.2994  0.5863
 6366TIP3    H240514   0.991   6.521   1.720 -0.8527  0.4968 -0.0396
 6367TIP3   OH240515   2.048   0.959   1.930 -0.1496  0.1602  0.6998
 6367TIP3    H140516   2.073   0.878   1.974  0.8159 -0.1354 -0.3430
 6367TIP3    H240517   2.041   1.024   2.000  1.8888 -0.1579  1.2381
 6368TIP3   OH240518   4.660   0.224  14.805  0.2454  0.8563  0.1808
 6368TIP3    H140519   4.621   0.154  14.752  0.6609  0.6135  0.1920
 6368TIP3    H240520   4.742   0.245  14.760 -0.0714  1.6277 -0.0561
 6369TIP3   OH240521   2.733   2.067  13.907 -0.4329  0.3876 -0.5461
 6369TIP3    H140522   2.773   2.019  13.834  0.2320  1.5665 -0.9909
 6369TIP3    H240523   2.677   2.003  13.950  0.1198 -0.6720 -1.3519
 6370TIP3   OH240524   0.777   5.169  11.266 -0.5701 -0.3079  0.1144
 6370TIP3    H140525   0.728   5.109  11.322 -2.1438  0.4157 -0.4291
 6370TIP3    H240526   0.808   5.115  11.193 -3.2496 -0.2757 -1.1646
 6371TIP3   OH240527   0.616   0.001   0.567  0.7878 -1.0258  0.1419
 6371TIP3    H140528   0.586   0.022   0.478  2.4048 -0.8259 -0.3961
 6371TIP3    H240529   0.536  -0.014   0.616 -0.2715  1.1226 -0.7855
 6372TIP3   OH240530   2.939   0.713  13.029 -0.1925 -0.3484 -0.6869
 6372TIP3    H140531   3.023   0.759  13.031 -0.1978 -0.0976  3.5443
 6372TIP3    H240532   2.950   0.643  13.093 -3.3012 -0.0696  0.2810
 6373TIP3   OH240533   2.882   3.906   0.221  0.3934 -0.2160 -0.4076
 6373TIP3    H140534   2.886   3.856   0.303  1.1018 -0.1031 -0.3715
 6373TIP3    H240535   2.872   3.839   0.154  0.4048 -0.3485 -0.2788
 6374TIP3   OH240536   1.556   1.410   0.408 -0.4635 -0.2795 -0.1398
 6374TIP3    H140537   1.468   1.389   0.440  0.2840 -2.7271  0.4921
 6374TIP3    H240538   1.613   1.390   0.482  0.9979 -2.7843 -1.8260
 6375TIP3   OH240539   6.168   5.502   0.514  0.3308  0.2772  0.0284
 6375TIP3    H140540   6.116   5.441   0.567  1.0255  0.4182  0.8916
 6375TIP3    H240541   6.217   5.446   0.454 -0.0257  0.0770 -0.0818
 6376TIP3   OH240542   1.131   6.319  14.247 -0.5898 -0.2227  0.2683
 6376TIP3    H140543   1.061   6.260  14.218 -0.7368 -0.4823  1.0966
 6376TIP3    H240544   1.189   6.263  14.299  0.4347 -0.0852 -0.6989
 6377TIP3   OH240545   5.463   0.326  15.964  0.0026  0.2243 -0.2932
 6377TIP3    H140546   5.505   0.267  16.027  0.9997 -1.3511 -2.3239
 6377TIP3    H240547   5.375   0.290  15.952 -0.0934  0.3656 -0.0347
 6378TIP3   OH240548   3.013   2.767   1.381 -0.0053 -0.0877  0.7278
 6378TIP3    H140549   3.070   2.841   1.401  0.9829 -0.5887 -0.1283
 6378TIP3    H240550   2.954   2.761   1.456  1.7067 -0.1823  2.1233
 6379TIP3   OH240551   2.338   1.630   1.105  0.3346 -0.3825  0.4567
 6379TIP3    H140552   2.268   1.666   1.161  1.3324 -0.2780  1.6763
 6379TIP3    H240553   2.387   1.572   1.163  1.1473 -0.6063 -0.4411
 6380TIP3   OH240554   0.353   5.914   3.232  0.1749 -0.5891  0.5471
 6380TIP3    H140555   0.275   5.951   3.273  1.3558  0.6024  1.8056
 6380TIP3    H240556   0.361   5.961   3.149  0.1111  0.0506  0.8921
 6381TIP3   OH240557   6.469   6.397   3.237 -0.1255  0.0279 -0.1305
 6381TIP3    H140558   6.492   6.365   3.150  0.5280 -2.1959  0.7889
 6381TIP3    H240559   6.531   6.469   3.252 -0.3636  0.5577 -1.5484
 6382TIP3   OH240560   6.276   6.219  16.594  0.7518  0.1472 -0.0022
 6382TIP3    H140561   6.183   6.195  16.597  0.4136  1.1085 -1.7082
 6382TIP3    H240562   6.322   6.137  16.576  0.0017  0.0143 -1.4432
 6383TIP3   OH240563   1.213   4.876  14.272 -0.0073 -0.7071  0.0706
 6383TIP3    H140564   1.156   4.940  14.316 -1.1902 -1.5718 -0.1508
 6383TIP3    H240565   1.209   4.798  14.327 -0.5631 -1.4104 -0.9301
 6384TIP3   OH240566   0.913   5.725  16.714  0.2439  0.2990  0.0012
 6384TIP3    H140567   0.904   5.636  16.681  1.2613 -0.1556  0.8835
 6384TIP3    H240568   0.991   5.759  16.669  1.5115 -0.2490  1.7087
 6385TIP3   OH240569   6.621   4.440  11.734 -0.0536  0.3107 -0.0573
 6385TIP3    H140570   6.577   4.361  11.704 -0.3105  0.1175  0.7920
 6385TIP3    H240571   6.593   4.450  11.825  2.1308 -0.1473  0.7162
 6386TIP3   OH240572   2.906   0.412   5.139 -0.4877  0.3812  0.5244
 6386TIP3    H140573   2.919   0.501   5.106 -2.1013  0.6421  0.5192
 6386TIP3    H240574   2.829   0.380   5.092  1.0698 -1.7012 -0.7915
 6387TIP3   OH240575   0.457   5.602   1.358 -0.2769  0.2050  0.1623
 6387TIP3    H140576   0.384   5.552   1.396 -1.3719  0.3256 -1.6769
 6387TIP3    H240577   0.415   5.676   1.314  1.0828  1.0015  0.1408
 6388TIP3   OH240578   5.707   5.099   2.741 -0.3008 -0.4289 -0.7850
 6388TIP3    H140579   5.650   5.040   2.790 -0.4074 -0.2352 -0.6748
 6388TIP3    H240580   5.777   5.043   2.707 -0.2020 -0.5558 -0.3733
 6389TIP3   OH240581   3.208   3.896   1.812  0.6342  0.2763 -0.0684
 6389TIP3    H140582   3.302   3.914   1.809  0.7411 -0.0592  0.7642
 6389TIP3    H240583   3.202   3.801   1.799  0.1131  0.7045 -4.0273
 6390TIP3   OH240584   1.912   1.088   2.788 -0.0653  0.5605 -0.1135
 6390TIP3    H140585   1.856   1.011   2.798 -1.2083  1.3137 -0.4625
 6390TIP3    H240586   2.001   1.054   2.792 -0.5316 -0.6075  0.9960
 6391TIP3   OH240587   4.453   2.289   6.041  0.9681  0.1948 -0.3519
 6391TIP3    H140588   4.456   2.229   6.115 -0.1138  1.2483  0.5891
 6391TIP3    H240589   4.541   2.327   6.038  1.6112 -1.2434 -0.8473
 6392TIP3   OH240590   4.222   4.628   4.619  0.0524  0.1034 -0.5086
 6392TIP3    H140591   4.216   4.566   4.547 -1.6151  1.7761 -1.9235
 6392TIP3    H240592   4.138   4.622   4.664 -1.1548  2.8332 -2.1110
 6393TIP3   OH240593   2.296   6.377  16.475  0.5281 -0.0471 -0.4162
 6393TIP3    H140594   2.297   6.339  16.563  2.0701  1.3136  0.2171
 6393TIP3    H240595   2.379   6.425  16.469  0.1484  0.4426 -2.3722
 6394TIP3   OH240596   1.353   0.838   2.508  0.1486  0.9770 -0.0708
 6394TIP3    H140597   1.446   0.822   2.497  0.1595  1.3314 -0.5076
 6394TIP3    H240598   1.320   0.855   2.420 -0.1373  1.8458  0.1894
 6395TIP3   OH240599   1.797   4.168  13.943 -0.1307  0.7960  0.4908
 6395TIP3    H140600   1.706   4.195  13.954 -0.9091 -0.8848 -1.2007
 6395TIP3    H240601   1.837   4.238  13.891 -1.5057 -0.0448 -1.8867
 6396TIP3   OH240602   2.926   5.915   0.187  0.1976 -0.2910 -0.1750
 6396TIP3    H140603   2.918   5.861   0.108  1.8118  1.0729 -1.3458
 6396TIP3    H240604   3.016   5.899   0.218  0.2816  0.7919  0.1599
 6397TIP3   OH240605   2.637   4.254   0.774 -0.1327 -0.2673 -0.1077
 6397TIP3    H140606   2.561   4.294   0.817  0.6735 -1.4770  2.6657
 6397TIP3    H240607   2.706   4.319   0.782  0.0648 -0.5590  0.6606
 6398TIP3   OH240608   5.640   0.922   4.926  0.0130 -0.2821 -0.2907
 6398TIP3    H140609   5.566   0.914   4.867 -0.1087  2.5407 -0.6648
 6398TIP3    H240610   5.705   0.973   4.876  0.1710  1.6070  1.6986
 6399TIP3   OH240611   1.998   5.216   3.500 -0.1485  0.6355  0.3719
 6399TIP3    H140612   1.907   5.197   3.477 -0.3033 -1.0493  2.1366
 6399TIP3    H240613   2.034   5.259   3.423 -0.7287 -4.0056 -2.8525
 6400TIP3   OH240614   1.451   2.365   1.523  0.1306 -0.1824  0.0297
 6400TIP3    H140615   1.406   2.318   1.593 -1.0894 -0.2857 -0.8051
 6400TIP3    H240616   1.395   2.354   1.446  1.9245 -0.9254 -1.2506
 6401TIP3   OH240617   2.457   1.933  16.130  0.1123  0.3174  0.4695
 6401TIP3    H140618   2.379   1.986  16.114  0.8235  0.6614 -2.4855
 6401TIP3    H240619   2.433   1.845  16.100  1.4061  0.9020 -2.6982
 6402TIP3   OH240620   5.283   3.510   5.692  0.5979  0.4845 -0.9108
 6402TIP3    H140621   5.273   3.450   5.619  2.2959  1.2896 -1.8670
 6402TIP3    H240622   5.370   3.493   5.726 -0.0156  0.3911  0.7144
 6403TIP3   OH240623   3.794   3.532  10.355  0.1284 -0.2314 -0.4995
 6403TIP3    H140624   3.784   3.600  10.422  2.8096 -0.5106  0.3245
 6403TIP3    H240625   3.754   3.569  10.277 -0.9546  1.1178  0.6427
 6404TIP3   OH240626   0.485   4.813   0.176 -0.1643 -0.3394  0.1455
 6404TIP3    H140627   0.576   4.788   0.189  0.1865  0.7307 -0.2414
 6404TIP3    H240628   0.446   4.739   0.129  0.7799 -0.3120 -0.7005
 6405TIP3   OH240629   2.221   4.737  13.613  0.1994 -0.2740 -0.4858
 6405TIP3    H140630   2.316   4.744  13.608  0.1689  4.0026  1.0385
 6405TIP3    H240631   2.189   4.800  13.548 -1.4663  0.5356  1.0383
 6406TIP3   OH240632   2.269   5.644  12.914  0.7522 -0.3857 -0.3675
 6406TIP3    H140633   2.230   5.682  12.993  0.7926 -1.3765  0.1463
 6406TIP3    H240634   2.362   5.661  12.922  0.6774  0.1237 -0.5489
 6407TIP3   OH240635   2.493   5.896   1.352  0.0928  0.0842  0.4081
 6407TIP3    H140636   2.522   5.810   1.321 -0.3935 -0.2906  0.9615
 6407TIP3    H240637   2.398   5.897   1.336  0.0492  0.3974  0.6737
 6408TIP3   OH240638   5.386   1.174   0.006  0.4798  0.3270 -0.4359
 6408TIP3    H140639   5.291   1.179  -0.006  0.4294 -2.3835 -2.0260
 6408TIP3    H240640   5.421   1.234  -0.060 -0.1305 -0.3174 -1.3692
 6409TIP3   OH240641   0.596   0.419  16.280 -0.3036  0.5049 -0.1496
 6409TIP3    H140642   0.638   0.452  16.359  3.5226  1.0995 -2.2068
 6409TIP3    H240643   0.593   0.494  16.221 -1.5891 -0.2898 -1.1482
 6410TIP3   OH240644   0.989   4.542  13.400 -0.8384 -0.2598 -0.6300
 6410TIP3    H140645   1.022   4.528  13.311 -0.8048  2.5534 -1.1632
 6410TIP3    H240646   1.052   4.602  13.439 -0.6342 -1.7578  1.4988
 6411TIP3   OH240647   0.432   6.752  16.475 -0.1763  0.0310 -0.1957
 6411TIP3    H140648   0.387   6.734  16.393 -1.5804 -0.7256  0.7148
 6411TIP3    H240649   0.412   6.677  16.531  0.7148  0.5588  0.8722
 6412TIP3   OH240650   2.385   4.346   2.698  0.0503 -0.3259  0.5481
 6412TIP3    H140651   2.409   4.365   2.788 -0.6655  0.7580  0.5266
 6412TIP3    H240652   2.448   4.396   2.645 -1.7213  1.9661  0.4899
 6413TIP3   OH240653   2.149   2.545   6.139 -0.3060  0.0533 -0.7478
 6413TIP3    H140654   2.147   2.639   6.154 -0.0836  0.3639 -2.4729
 6413TIP3    H240655   2.071   2.528   6.085  0.3066 -0.5469 -1.4548
 6414TIP3   OH240656   1.870   6.639   4.522 -0.6719  0.0003 -0.1580
 6414TIP3    H140657   1.849   6.665   4.612 -0.3505 -0.1985 -0.0243
 6414TIP3    H240658   1.899   6.720   4.480  0.0001 -0.0725  0.1612
 6415TIP3   OH240659   6.628   2.167   5.803  0.0978 -0.1230  0.2297
 6415TIP3    H140660   6.700   2.226   5.781 -0.8740  1.4541  1.0926
 6415TIP3    H240661   6.611   2.182   5.896 -1.9729  0.3141 -0.1691
 6416TIP3   OH240662   0.710   5.051  15.539 -0.5358  0.5008 -0.2556
 6416TIP3    H140663   0.771   4.980  15.520  1.4906  1.7296  1.3050
 6416TIP3    H240664   0.742   5.125  15.488 -2.7245  0.3746 -2.0011
 6417TIP3   OH240665   1.981   1.699   0.423  0.2439  0.2107 -0.5806
 6417TIP3    H140666   2.044   1.762   0.455 -0.3742 -0.0629  1.3092
 6417TIP3    H240667   2.011   1.615   0.457 -1.3660  0.1430  0.8392
 6418TIP3   OH240668   6.546   3.280   1.934  0.6891 -0.6803  0.2248
 6418TIP3    H140669   6.458   3.309   1.959  1.4628  1.3733  0.8594
 6418TIP3    H240670   6.577   3.230   2.010  1.0843  1.0734  1.2895
 6419TIP3   OH240671   3.912   3.090   0.513 -0.3894 -0.0823  0.4129
 6419TIP3    H140672   3.926   3.035   0.436 -0.5229 -1.6156  1.4364
 6419TIP3    H240673   3.992   3.079   0.565 -0.7705  0.0172  1.0339
 6420TIP3   OH240674   6.148   1.513   6.536 -0.1485  0.3961  0.1322
 6420TIP3    H140675   6.073   1.572   6.536  1.2179  2.2161  0.4758
 6420TIP3    H240676   6.118   1.436   6.584 -3.3476 -1.1435 -3.6738
 6421TIP3   OH240677   4.091   4.929  16.489 -0.3615 -0.5502  0.3144
 6421TIP3    H140678   4.146   4.966  16.419  0.1060 -0.1215  0.8998
 6421TIP3    H240679   4.003   4.964  16.470 -0.0903  0.1902  0.3658
 6422TIP3   OH240680   3.181   6.645   4.061  0.0841  0.0275  0.0818
 6422TIP3    H140681   3.186   6.741   4.051 -1.0486  0.0097 -0.8849
 6422TIP3    H240682   3.120   6.617   3.993  1.3870 -1.5395 -0.5015
 6423TIP3   OH240683   0.623   5.057   2.640  0.1741  0.6524  0.5349
 6423TIP3    H140684   0.587   4.976   2.675  0.5608  0.7093  1.0673
 6423TIP3    H240685   0.713   5.061   2.673  1.0735 -0.0235 -1.6302
 6424TIP3   OH240686   6.758   6.468  16.284  0.1395  0.0994 -0.0379
 6424TIP3    H140687   6.816   6.469  16.208  1.4990 -2.3813  0.8604
 6424TIP3    H240688   6.670   6.463  16.246  0.7816 -0.9959 -1.4662
 6425TIP3   OH240689   4.485   2.967   1.589 -0.0041 -0.3047 -0.5764
 6425TIP3    H140690   4.472   2.873   1.590 -0.1406 -0.3300  1.8483
 6425TIP3    H240691   4.425   2.999   1.522 -1.3236 -1.7833 -0.1618
 6426TIP3   OH240692   1.326   1.205   4.862 -0.2679  0.1201  0.6719
 6426TIP3    H140693   1.239   1.177   4.892  0.4016 -2.7999  0.1549
 6426TIP3    H240694   1.372   1.229   4.942 -0.9971  0.0297  1.1316
 6427TIP3   OH240695   5.366   1.915   3.624 -0.5494  0.0655  0.3896
 6427TIP3    H140696   5.427   1.961   3.566  1.8331 -0.0332  2.6262
 6427TIP3    H240697   5.407   1.830   3.640 -3.1665 -1.5614 -0.8970
 6428TIP3   OH240698   6.077   0.340   6.408  0.6108  0.1941 -0.0825
 6428TIP3    H140699   6.100   0.250   6.435  1.2617  0.3291 -0.1806
 6428TIP3    H240700   6.011   0.328   6.340  0.2823 -0.1969  0.2949
 6429TIP3   OH240701   6.678   2.186  11.544  0.5332 -0.3250 -0.3861
 6429TIP3    H140702   6.597   2.193  11.493  0.7801 -0.2390 -0.7728
 6429TIP3    H240703   6.697   2.092  11.545 -0.0899 -0.4586  0.5385
 6430TIP3   OH240704   6.358   5.527   0.712  0.3008 -0.1050  0.2887
 6430TIP3    H140705   6.272   5.511   0.673  0.4251  0.6607 -0.3235
 6430TIP3    H240706   6.418   5.468   0.666  0.3092  0.2275 -0.1300
 6431TIP3   OH240707   1.549   5.702   3.249  0.3898 -0.1419 -0.2294
 6431TIP3    H140708   1.631   5.724   3.205  1.3117 -0.4762  1.2577
 6431TIP3    H240709   1.510   5.633   3.195  0.6126  0.6369 -1.4387
 6432TIP3   OH240710   1.236   3.096  13.079 -0.1103 -0.6935 -0.4733
 6432TIP3    H140711   1.148   3.111  13.113 -0.3426 -0.6180 -1.1096
 6432TIP3    H240712   1.228   3.105  12.984  0.3301 -1.8951 -0.6431
 6433TIP3   OH240713   1.528   5.808  15.380 -0.7014 -0.0303  0.4743
 6433TIP3    H140714   1.583   5.814  15.302  1.3099 -0.2074  1.7743
 6433TIP3    H240715   1.454   5.753  15.354  0.0884 -0.3579 -1.2051
 6434TIP3   OH240716   6.396   1.167   1.366 -0.3080 -0.3766  0.2195
 6434TIP3    H140717   6.331   1.141   1.430  1.0125 -0.1289  1.7380
 6434TIP3    H240718   6.356   1.150   1.281 -2.2493 -0.3861  1.1032
 6435TIP3   OH240719   4.029   2.419   0.820 -0.1603 -0.1444  0.0924
 6435TIP3    H140720   3.978   2.365   0.759  0.8418 -0.1422 -0.7733
 6435TIP3    H240721   4.075   2.481   0.764 -0.7639  1.1801  1.0257
 6436TIP3   OH240722   6.484   6.035   2.496 -0.0220 -0.0456 -0.0563
 6436TIP3    H140723   6.465   5.944   2.473 -0.5315 -0.3014  1.2683
 6436TIP3    H240724   6.524   6.030   2.583  1.0732  0.9213 -0.4727
 6437TIP3   OH240725   6.763   5.004  12.869 -0.8581  0.2497  0.1414
 6437TIP3    H140726   6.845   4.991  12.821 -0.9533 -3.0057  0.6513
 6437TIP3    H240727   6.762   5.098  12.889  2.4074  0.5436 -0.4727
 6438TIP3   OH240728   4.414   0.134   4.350  0.1916 -0.3265 -0.2531
 6438TIP3    H140729   4.396   0.221   4.312 -1.3495 -1.0395 -1.2742
 6438TIP3    H240730   4.377   0.139   4.438 -0.8363 -0.2623 -0.6768
 6439TIP3   OH240731   1.427   3.568  13.415 -0.3301 -0.2293 -0.0843
 6439TIP3    H140732   1.428   3.630  13.488  2.9811  0.8696 -0.8729
 6439TIP3    H240733   1.500   3.596  13.359 -0.9746 -2.7132 -2.3697
 6440TIP3   OH240734   1.095   0.664  16.488 -0.7244  0.3760 -0.4943
 6440TIP3    H140735   1.110   0.680  16.395 -0.4120  1.1074 -0.3260
 6440TIP3    H240736   1.024   0.724  16.512 -1.0798 -0.0969 -0.3481
 6441TIP3   OH240737   5.336   1.665  15.782 -0.4085 -0.2929 -0.1782
 6441TIP3    H140738   5.340   1.759  15.798  1.4043 -0.1166 -1.3322
 6441TIP3    H240739   5.409   1.629  15.833 -0.8710 -1.0285 -0.0273
 6442TIP3   OH240740   1.343   3.955   5.247  0.2644  0.6081  0.1556
 6442TIP3    H140741   1.254   3.922   5.248  0.0930  1.0722  0.5395
 6442TIP3    H240742   1.362   3.975   5.339  0.0311  2.4491 -0.1735
 6443TIP3   OH240743   2.284   1.135   3.484 -0.4581  0.2624  0.5017
 6443TIP3    H140744   2.306   1.043   3.466  0.0867  0.1600  1.6403
 6443TIP3    H240745   2.302   1.180   3.401 -0.3003 -0.5723  0.0678
 6444TIP3   OH240746   2.177   4.400  14.074 -0.5006 -0.0736 -0.7176
 6444TIP3    H140747   2.089   4.439  14.072 -2.1494 -3.4650 -2.0197
 6444TIP3    H240748   2.206   4.403  13.983  1.2041  1.7234 -0.1897
 6445TIP3   OH240749   0.803   3.094  15.370 -0.0801 -0.5350  0.0907
 6445TIP3    H140750   0.854   3.137  15.438 -0.5529  1.2627 -0.6416
 6445TIP3    H240751   0.813   3.149  15.293 -2.0890 -0.7967 -0.4289
 6446TIP3   OH240752   1.106   4.410   3.752 -0.7727 -0.0918 -0.4962
 6446TIP3    H140753   1.178   4.385   3.693  1.2244  0.1904  1.6919
 6446TIP3    H240754   1.125   4.500   3.777 -1.3983 -0.2854  0.7735
 6447TIP3   OH240755   2.320   6.247   5.493  0.3728 -0.1048  0.4522
 6447TIP3    H140756   2.346   6.326   5.541  0.0013 -0.2562  0.9061
 6447TIP3    H240757   2.384   6.181   5.519  1.6286  0.4302 -1.1060
 6448TIP3   OH240758   6.273   1.114  16.230  0.1532 -0.4734 -0.2247
 6448TIP3    H140759   6.335   1.051  16.193  3.5133  0.6743  2.8120
 6448TIP3    H240760   6.279   1.099  16.325 -0.4269  2.9996  0.4918
 6449TIP3   OH240761   1.866   5.340   2.446  0.1514 -0.1464  0.3478
 6449TIP3    H140762   1.901   5.259   2.483 -0.2192 -0.5775 -0.2197
 6449TIP3    H240763   1.872   5.327   2.351 -0.5883  0.1898  0.2465
 6450TIP3   OH240764   6.641   0.276  17.099  0.6121 -0.0878  0.8703
 6450TIP3    H140765   6.717   0.283  17.040  0.3718 -0.5742  0.4990
 6450TIP3    H240766   6.673   0.222  17.172  1.0001  0.7636  1.3482
 6451TIP3   OH240767   6.332   1.101   1.907  0.0406  0.4696  0.0092
 6451TIP3    H140768   6.383   1.178   1.932 -0.0054  0.5909 -0.2641
 6451TIP3    H240769   6.244   1.118   1.939 -0.0716  0.7255 -0.4310
 6452TIP3   OH240770   3.614   6.536  13.075 -0.2828  0.5264  0.1537
 6452TIP3    H140771   3.677   6.513  13.144 -0.2187  0.3428  0.0330
 6452TIP3    H240772   3.623   6.467  13.010  1.4240  1.9518 -1.2322
 6453TIP3   OH240773   5.277   1.378   3.981 -0.6217 -0.6591 -0.2134
 6453TIP3    H140774   5.292   1.311   4.049 -0.4051  0.2289  0.6441
 6453TIP3    H240775   5.281   1.330   3.899 -0.7538 -1.7516  0.3972
 6454TIP3   OH240776   4.322   4.116  16.268  0.2696 -0.0289 -0.8468
 6454TIP3    H140777   4.407   4.099  16.311 -0.5133  2.2202  1.9122
 6454TIP3    H240778   4.267   4.041  16.294  0.6888 -0.2101 -0.4491
 6455TIP3   OH240779   2.961   2.945  15.358  0.1798 -0.1823 -0.1060
 6455TIP3    H140780   3.034   2.932  15.418  1.2354 -1.2985 -1.5475
 6455TIP3    H240781   2.883   2.947  15.414  1.3164  1.5370  1.5074
 6456TIP3   OH240782   6.141   3.712  15.851  0.3598  0.2027 -0.3400
 6456TIP3    H140783   6.121   3.625  15.887  3.9957 -1.8007 -2.5064
 6456TIP3    H240784   6.197   3.752  15.918  0.8877 -0.2784 -0.4895
 6457TIP3   OH240785   5.814   4.356   5.382 -0.6334  0.0208 -0.2400
 6457TIP3    H140786   5.813   4.318   5.294  1.8276 -0.5610 -0.0849
 6457TIP3    H240787   5.886   4.311   5.426 -1.9504  0.1235  2.1890
 6458TIP3   OH240788   2.603   1.834  13.087 -0.2489 -0.1197  0.3163
 6458TIP3    H140789   2.548   1.912  13.079  0.5288  0.3477 -0.6846
 6458TIP3    H240790   2.611   1.821  13.182  0.2615  1.5040  0.5342
 6459TIP3   OH240791   3.295   2.469  14.014  0.1461  0.7838 -0.5885
 6459TIP3    H140792   3.361   2.506  14.071 -0.5414  0.5438  0.3822
 6459TIP3    H240793   3.320   2.497  13.926  1.3628  0.9306 -0.2050
 6460TIP3   OH240794   0.722   0.379  12.382  0.9194 -0.0976 -0.0998
 6460TIP3    H140795   0.704   0.300  12.434  0.5607 -0.0868 -0.2066
 6460TIP3    H240796   0.646   0.435  12.397  0.9212 -0.0008 -0.4633
 6461TIP3   OH240797   1.844   2.023   0.902  0.1161 -0.1825 -0.2961
 6461TIP3    H140798   1.834   2.051   0.811  0.2480 -0.4171 -0.3838
 6461TIP3    H240799   1.931   1.983   0.905  0.2911  0.2156  0.0347
 6462TIP3   OH240800   0.755   4.933   3.785  0.1089 -0.1527  0.2467
 6462TIP3    H140801   0.678   4.977   3.749  1.8705  1.9990 -1.2246
 6462TIP3    H240802   0.792   4.997   3.846  0.7904 -1.1034  0.8540
 6463TIP3   OH240803   0.805   0.105   2.602 -0.1946 -0.2957  0.3196
 6463TIP3    H140804   0.819   0.124   2.509 -0.6595  0.5660  0.4190
 6463TIP3    H240805   0.752   0.178   2.634 -0.1594 -0.6578  1.2327
 6464TIP3   OH240806   4.566   6.469   5.287  0.5881  0.1322  0.2437
 6464TIP3    H140807   4.637   6.496   5.229  0.4328  2.4651  1.0477
 6464TIP3    H240808   4.489   6.464   5.230  0.9875 -0.4085 -0.2556
 6465TIP3   OH240809   1.838   3.874   2.373 -0.1830  0.4711  0.2917
 6465TIP3    H140810   1.885   3.938   2.426 -0.4678  0.9742 -0.0559
 6465TIP3    H240811   1.803   3.812   2.437 -0.2808  0.9091  0.6723
 6466TIP3   OH240812   5.100   0.846   1.374  0.4625  0.3242  0.1066
 6466TIP3    H140813   5.036   0.784   1.339  1.1502 -0.6108  0.4696
 6466TIP3    H240814   5.131   0.894   1.298 -0.4186  0.5617 -0.1177
 6467TIP3   OH240815   6.104   3.209   1.051 -0.4180  0.0174 -0.1425
 6467TIP3    H140816   6.129   3.277   0.988 -0.8373  3.2662  2.8793
 6467TIP3    H240817   6.185   3.187   1.097 -0.9740  2.5494  2.3623
 6468TIP3   OH240818   2.817   2.066   3.558  0.6386  0.5561 -0.0885
 6468TIP3    H140819   2.897   2.090   3.511  0.4167 -0.8447 -1.2606
 6468TIP3    H240820   2.756   2.137   3.539  1.9041  2.2687  1.7975
 6469TIP3   OH240821   4.417   5.287   0.161  0.0487 -0.2380  0.7153
 6469TIP3    H140822   4.328   5.255   0.144 -0.0382 -0.3196  1.3127
 6469TIP3    H240823   4.419   5.302   0.255  0.3203  0.8194  0.5552
 6470TIP3   OH240824   5.934   3.111  14.857 -0.3888 -0.3105 -0.3346
 6470TIP3    H140825   5.863   3.110  14.922 -0.5844 -1.1940 -0.5479
 6470TIP3    H240826   5.892   3.082  14.776 -0.0632  0.4188 -0.7754
 6471TIP3   OH240827   2.601   6.634   1.146 -0.6301  0.0436  0.1363
 6471TIP3    H140828   2.608   6.689   1.224  1.5846  0.3628 -0.2149
 6471TIP3    H240829   2.537   6.567   1.169  0.6553 -0.4548  2.6137
 6472TIP3   OH240830   6.586   5.887   6.756  0.1712 -0.4782 -0.6308
 6472TIP3    H140831   6.648   5.933   6.812  0.3842  0.6288 -1.7141
 6472TIP3    H240832   6.571   5.803   6.799  0.6122  0.1781  0.8568
 6473TIP3   OH240833   0.080   0.524   0.452 -0.5010 -0.1626 -0.1882
 6473TIP3    H140834   0.052   0.456   0.513  0.7581 -1.5071 -1.0340
 6473TIP3    H240835   0.090   0.479   0.368  2.0380  0.6226 -0.4168
 6474TIP3   OH240836   3.127   2.966  14.598  0.3690 -0.0565  0.1210
 6474TIP3    H140837   3.160   2.993  14.512 -0.8567 -1.8360 -0.9841
 6474TIP3    H240838   3.063   3.034  14.622  1.4944  1.0200  0.1748
 6475TIP3   OH240839   2.182   5.449   2.076  0.2920 -0.2317  0.1269
 6475TIP3    H140840   2.203   5.427   1.986  2.5329 -1.3506  0.8512
 6475TIP3    H240841   2.182   5.545   2.078 -1.4893 -0.1345 -1.3537
 6476TIP3   OH240842   3.597   5.268   4.863 -0.0926 -0.1049  0.3386
 6476TIP3    H140843   3.563   5.348   4.824  0.4264  0.8471  1.7463
 6476TIP3    H240844   3.544   5.254   4.942  1.5554  0.4422  1.6153
 6477TIP3   OH240845   4.205   2.264   1.770 -0.4378  0.0349  0.2771
 6477TIP3    H140846   4.152   2.203   1.719  0.0867  0.1925 -0.4716
 6477TIP3    H240847   4.158   2.347   1.764 -0.2874  0.0935 -0.0997
 6478TIP3   OH240848   5.512   6.008  13.080  0.6693 -0.2024 -0.7203
 6478TIP3    H140849   5.481   6.063  13.008 -1.5631 -1.1137 -0.5446
 6478TIP3    H240850   5.476   6.049  13.158  1.4162 -0.3290 -0.3003
 6479TIP3   OH240851   6.443   6.663  14.071  0.4482  0.3011  0.4700
 6479TIP3    H140852   6.370   6.713  14.034  0.4107  0.7296  1.1101
 6479TIP3    H240853   6.483   6.619  13.995 -0.9757 -0.6177  0.2173
 6480TIP3   OH240854   2.617   2.792  15.182  0.0489  0.0202  0.8365
 6480TIP3    H140855   2.692   2.752  15.139  0.7969  0.9737  1.2264
 6480TIP3    H240856   2.601   2.737  15.259  1.3052  0.6507  1.5736
 6481TIP3   OH240857   3.037   5.061  16.550 -0.0178 -1.0644 -0.2633
 6481TIP3    H140858   2.961   5.066  16.608 -1.2807 -1.8593 -1.7778
 6481TIP3    H240859   3.109   5.034  16.608 -0.2798  1.8877  1.6377
 6482TIP3   OH240860   3.238   1.064   0.991  0.0717 -0.8742 -0.1346
 6482TIP3    H140861   3.169   1.004   1.020 -0.3908 -0.4708 -0.3939
 6482TIP3    H240862   3.192   1.139   0.955  0.6410  0.0848  1.0632
 6483TIP3   OH240863   3.925   5.718  10.859  0.4771 -0.0366 -0.9287
 6483TIP3    H140864   3.862   5.725  10.787  0.5358  0.2190 -0.9578
 6483TIP3    H240865   3.902   5.790  10.918  1.1436  0.4501 -1.2545
 6484TIP3   OH240866   4.767   5.846  11.396 -0.2698  0.1546 -0.4125
 6484TIP3    H140867   4.688   5.872  11.348 -1.0655  0.8430  1.2308
 6484TIP3    H240868   4.820   5.926  11.400 -0.9636  0.5515  1.2737
 6485TIP3   OH240869   3.405   0.222  15.704 -0.2371 -0.2459  1.0015
 6485TIP3    H140870   3.388   0.128  15.710 -1.1423 -0.1135  0.6488
 6485TIP3    H240871   3.319   0.263  15.709  0.0635  0.5169  0.2371
 6486TIP3   OH240872   1.402   3.191   2.862 -0.1233  0.2608 -0.6076
 6486TIP3    H140873   1.350   3.184   2.782  0.4772 -0.0913 -0.9770
 6486TIP3    H240874   1.388   3.281   2.892  0.0811  0.5676 -1.4126
 6487TIP3   OH240875   4.042   5.237   3.044 -0.0155 -0.2261  0.1765
 6487TIP3    H140876   4.052   5.212   3.136 -1.0613  0.4411  0.4998
 6487TIP3    H240877   4.093   5.173   2.996 -1.2245 -1.9598  1.0796
 6488TIP3   OH240878   3.111   2.015  14.051 -0.1342 -0.1872 -0.5674
 6488TIP3    H140879   3.192   2.039  14.095  0.2582 -0.6438 -1.0334
 6488TIP3    H240880   3.046   2.077  14.086  0.4863  0.4181 -0.4570
 6489TIP3   OH240881   1.686   0.536  13.092  0.4524 -0.6032 -0.4840
 6489TIP3    H140882   1.625   0.572  13.156 -0.4445 -1.0614 -1.0632
 6489TIP3    H240883   1.710   0.451  13.127 -2.1179 -2.0657 -1.9534
 6490TIP3   OH240884   2.495   1.453   3.950 -0.1324 -0.2842  0.0186
 6490TIP3    H140885   2.521   1.434   3.860 -1.0189 -1.9311  0.0827
 6490TIP3    H240886   2.528   1.542   3.965  0.2509 -0.0563 -1.8327
 6491TIP3   OH240887   5.531   1.304  15.277 -0.2691  0.0487 -0.0492
 6491TIP3    H140888   5.595   1.299  15.206 -0.8359  2.6511 -0.8406
 6491TIP3    H240889   5.563   1.242  15.342  2.2607  0.1901 -1.0464
 6492TIP3   OH240890   5.732   6.316  12.335 -0.2598 -0.2392 -0.3949
 6492TIP3    H140891   5.771   6.335  12.421  0.2175  1.1720 -0.8881
 6492TIP3    H240892   5.639   6.304  12.353 -0.5016  1.9058  0.1358
 6493TIP3   OH240893   6.498   3.488  15.202  0.4741  0.2766 -0.1480
 6493TIP3    H140894   6.454   3.441  15.273 -1.2629  1.4080 -0.3980
 6493TIP3    H240895   6.508   3.423  15.132  1.7225 -0.7030  0.9109
 6494TIP3   OH240896   5.923   2.780   4.104  0.3404 -0.2669  0.4893
 6494TIP3    H140897   5.946   2.752   4.015 -1.2592  0.0189 -0.0548
 6494TIP3    H240898   5.843   2.832   4.092  0.2011 -0.0780  2.0857
 6495TIP3   OH240899   3.698   2.578   6.121  0.6272 -0.2627  0.1441
 6495TIP3    H140900   3.704   2.521   6.198  0.9371  0.4631  0.6720
 6495TIP3    H240901   3.617   2.553   6.078  0.2781 -0.4483  0.9049
 6496TIP3   OH240902   1.969   6.740  13.946  0.3649  0.2281  0.0868
 6496TIP3    H140903   2.018   6.721  13.866  0.5022 -1.8597  0.6258
 6496TIP3    H240904   2.004   6.825  13.975  1.0156  0.5449 -1.4989
 6497TIP3   OH240905   2.543   5.332   4.570 -0.2727 -0.5364 -0.0944
 6497TIP3    H140906   2.533   5.316   4.476  0.7133 -1.1367 -0.1062
 6497TIP3    H240907   2.573   5.423   4.575 -1.7629 -0.0041 -0.2589
 6498TIP3   OH240908   1.807   3.711   1.127  0.2754 -0.6057 -0.2127
 6498TIP3    H140909   1.843   3.749   1.208  1.7201 -1.8328 -0.2271
 6498TIP3    H240910   1.753   3.638   1.157  0.1468 -0.5564 -0.3242
 6499TIP3   OH240911   5.583   2.976  11.450 -0.1703 -0.0457  0.2722
 6499TIP3    H140912   5.604   2.883  11.445  1.8486  0.4112 -0.6293
 6499TIP3    H240913   5.534   2.994  11.369 -0.8736 -0.3761  0.6168
 6500TIP3   OH240914   0.503   1.368  15.287  0.1735 -0.1301  0.1451
 6500TIP3    H140915   0.586   1.354  15.242  1.2439  3.2027  0.8354
 6500TIP3    H240916   0.491   1.290  15.341  0.6112 -2.6342 -3.0976
 6501TIP3   OH240917   3.781   4.566   0.420  0.5266 -0.3193  0.2896
 6501TIP3    H140918   3.791   4.505   0.347  1.9985  0.5642 -0.2965
 6501TIP3    H240919   3.828   4.525   0.493 -0.7942 -1.1183  0.7350
 6502TIP3   OH240920   6.498   6.426  15.280 -0.3429 -0.0895 -0.2055
 6502TIP3    H140921   6.448   6.484  15.338  1.3774  1.4709 -0.1794
 6502TIP3    H240922   6.466   6.447  15.192 -0.6345 -0.0463 -0.0904
 6503TIP3   OH240923   2.765   0.193   4.140  0.3257 -0.2228 -0.1055
 6503TIP3    H140924   2.825   0.167   4.070  2.1971 -1.4176  1.8142
 6503TIP3    H240925   2.818   0.245   4.199 -0.6685 -0.8324  1.3795
 6504TIP3   OH240926   1.043   5.384   3.937  0.2530  0.1570  0.1754
 6504TIP3    H140927   1.075   5.448   3.874  0.0885  0.2514  0.1866
 6504TIP3    H240928   0.979   5.431   3.989 -0.9442 -0.4046 -0.7527
 6505TIP3   OH240929   0.893   0.068  16.231  0.3715 -0.4054  0.4343
 6505TIP3    H140930   0.921   0.080  16.141 -1.7789 -1.3079 -0.4200
 6505TIP3    H240931   0.940   0.136  16.280  0.0119  1.4986 -1.6940
 6506TIP3   OH240932   1.466   6.340   5.775  0.2130 -0.0874  0.4045
 6506TIP3    H140933   1.514   6.343   5.858  1.3918  2.9158 -0.2409
 6506TIP3    H240934   1.452   6.432   5.753 -1.9483 -0.8157 -1.7235
 6507TIP3   OH240935   4.886   1.818  15.867  0.1173 -0.4757 -0.0263
 6507TIP3    H140936   4.882   1.912  15.848 -0.7350 -0.5490 -0.2711
 6507TIP3    H240937   4.824   1.806  15.938 -0.0699 -0.9156 -0.2643
 6508TIP3   OH240938   0.518   3.952   6.584  0.5456  0.1035  0.0581
 6508TIP3    H140939   0.473   3.960   6.668 -0.7832  2.2873 -0.8005
 6508TIP3    H240940   0.542   3.859   6.579 -0.3350 -0.3114  2.3146
 6509TIP3   OH240941   3.729   6.074   2.429 -0.0016 -1.2427  0.5437
 6509TIP3    H140942   3.714   6.062   2.335  4.5397  0.1449 -0.6118
 6509TIP3    H240943   3.772   5.993   2.457 -1.4837 -1.7201  1.5553
 6510TIP3   OH240944   4.441   1.701   2.022 -0.4989  0.0434 -0.5707
 6510TIP3    H140945   4.463   1.655   2.103  0.6275 -0.3716 -1.0874
 6510TIP3    H240946   4.400   1.782   2.050  0.2879  0.1073  0.4312
 6511TIP3   OH240947   5.746   1.179   3.218  0.7302  0.0914  0.0519
 6511TIP3    H140948   5.765   1.224   3.300  0.7218  0.5994 -0.2238
 6511TIP3    H240949   5.822   1.123   3.204  2.1224  2.1312 -1.0562
 6512TIP3   OH240950   3.649   4.308  11.859  0.1720 -0.2365  0.4685
 6512TIP3    H140951   3.586   4.369  11.897 -1.1858 -1.6652  0.6172
 6512TIP3    H240952   3.674   4.250  11.932 -0.1575 -1.1399 -0.1154
 6513TIP3   OH240953   0.821   5.136  16.040  0.0513 -0.1980 -0.1856
 6513TIP3    H140954   0.737   5.172  16.070 -0.4565 -0.2069 -1.5380
 6513TIP3    H240955   0.822   5.047  16.075 -0.3618 -0.0947  0.1006
 6514TIP3   OH240956   3.084   0.418   3.414 -0.1122 -0.4198  0.0987
 6514TIP3    H140957   3.157   0.383   3.464 -0.9888  1.9315  3.3429
 6514TIP3    H240958   3.121   0.493   3.368  0.0303 -0.7706 -0.3709
 6515TIP3   OH240959   1.701   0.325  12.375  0.5580  0.2613  0.4030
 6515TIP3    H140960   1.685   0.419  12.366  1.3513  0.2010 -2.5280
 6515TIP3    H240961   1.679   0.288  12.290  0.8242 -2.1490  1.2948
 6516TIP3   OH240962   6.332   5.363  15.746  0.7422  0.0488 -0.3199
 6516TIP3    H140963   6.244   5.327  15.732  0.0755  1.6687 -0.5295
 6516TIP3    H240964   6.384   5.327  15.675  0.0884 -0.4204 -0.5736
 6517TIP3   OH240965   1.436   3.031  16.611 -0.4234 -0.7674  0.0628
 6517TIP3    H140966   1.531   3.037  16.621 -0.5211 -1.1372  1.3081
 6517TIP3    H240967   1.421   2.939  16.588 -0.3644 -0.3402 -1.8971
 6518TIP3   OH240968   3.351   2.515  15.417 -0.1072 -0.0632  0.1383
 6518TIP3    H140969   3.339   2.519  15.322  1.2366  0.5026 -0.0276
 6518TIP3    H240970   3.389   2.429  15.434 -1.0699 -0.4782  0.2726
 6519TIP3   OH240971   0.126   2.900  12.125 -0.2277  0.7148 -0.0066
 6519TIP3    H140972   0.078   2.950  12.060 -1.8510  2.8432  2.6026
 6519TIP3    H240973   0.068   2.899  12.202  1.2860 -2.1569  1.2818
 6520TIP3   OH240974   3.286   1.510   0.372 -0.2247 -0.4270  0.5934
 6520TIP3    H140975   3.288   1.554   0.286 -0.1819 -0.5378  0.5377
 6520TIP3    H240976   3.366   1.539   0.415 -0.9042  0.6977  1.1288
 6521TIP3   OH240977   6.320   3.043  11.851 -0.5770 -0.2072 -0.3652
 6521TIP3    H140978   6.317   2.949  11.837 -0.1629 -0.1880 -0.5934
 6521TIP3    H240979   6.341   3.053  11.944  1.3729 -0.3588 -0.7558
 6522TIP3   OH240980   2.041   0.306   4.689 -0.1036 -0.4808  1.1328
 6522TIP3    H140981   1.985   0.384   4.699 -0.3486 -0.4526 -0.2486
 6522TIP3    H240982   2.120   0.339   4.647  0.7625 -0.6193  2.5887
 6523TIP3   OH240983   4.506   1.763  15.556 -0.0059 -0.0694 -0.7280
 6523TIP3    H140984   4.467   1.844  15.524  0.8006  0.9406  0.7195
 6523TIP3    H240985   4.595   1.762  15.519  0.1136 -0.0945 -0.4453
 6524TIP3   OH240986   4.451   2.727   0.221 -0.7804  0.1854 -0.5189
 6524TIP3    H140987   4.521   2.723   0.155 -1.3963  0.3568 -1.2028
 6524TIP3    H240988   4.481   2.791   0.285 -0.5111  0.6015 -1.0570
 6525TIP3   OH240989   4.079   2.135  15.306  0.1260  0.0036  0.1974
 6525TIP3    H140990   4.099   2.088  15.387  1.0338  0.5041  0.2782
 6525TIP3    H240991   3.986   2.158  15.314  0.7368  2.1891  2.2724
 6526TIP3   OH240992   5.268   2.102   2.245  0.7414 -0.3626  0.0712
 6526TIP3    H140993   5.322   2.178   2.264 -0.2884  0.0073  1.7506
 6526TIP3    H240994   5.243   2.068   2.331 -1.2002 -0.8348 -0.6219
 6527TIP3   OH240995   0.681   4.537  13.060 -0.2593 -0.0130 -0.4342
 6527TIP3    H140996   0.597   4.564  13.098 -0.5206 -0.2425 -0.8457
 6527TIP3    H240997   0.704   4.457  13.108  0.8804  1.2867  1.3093
 6528TIP3   OH240998   4.925   0.160  16.700 -0.4694 -0.1628  0.7657
 6528TIP3    H140999   4.864   0.086  16.699 -0.9287  0.2139  0.5637
 6528TIP3    H241000   4.910   0.202  16.785 -1.8762  1.0513 -0.0382
 6529TIP3   OH241001   2.610   3.303  12.172  0.6881  0.0518  0.3011
 6529TIP3    H141002   2.557   3.240  12.221  0.3772 -0.1168 -0.2457
 6529TIP3    H241003   2.696   3.301  12.215  0.7265 -0.8599  0.1947
 6530TIP3   OH241004   2.425   3.628   4.820 -0.1993 -0.3225 -0.1675
 6530TIP3    H141005   2.488   3.568   4.781  0.1795 -0.3968  0.5327
 6530TIP3    H241006   2.452   3.715   4.790  1.0612 -0.2123  1.1606
 6531TIP3   OH241007   5.424   3.063  15.064 -0.1707  0.8319  0.0597
 6531TIP3    H141008   5.336   3.084  15.095 -0.2621 -1.4072  1.5083
 6531TIP3    H241009   5.416   3.057  14.969 -1.7115  0.0691  0.2245
 6532TIP3   OH241010   5.659   6.418  11.735  0.1423 -0.6176 -0.3404
 6532TIP3    H141011   5.645   6.507  11.767 -0.7250 -0.5462 -0.8873
 6532TIP3    H241012   5.667   6.365  11.814 -2.4195 -0.5173  0.0889
 6533TIP3   OH241013   6.163   5.565  10.480 -0.6775 -0.3624 -0.2671
 6533TIP3    H141014   6.082   5.549  10.530 -0.1370 -1.9514  0.1582
 6533TIP3    H241015   6.211   5.628  10.534 -0.0726 -2.0990  1.3625
 6534TIP3   OH241016   2.413   3.419   0.932 -0.7038 -0.3912 -0.4477
 6534TIP3    H141017   2.325   3.442   0.961 -0.2298 -0.2738  0.9712
 6534TIP3    H241018   2.411   3.323   0.924 -1.2861 -0.3003 -1.6113
 6535TIP3   OH241019   5.895   6.452  14.242  0.1131 -0.6133 -0.4841
 6535TIP3    H141020   5.823   6.505  14.209 -0.7771 -2.3457 -1.4866
 6535TIP3    H241021   5.862   6.413  14.322  1.5990  2.0757  1.5916
 6536TIP3   OH241022   0.782   0.998  15.208 -0.0131  0.0505  0.1779
 6536TIP3    H141023   0.846   0.994  15.278  0.8935 -1.3649 -0.6794
 6536TIP3    H241024   0.819   1.061  15.145  0.3159 -0.4211 -0.1025
 6537TIP3   OH241025   2.679   2.617  16.762  0.0295 -0.7545 -0.5255
 6537TIP3    H141026   2.594   2.579  16.743  0.6444 -1.6774 -1.4723
 6537TIP3    H241027   2.696   2.592  16.853 -0.2085 -1.5411 -0.6888
 6538TIP3   OH241028   6.676   6.280   2.486  0.4311  0.0971 -0.3002
 6538TIP3    H141029   6.592   6.238   2.470  1.0045 -1.6738  0.9509
 6538TIP3    H241030   6.737   6.235   2.428  0.8263  0.0814  0.1159
 6539TIP3   OH241031   4.956   2.109   3.345  0.5186  0.6619 -0.1734
 6539TIP3    H141032   4.923   2.030   3.302 -0.6429 -0.9805  3.3664
 6539TIP3    H241033   4.884   2.172   3.336  0.1469  0.2300 -0.2998
 6540TIP3   OH241034   1.740   3.350   4.370 -0.1604 -1.1114 -0.0345
 6540TIP3    H141035   1.670   3.400   4.328  1.0758  0.6775 -0.0485
 6540TIP3    H241036   1.756   3.277   4.310  0.5336  0.5399 -1.9803
 6541TIP3   OH241037   2.175   3.377   6.332  0.1524  0.0488 -0.0768
 6541TIP3    H141038   2.139   3.401   6.417 -1.0682 -3.5188  0.5586
 6541TIP3    H241039   2.259   3.337   6.352  0.1346 -0.2695 -0.6272
 6542TIP3   OH241040   1.441   6.792  16.621  0.5865  0.3476 -0.5101
 6542TIP3    H141041   1.432   6.845  16.699  2.0069 -0.9226  0.5862
 6542TIP3    H241042   1.386   6.835  16.556  0.5366  2.2874  0.7309
 6543TIP3   OH241043   6.315   4.016   6.118 -0.1066 -0.0982  0.0295
 6543TIP3    H141044   6.296   3.996   6.210  0.7748 -1.2630 -0.0208
 6543TIP3    H241045   6.364   4.098   6.121  1.9416 -1.2809  0.8368
 6544TIP3   OH241046   3.978   0.239   2.712  0.5117  0.6725  0.0098
 6544TIP3    H141047   4.054   0.238   2.771 -0.4713 -0.4698  1.3150
 6544TIP3    H241048   3.927   0.315   2.739 -0.5803 -0.5504  1.5516
 6545TIP3   OH241049   3.700   4.825   2.069 -0.1352  0.1663  0.1338
 6545TIP3    H141050   3.753   4.756   2.109  0.6225  1.3760  1.2648
 6545TIP3    H241051   3.743   4.844   1.986  1.8703  1.8394  1.4788
 6546TIP3   OH241052   0.862   5.415   2.462 -0.2975 -0.1759 -0.3259
 6546TIP3    H141053   0.933   5.479   2.457 -0.8724  0.4161 -1.3509
 6546TIP3    H241054   0.805   5.448   2.532 -0.0892 -0.0826 -0.2011
 6547TIP3   OH241055   1.342   0.566   1.678  0.1675  0.2587  0.4711
 6547TIP3    H141056   1.342   0.581   1.584 -0.4471 -3.4251 -0.2435
 6547TIP3    H241057   1.427   0.598   1.708  0.2607  1.7344 -1.2349
 6548TIP3   OH241058   3.663   0.068   3.689 -0.1287 -0.1620 -0.4717
 6548TIP3    H141059   3.606   0.015   3.634 -0.1897  0.1626 -0.7250
 6548TIP3    H241060   3.748   0.023   3.686 -0.2238 -0.3364 -0.5488
 6549TIP3   OH241061   3.568   6.586   0.551 -0.3441  0.0742 -0.7334
 6549TIP3    H141062   3.589   6.528   0.478 -0.5880 -1.5119  0.4045
 6549TIP3    H241063   3.511   6.533   0.608  0.0430  1.1714  0.7306
 6550TIP3   OH241064   4.996   5.024   1.753  0.4503 -0.3323  0.3704
 6550TIP3    H141065   4.986   4.949   1.694 -1.2442  0.8443 -0.9446
 6550TIP3    H241066   4.930   5.011   1.821 -1.1360  0.7833 -0.8671
 6551TIP3   OH241067   0.952   5.923  13.568 -0.0191 -0.1884 -0.5469
 6551TIP3    H141068   1.014   5.988  13.602  0.0259  0.5394 -1.9442
 6551TIP3    H241069   1.008   5.852  13.536 -0.0713 -0.9963  1.0522
 6552TIP3   OH241070   5.928   5.040  11.112 -0.4309 -0.3667  0.3169
 6552TIP3    H141071   5.846   5.085  11.096  0.3692  0.7265 -0.8888
 6552TIP3    H241072   5.981   5.102  11.162  0.2060 -0.4774 -0.2056
 6553TIP3   OH241073   0.787   5.353  12.145  0.2438  0.0327  0.1022
 6553TIP3    H141074   0.787   5.323  12.236 -1.1222  0.7244  0.3516
 6553TIP3    H241075   0.860   5.305  12.105  0.0610 -1.2750  1.2276
 6554TIP3   OH241076   3.994   6.742  14.832  0.3472  0.0129 -0.0882
 6554TIP3    H141077   3.964   6.676  14.769 -0.9769  1.3358 -0.9032
 6554TIP3    H241078   4.068   6.785  14.789 -0.3210  0.6638 -0.6127
 6555TIP3   OH241079   5.680   1.009   1.264 -0.1672  0.1701  0.2269
 6555TIP3    H141080   5.713   0.984   1.350 -0.8923 -1.2606  0.1165
 6555TIP3    H241081   5.595   1.050   1.282  0.2877  1.1166  0.2793
 6556TIP3   OH241082   0.540   1.438  11.026 -0.1059 -0.0590 -0.2080
 6556TIP3    H141083   0.482   1.398  10.962 -1.1186 -0.5656  0.9790
 6556TIP3    H241084   0.625   1.398  11.010 -0.0602  0.6254 -1.9163
 6557TIP3   OH241085   2.913   4.396   4.409 -0.4398 -0.1063 -0.4104
 6557TIP3    H141086   2.971   4.331   4.369  0.8776  1.3341 -0.9447
 6557TIP3    H241087   2.928   4.476   4.358 -2.4357  0.5045 -0.1369
 6558TIP3   OH241088   2.161   2.124  16.493 -0.2303 -0.0994 -1.1078
 6558TIP3    H141089   2.183   2.040  16.453  0.2339 -0.7603  0.4477
 6558TIP3    H241090   2.097   2.102  16.561  1.0127  0.5515  0.3363
 6559TIP3   OH241091   4.641   1.152  10.991  0.0869  0.2323  0.2534
 6559TIP3    H141092   4.632   1.065  11.031 -1.3361  0.7972  1.2501
 6559TIP3    H241093   4.585   1.148  10.913 -0.9753  0.6218  0.9787
 6560TIP3   OH241094   2.544   0.677   2.425 -0.0153  0.9033 -0.0483
 6560TIP3    H141095   2.623   0.730   2.433 -0.0043  0.6328  2.3431
 6560TIP3    H241096   2.561   0.619   2.351  1.9863  0.9177  0.3510
 6561TIP3   OH241097   2.045   3.362  14.959  0.4162  0.0726  0.1021
 6561TIP3    H141098   2.014   3.280  14.999  0.4706 -0.2602 -0.5317
 6561TIP3    H241099   2.073   3.415  15.034 -1.1591  0.1757  0.6768
 6562TIP3   OH241100   3.442   0.106  14.111  0.2167  0.6223  0.3619
 6562TIP3    H141101   3.383   0.041  14.074  2.0407 -0.7717 -0.2505
 6562TIP3    H241102   3.495   0.136  14.037  1.2403  0.7344  1.1117
 6563TIP3   OH241103   0.139   4.136   5.127 -0.6039  0.3069  0.3009
 6563TIP3    H141104   0.136   4.040   5.134 -0.9116  0.2734 -0.2029
 6563TIP3    H241105   0.069   4.167   5.184 -1.5993  0.1456 -0.7720
 6564TIP3   OH241106   4.255   2.061   6.661  0.1587  0.1971  0.0524
 6564TIP3    H141107   4.174   2.015   6.681  0.1042 -0.0256 -0.6289
 6564TIP3    H241108   4.266   2.125   6.731 -0.7139  0.3732  0.0319
 6565TIP3   OH241109   1.459   6.507   1.384  0.0649 -0.8698  0.1310
 6565TIP3    H141110   1.488   6.437   1.325  1.1788  0.3697 -0.8689
 6565TIP3    H241111   1.469   6.470   1.471 -0.4727 -2.3435 -0.4007
 6566TIP3   OH241112   4.407   5.979  15.383 -0.2503 -0.4440 -0.0265
 6566TIP3    H141113   4.389   5.899  15.433  1.7465 -0.2384  1.1021
 6566TIP3    H241114   4.378   5.958  15.294 -3.5568 -0.9504  1.0070
 6567TIP3   OH241115   4.456   6.311  13.771 -0.1010  0.9882 -0.0870
 6567TIP3    H141116   4.452   6.406  13.760  1.2457  0.8582 -2.3890
 6567TIP3    H241117   4.544   6.294  13.803 -1.0954  0.5985  2.7662
 6568TIP3   OH241118   4.683   6.746   1.220  0.7085  0.1821  0.3078
 6568TIP3    H141119   4.749   6.680   1.199  1.1619  0.7949 -0.2271
 6568TIP3    H241120   4.690   6.757   1.315 -1.2186 -2.4690  0.9051
 6569TIP3   OH241121   1.314   4.554   1.054 -0.0841  0.1715 -0.2563
 6569TIP3    H141122   1.267   4.492   1.110 -0.7522  0.0823 -0.8986
 6569TIP3    H241123   1.275   4.639   1.074 -0.2096  0.1623 -0.4519
 6570TIP3   OH241124   1.818   0.791   0.474 -0.4957 -0.5370  0.2570
 6570TIP3    H141125   1.731   0.764   0.444 -2.1951  2.5518  1.9308
 6570TIP3    H241126   1.821   0.764   0.565 -0.4092  0.7507  0.6587
 6571TIP3   OH241127   2.455   3.566   6.302 -0.2147  0.0474 -0.3701
 6571TIP3    H141128   2.441   3.474   6.283  0.6422 -0.0959 -0.3096
 6571TIP3    H241129   2.426   3.612   6.222  1.4147 -0.4185 -1.2790
 6572TIP3   OH241130   6.259   5.397   3.861 -0.0920 -0.9350 -0.4324
 6572TIP3    H141131   6.252   5.340   3.937  0.3278 -1.6555 -0.9220
 6572TIP3    H241132   6.225   5.344   3.788  0.7048 -0.7282 -0.9708
 6573TIP3   OH241133   4.326   6.077  12.292  0.0073  0.7966 -0.0364
 6573TIP3    H141134   4.300   6.138  12.360 -1.3438  1.2793 -0.9508
 6573TIP3    H241135   4.280   5.996  12.313  0.0495  0.7700 -0.0464
 6574TIP3   OH241136   0.882   2.098   1.363 -0.3146 -0.1281  0.1833
 6574TIP3    H141137   0.805   2.074   1.311  0.3680 -3.3447  0.4553
 6574TIP3    H241138   0.956   2.065   1.313  0.5535 -0.7196  1.7991
 6575TIP3   OH241139   6.528   6.250   2.171 -0.8640  0.5127  0.2326
 6575TIP3    H141140   6.536   6.344   2.186 -1.6994  0.7870 -0.9117
 6575TIP3    H241141   6.461   6.242   2.104  0.6179 -0.7760 -1.1936
 6576TIP3   OH241142   3.101   5.738  15.435  0.6145  0.1639  0.1040
 6576TIP3    H141143   3.056   5.745  15.351  1.0154 -0.5921 -0.1818
 6576TIP3    H241144   3.058   5.803  15.491  0.9152  1.3052 -0.9417
 6577TIP3   OH241145   5.500   1.211   1.521 -0.0129  0.0836 -0.2361
 6577TIP3    H141146   5.453   1.163   1.452 -1.0488 -1.0361  1.1791
 6577TIP3    H241147   5.588   1.174   1.520  0.4871  1.1987 -1.9754
 6578TIP3   OH241148   1.389   3.938  14.701  0.2019 -0.2722 -0.4013
 6578TIP3    H141149   1.475   3.911  14.667  0.0019 -0.2100 -0.9624
 6578TIP3    H241150   1.408   3.974  14.788  0.7142 -0.4684 -0.4271
 6579TIP3   OH241151   6.000   2.557   5.908 -0.4979 -0.5181 -0.1199
 6579TIP3    H141152   5.963   2.605   5.982 -1.0471 -0.9858 -0.0860
 6579TIP3    H241153   6.085   2.599   5.892 -1.0932  0.6516 -0.2874
 6580TIP3   OH241154   0.287   0.788   1.576  0.5739 -0.0571 -0.0341
 6580TIP3    H141155   0.368   0.752   1.540  0.0313 -3.2488  1.5856
 6580TIP3    H241156   0.315   0.836   1.654  0.9253 -1.6161  0.8341
 6581TIP3   OH241157   3.982   0.604   3.399  0.2138 -0.0404 -0.0150
 6581TIP3    H141158   3.993   0.625   3.306 -1.2880  0.9781  0.0047
 6581TIP3    H241159   3.950   0.685   3.438 -1.1896 -1.0368  0.9813
 6582TIP3   OH241160   5.486   1.361   2.496  0.0371  0.1900  0.6360
 6582TIP3    H141161   5.547   1.300   2.539 -0.0474 -0.3561  0.0047
 6582TIP3    H241162   5.427   1.388   2.566  0.0893 -0.4409  0.9394
 6583TIP3   OH241163   5.597   3.561   0.790 -0.1925 -0.3422 -0.2018
 6583TIP3    H141164   5.517   3.537   0.744  0.0481 -1.3301 -0.1182
 6583TIP3    H241165   5.662   3.496   0.763  0.1123 -0.6095  1.0679
 6584TIP3   OH241166   2.541   0.599  12.617 -0.2721  0.2244 -0.3656
 6584TIP3    H141167   2.471   0.539  12.642  0.4336 -0.3856  0.1691
 6584TIP3    H241168   2.498   0.685  12.612 -0.9090 -0.0114  0.7037
 6585TIP3   OH241169   4.820   2.051  15.411  0.4096  0.0650 -0.4822
 6585TIP3    H141170   4.888   2.010  15.464  0.7145  0.8301 -0.2669
 6585TIP3    H241171   4.790   2.125  15.464  0.0976  0.3163 -0.9978
 6586TIP3   OH241172   3.158   0.106  12.133  0.1114  0.2175  0.4961
 6586TIP3    H141173   3.173   0.046  12.207 -0.1838  1.8140  1.9290
 6586TIP3    H241174   3.066   0.092  12.110  0.5632 -1.2731 -0.5365
 6587TIP3   OH241175   5.419   2.970   0.061  0.8315  0.1070  0.0054
 6587TIP3    H141176   5.368   3.033   0.112  1.4255  1.4825 -1.0139
 6587TIP3    H241177   5.439   3.017  -0.020  1.3850 -1.3908 -0.7522
 6588TIP3   OH241178   0.306   5.164   0.353  0.8679  0.0269 -0.3658
 6588TIP3    H141179   0.279   5.246   0.313  0.3293  0.0086 -0.0567
 6588TIP3    H241180   0.317   5.186   0.446  0.2167 -0.3556 -0.1876
 6589TIP3   OH241181   5.774   6.688  15.653  0.0500  0.1469  0.0411
 6589TIP3    H141182   5.736   6.719  15.570  0.4875  1.6799  0.3800
 6589TIP3    H241183   5.752   6.757  15.716 -0.4496 -1.0886  1.2713
 6590TIP3   OH241184   2.125   3.135  14.476  0.6181 -0.0678 -0.0690
 6590TIP3    H141185   2.161   3.111  14.391  0.9027  0.3170 -0.0631
 6590TIP3    H241186   2.052   3.193  14.456  0.2026 -0.5856 -0.0702
 6591TIP3   OH241187   5.864   3.546  12.238  0.2535  0.4321  0.2637
 6591TIP3    H141188   5.863   3.613  12.170 -0.7519  0.5139  0.3369
 6591TIP3    H241189   5.780   3.501  12.227  0.0523  0.4814  1.4814
 6592TIP3   OH241190   3.972   3.019   0.146 -0.4432 -0.3462  0.3280
 6592TIP3    H141191   4.022   3.100   0.145 -0.3695 -0.3005 -2.5280
 6592TIP3    H241192   4.037   2.949   0.135 -0.7488 -0.4147 -1.4893
 6593TIP3   OH241193   2.039   1.214   4.381  0.2176 -0.4842 -0.1055
 6593TIP3    H141194   1.973   1.250   4.322  1.5270 -1.4392 -2.2783
 6593TIP3    H241195   2.091   1.290   4.408 -2.8005  0.6374  3.2988
 6594TIP3   OH241196   4.500   0.925   0.272 -0.1449  0.5177 -0.4531
 6594TIP3    H141197   4.565   0.994   0.285  1.0279 -0.8147  1.0987
 6594TIP3    H241198   4.528   0.853   0.328 -2.1315 -0.7059 -0.8949
 6595TIP3   OH241199   4.248   5.213  14.608  0.0141  0.2948 -0.2018
 6595TIP3    H141200   4.338   5.244  14.617  0.7405 -1.7671  0.2442
 6595TIP3    H241201   4.200   5.255  14.679  1.2374 -0.5459  1.1726
 6596TIP3   OH241202   3.822   0.188  15.396  0.4381 -0.4932 -0.7676
 6596TIP3    H141203   3.731   0.217  15.388  0.0823 -1.0111  0.9907
 6596TIP3    H241204   3.871   0.246  15.338 -0.7106  1.3165  0.0092
 6597TIP3   OH241205   5.367   4.033   2.516 -0.0762 -0.1604  0.4557
 6597TIP3    H141206   5.386   3.941   2.535 -1.5906 -0.8538 -1.1338
 6597TIP3    H241207   5.395   4.045   2.425 -0.9728  0.6207  0.2690
 6598TIP3   OH241208   4.403   3.603   1.968  0.2577 -0.2675  0.0015
 6598TIP3    H141209   4.470   3.542   1.938  0.7274  0.6415 -0.8923
 6598TIP3    H241210   4.347   3.552   2.026  1.2826 -1.2397  0.1636
 6599TIP3   OH241211   3.920   5.963  11.003 -0.8830 -0.2731  0.2085
 6599TIP3    H141212   3.882   6.003  11.081 -1.6483 -0.5189 -0.0244
 6599TIP3    H241213   3.854   5.976  10.935 -1.2117 -1.9812  0.1376
 6600TIP3   OH241214   4.292   1.915  12.531  0.3410  0.1388  0.4314
 6600TIP3    H141215   4.281   1.855  12.458 -0.0332 -0.2587  0.8086
 6600TIP3    H241216   4.311   1.859  12.606  2.7055  0.6392  0.2966
 6601TIP3   OH241217   3.447   4.702   2.854  0.1847  0.0754 -0.1653
 6601TIP3    H141218   3.465   4.731   2.765  0.1841  2.3586  0.5248
 6601TIP3    H241219   3.365   4.744   2.878 -1.5296 -3.0050 -0.0877
 6602TIP3   OH241220   3.593   0.683  11.847  0.1555  0.0054 -0.1525
 6602TIP3    H141221   3.669   0.741  11.849  0.2807 -0.1303 -0.7387
 6602TIP3    H241222   3.520   0.737  11.877  0.5790 -0.0192  0.9721
 6603TIP3   OH241223   6.145   5.738   0.375 -0.0647  0.4029  0.2674
 6603TIP3    H141224   6.069   5.730   0.316 -0.9291  1.3013  1.2193
 6603TIP3    H241225   6.143   5.658   0.427 -0.9170  0.8195  0.9005
 6604TIP3   OH241226   5.188   4.559  13.998  0.1895 -0.7607 -0.3857
 6604TIP3    H141227   5.179   4.539  14.091 -0.5541  0.8292 -0.0768
 6604TIP3    H241228   5.106   4.528  13.959  0.1819 -0.7505 -0.3775
 6605TIP3   OH241229   0.551   4.716  15.803  0.0062  0.1939  0.9911
 6605TIP3    H141230   0.576   4.808  15.792 -3.1568  1.0982  0.3688
 6605TIP3    H241231   0.583   4.673  15.724 -1.5097  1.5687 -0.4435
 6606TIP3   OH241232   0.141   0.461  14.073 -0.6687 -0.1642 -0.3577
 6606TIP3    H141233   0.233   0.438  14.066 -0.2929  1.1236 -0.0389
 6606TIP3    H241234   0.107   0.405  14.143  0.4339  0.8825  1.0650
 6607TIP3   OH241235   1.721   2.177   2.633 -0.2236  0.0775  0.4034
 6607TIP3    H141236   1.803   2.196   2.587  0.8563 -0.7087  1.9053
 6607TIP3    H241237   1.656   2.234   2.591  0.8638  0.0420 -1.4536
 6608TIP3   OH241238   5.465   2.501   5.081 -0.1851  0.0487 -0.6145
 6608TIP3    H141239   5.383   2.457   5.062 -0.3725 -0.3142  0.9138
 6608TIP3    H241240   5.522   2.432   5.116  0.4249  0.4915 -0.7228
 6609TIP3   OH241241   3.088   1.224  12.320 -0.0325  0.3093 -0.0620
 6609TIP3    H141242   3.085   1.298  12.380 -0.7101 -0.3159  0.6938
 6609TIP3    H241243   3.179   1.195  12.322  0.4833  1.7353 -1.1557
 6610TIP3   OH241244   2.235   5.937   1.234 -0.3069 -0.2101  0.6095
 6610TIP3    H141245   2.190   6.018   1.209 -0.5359 -0.4487  0.2225
 6610TIP3    H241246   2.239   5.887   1.152  0.4565 -0.2933  0.6949
 6611TIP3   OH241247   0.115   1.689  10.591  0.2076  0.0786  0.5102
 6611TIP3    H141248   0.119   1.598  10.561  1.1655  0.2591  0.0677
 6611TIP3    H241249   0.022   1.704  10.609 -0.0573 -0.7596 -0.1014
 6612TIP3   OH241250   6.123   3.463  15.273 -0.3553 -0.2657 -0.0378
 6612TIP3    H141251   6.067   3.518  15.328 -0.2928  0.8226 -0.9993
 6612TIP3    H241252   6.091   3.479  15.184  0.9567 -0.2325 -0.5247
 6613TIP3   OH241253   5.995   6.579   1.981  0.0686 -0.4688  0.1687
 6613TIP3    H141254   6.030   6.583   2.070  0.4624  0.8076 -0.0135
 6613TIP3    H241255   6.072   6.564   1.926  0.3108  1.6796 -0.1764
 6614TIP3   OH241256   1.055   4.062  13.962  0.2857  0.5208 -0.0702
 6614TIP3    H141257   0.986   4.094  13.904  0.6301 -0.5415 -1.1030
 6614TIP3    H241258   1.088   4.141  14.006 -1.7485  1.0250  0.6780
 6615TIP3   OH241259   5.109   6.155   3.428  0.7557  0.2619  0.1357
 6615TIP3    H141260   5.102   6.098   3.351  1.8122  0.4252 -0.1047
 6615TIP3    H241261   5.067   6.237   3.401 -0.9954 -0.4452  0.5688
 6616TIP3   OH241262   5.140   3.478  14.090  0.2606 -0.2172 -0.4707
 6616TIP3    H141263   5.113   3.394  14.126  0.9064 -1.4940 -2.7257
 6616TIP3    H241264   5.066   3.536  14.105 -0.0929 -1.0868  1.3753
 6617TIP3   OH241265   6.138   5.762  16.358 -0.3387  0.3213 -0.4624
 6617TIP3    H141266   6.044   5.747  16.373 -0.4535  1.3076 -0.0841
 6617TIP3    H241267   6.169   5.682  16.315 -1.2246 -0.2694 -0.0404
 6618TIP3   OH241268   1.125   3.646   4.206 -0.2648  0.1361  0.0951
 6618TIP3    H141269   1.209   3.607   4.230  0.2072  2.3374  2.5254
 6618TIP3    H241270   1.143   3.695   4.125 -0.2792 -2.4277 -1.5827
 6619TIP3   OH241271   4.217   1.586   2.592  0.2019 -0.1006  0.4146
 6619TIP3    H141272   4.296   1.600   2.644  0.5916  1.9107 -0.6301
 6619TIP3    H241273   4.243   1.609   2.503 -1.7192  1.2112  0.1454
 6620TIP3   OH241274   5.855   2.677  13.792 -0.3576 -0.1119 -0.7175
 6620TIP3    H141275   5.781   2.737  13.789 -1.1554 -0.9517  0.8254
 6620TIP3    H241276   5.926   2.728  13.830 -0.7374  0.1509 -0.3492
 6621TIP3   OH241277   2.616   0.723  11.765  0.2348 -0.0805 -0.6201
 6621TIP3    H141278   2.566   0.724  11.847  1.3043 -0.9498  0.0580
 6621TIP3    H241279   2.557   0.680  11.703 -0.0094 -0.8077  0.0844
 6622TIP3   OH241280   4.223   3.202   5.645 -0.3866  0.3172  0.2227
 6622TIP3    H141281   4.235   3.159   5.729 -1.7389  2.6672  1.7501
 6622TIP3    H241282   4.195   3.132   5.585 -0.5021 -1.2217  2.0049
 6623TIP3   OH241283   5.530   0.243   2.256 -0.5143  0.0900  0.2766
 6623TIP3    H141284   5.623   0.219   2.257 -0.8208 -1.2360 -0.5647
 6623TIP3    H241285   5.491   0.184   2.192 -1.5264  2.2528 -1.2213
 6624TIP3   OH241286   0.461   6.487   6.016  0.0910 -0.1662  0.0784
 6624TIP3    H141287   0.546   6.445   6.003  0.9991  1.9672 -1.3987
 6624TIP3    H241288   0.430   6.452   6.099  2.8923 -0.2302  1.2050
 6625TIP3   OH241289   0.071   0.495   2.316  0.0118 -0.1839 -0.1255
 6625TIP3    H141290   0.148   0.517   2.263  0.9132  0.8667  1.5226
 6625TIP3    H241291   0.019   0.575   2.317 -0.0902 -0.2538  0.3913
 6626TIP3   OH241292   4.097   0.256   0.532 -0.4799  0.2251 -0.3142
 6626TIP3    H141293   4.135   0.310   0.463  2.2206  0.9440  1.5804
 6626TIP3    H241294   4.049   0.318   0.587 -1.0075 -0.0372 -0.4720
 6627TIP3   OH241295   2.958   5.678   4.957 -0.0938  0.8341  0.3445
 6627TIP3    H141296   2.950   5.772   4.973 -1.2433  0.9125 -0.5777
 6627TIP3    H241297   2.954   5.670   4.861  2.1562  0.0174  0.2594
 6628TIP3   OH241298   4.170   2.509  15.508  0.1425 -0.7465 -0.1297
 6628TIP3    H141299   4.190   2.457  15.586  1.1047 -1.1976 -0.6576
 6628TIP3    H241300   4.254   2.518  15.463  0.0817  1.5564  0.0966
 6629TIP3   OH241301   4.639   5.074   3.765 -0.7504  0.0713  0.7038
 6629TIP3    H141302   4.669   4.989   3.730 -0.7359 -0.2663  1.5236
 6629TIP3    H241303   4.586   5.111   3.694 -0.2700 -0.3509  0.1040
 6630TIP3   OH241304   3.364   5.335  11.195 -0.0500  0.1515 -0.3358
 6630TIP3    H141305   3.323   5.254  11.166 -0.0208 -0.6815  1.8052
 6630TIP3    H241306   3.377   5.385  11.115  0.2961 -2.1123 -1.7885
 6631TIP3   OH241307   5.041   4.457  11.222  0.3151  0.1791 -0.4419
 6631TIP3    H141308   5.102   4.478  11.152  1.5544 -0.7270  0.3190
 6631TIP3    H241309   5.055   4.364  11.240 -1.4398 -0.1161 -0.3572
 6632TIP3   OH241310   2.808   4.712   5.905 -0.1160  0.1579 -0.1801
 6632TIP3    H141311   2.810   4.659   5.984  0.5832  0.1485 -0.2008
 6632TIP3    H241312   2.771   4.796   5.933 -0.4657 -0.0577  0.0173
 6633TIP3   OH241313   3.258   4.455  15.695  0.6627  0.6124 -0.2286
 6633TIP3    H141314   3.206   4.377  15.676 -0.1787  0.4849  2.1878
 6633TIP3    H241315   3.349   4.425  15.688  0.4167  0.1162 -1.7770
 6634TIP3   OH241316   3.814   3.600  13.393 -0.2340 -0.4147  0.4877
 6634TIP3    H141317   3.829   3.693  13.376  1.6621 -0.8005 -0.1354
 6634TIP3    H241318   3.750   3.574  13.326 -1.1397  0.5076  0.9575
 6635TIP3   OH241319   3.291   4.019   4.878  0.3562  0.6241 -0.6327
 6635TIP3    H141320   3.352   4.031   4.805  1.5850 -1.1696  0.0441
 6635TIP3    H241321   3.260   3.929   4.869 -1.5137  1.2003 -0.4043
 6636TIP3   OH241322   3.768   2.617   6.451  0.6131  0.0098 -0.1117
 6636TIP3    H141323   3.850   2.659   6.424  0.3666  0.9095  0.4586
 6636TIP3    H241324   3.753   2.548   6.387  2.2092 -0.6772  0.2056
 6637TIP3   OH241325   5.431   5.133  15.691 -0.1957  0.1625  0.2485
 6637TIP3    H141326   5.357   5.126  15.630  1.2955 -1.4210 -1.4804
 6637TIP3    H241327   5.443   5.044  15.724  1.4279  0.2063 -0.1455
 6638TIP3   OH241328   6.257   1.787  14.431  0.2557 -0.1869  0.3560
 6638TIP3    H141329   6.256   1.691  14.427 -1.9129 -0.1790 -0.5484
 6638TIP3    H241330   6.166   1.812  14.416  0.8270  2.0409  0.3813
 6639TIP3   OH241331   5.715   3.475   2.290 -0.7594 -0.4279 -0.0390
 6639TIP3    H141332   5.628   3.504   2.316 -0.6804  0.6829 -0.9376
 6639TIP3    H241333   5.773   3.503   2.360 -0.7052  1.5331 -0.8244
 6640TIP3   OH241334   6.497   0.536  13.945  0.3126 -0.4922  0.3513
 6640TIP3    H141335   6.451   0.611  13.982 -0.1538 -0.4695 -0.2607
 6640TIP3    H241336   6.588   0.549  13.971  0.5587  1.2239 -1.2258
 6641TIP3   OH241337   4.695   1.958   3.829  0.6785 -0.0555 -0.1140
 6641TIP3    H141338   4.705   2.048   3.797 -0.1536  0.3288  0.6591
 6641TIP3    H241339   4.637   1.916   3.766  1.1345 -0.0858 -0.5218
 6642TIP3   OH241340   2.506   0.561   5.856  0.2758 -0.0513  0.3396
 6642TIP3    H141341   2.501   0.492   5.922 -2.8276  0.9529  1.3442
 6642TIP3    H241342   2.490   0.517   5.773 -0.1177 -0.7518  0.7756
 6643TIP3   OH241343   1.434   2.317  16.173 -0.2923  0.0148 -0.0086
 6643TIP3    H141344   1.368   2.380  16.145  0.1541  1.2555  1.5308
 6643TIP3    H241345   1.478   2.361  16.246  0.3585 -1.9107  0.8116
 6644TIP3   OH241346   3.030   6.028  16.853  0.0031 -0.3287  0.1306
 6644TIP3    H141347   2.949   5.997  16.894 -2.0073  0.8113 -2.6586
 6644TIP3    H241348   3.070   5.949  16.816 -0.5163 -0.7121  0.3720
 6645TIP3   OH241349   6.390   2.839   3.122  0.2102 -0.0431 -0.3225
 6645TIP3    H141350   6.318   2.876   3.070  0.4247 -1.8565 -2.0155
 6645TIP3    H241351   6.363   2.855   3.213 -1.7713  0.3501 -0.9106
 6646TIP3   OH241352   0.459   5.158  11.342 -0.0759  0.1579  0.9391
 6646TIP3    H141353   0.508   5.081  11.314  0.2025  0.8540 -0.5797
 6646TIP3    H241354   0.387   5.123  11.395  0.4514 -1.0763  0.8667
 6647TIP3   OH241355   4.134   1.246  13.325  0.4698 -0.0610 -0.5782
 6647TIP3    H141356   4.212   1.197  13.299 -0.0235 -2.3163  1.7259
 6647TIP3    H241357   4.061   1.196  13.288  0.0223  1.3580 -1.6988
 6648TIP3   OH241358   0.335   4.180  12.691  0.1162  0.1892  0.1157
 6648TIP3    H141359   0.274   4.113  12.720  0.3232  0.2241  0.6502
 6648TIP3    H241360   0.405   4.132  12.647  0.8716 -0.0760  1.5414
 6649TIP3   OH241361   4.248   0.721   1.300 -0.8269  0.6319 -0.2269
 6649TIP3    H141362   4.194   0.799   1.312  0.5798  1.5517  0.3508
 6649TIP3    H241363   4.325   0.752   1.253 -0.8052 -0.6732 -1.1188
 6650TIP3   OH241364   2.927   1.306  11.368  0.3990  0.5890 -0.0161
 6650TIP3    H141365   2.901   1.309  11.460  0.3349 -1.2253  0.0585
 6650TIP3    H241366   2.870   1.369  11.325  1.4826  2.6603  1.3790
 6651TIP3   OH241367   1.940   0.838   4.563 -0.7439 -0.0861  0.3913
 6651TIP3    H141368   1.952   0.835   4.468 -0.8814 -2.0087  0.3979
 6651TIP3    H241369   1.967   0.927   4.588  1.6209 -0.2903 -1.1338
 6652TIP3   OH241370   4.228   2.951   5.516  0.3950  0.4610  0.2480
 6652TIP3    H141371   4.152   2.904   5.550 -0.0383  2.2211  1.8412
 6652TIP3    H241372   4.284   2.882   5.479 -0.8494 -1.1242  1.1954
 6653TIP3   OH241373   5.843   0.012   5.676 -0.3225  0.0023  0.0964
 6653TIP3    H141374   5.777   0.065   5.722  1.7868  2.5796  0.4189
 6653TIP3    H241375   5.843   0.047   5.587  0.9864  0.4709  0.2640
 6654TIP3   OH241376   6.417   2.622   2.144  0.6693  0.1702 -0.0222
 6654TIP3    H141377   6.406   2.530   2.167  1.7713 -0.3775 -1.5358
 6654TIP3    H241378   6.494   2.624   2.087  2.0722  2.3378  1.7645
 6655TIP3   OH241379   3.241   0.270   4.509  0.7795 -0.5554 -0.1414
 6655TIP3    H141380   3.177   0.261   4.579 -0.3191 -0.3112 -1.0770
 6655TIP3    H241381   3.245   0.183   4.469  1.4460 -0.7097  0.2456
 6656TIP3   OH241382   4.933   4.510  11.478  0.2862 -0.3442  0.1343
 6656TIP3    H141383   4.968   4.483  11.393 -1.5111  1.1937 -1.1916
 6656TIP3    H241384   4.902   4.429  11.518  0.5994 -1.0262 -0.9464
 6657TIP3   OH241385   6.499   0.917   3.553 -0.2970  0.3043  0.4126
 6657TIP3    H141386   6.550   0.851   3.506 -0.1908  1.0996 -0.6348
 6657TIP3    H241387   6.422   0.870   3.585  0.8485 -0.8061  1.6177
 6658TIP3   OH241388   5.717   5.873   6.258  0.7369 -0.1678  0.3204
 6658TIP3    H141389   5.712   5.779   6.238  0.0248  0.1176 -0.8748
 6658TIP3    H241390   5.628   5.898   6.281  0.5659  0.5797 -1.0801
 6659TIP3   OH241391   3.780   2.085   3.647 -0.4668  0.0689 -0.0620
 6659TIP3    H141392   3.686   2.083   3.629 -0.7303 -0.0346  1.2501
 6659TIP3    H241393   3.786   2.096   3.742  0.8517  0.6901 -0.2019
 6660TIP3   OH241394   4.947   5.541  14.906 -0.3802 -0.0815 -0.5579
 6660TIP3    H141395   5.021   5.556  14.965 -0.4507  0.5103 -0.6129
 6660TIP3    H241396   4.980   5.478  14.843 -0.7717 -1.8997  0.9667
 6661TIP3   OH241397   3.358   4.910  11.715 -0.0269  0.5194 -0.0982
 6661TIP3    H141398   3.266   4.893  11.699  0.1123 -0.3764  0.0025
 6661TIP3    H241399   3.361   4.946  11.804 -0.2842  0.6344 -0.1351
 6662TIP3   OH241400   4.543   0.694  11.550 -0.1812  0.2601 -0.9223
 6662TIP3    H141401   4.540   0.602  11.574  1.5327  0.4854  0.3296
 6662TIP3    H241402   4.539   0.694  11.454  2.2517 -1.3045 -1.1071
 6663TIP3   OH241403   0.745   3.217   2.968 -0.5472  0.0938  0.0991
 6663TIP3    H141404   0.695   3.178   2.897 -0.5008  1.3027 -0.6428
 6663TIP3    H241405   0.781   3.297   2.929  1.1638 -0.2552  0.8854
 6664TIP3   OH241406   4.253   2.050   1.232  0.1405  0.3259 -0.0811
 6664TIP3    H141407   4.179   2.079   1.177  1.5408  3.0477 -0.7271
 6664TIP3    H241408   4.310   2.003   1.171  0.9505  2.0127 -0.7056
 6665TIP3   OH241409   2.144   5.640  14.322 -0.1683  0.4388  0.5131
 6665TIP3    H141410   2.169   5.639  14.414 -0.3876  0.7463  0.5777
 6665TIP3    H241411   2.213   5.591  14.277 -0.1574  0.1384  0.8649
 6666TIP3   OH241412   4.867   1.486  14.323 -0.3844  0.0395 -0.2420
 6666TIP3    H141413   4.885   1.419  14.389 -1.2347  0.1326  0.1050
 6666TIP3    H241414   4.928   1.467  14.252  0.1420 -0.4222  0.3226
 6667TIP3   OH241415   5.602   4.095   4.968 -0.0049  0.4078 -1.0567
 6667TIP3    H141416   5.587   4.001   4.957 -3.0857  0.7478 -0.8442
 6667TIP3    H241417   5.593   4.109   5.062 -2.2479  1.1675 -1.3118
 6668TIP3   OH241418   1.200   2.294  16.423 -0.6454  0.0545 -0.5447
 6668TIP3    H141419   1.278   2.330  16.465  0.3039 -1.9071 -0.5147
 6668TIP3    H241420   1.147   2.260  16.495  0.2366 -1.9007 -0.7869
 6669TIP3   OH241421   4.720   1.874  11.869 -0.0346 -0.7757 -0.1038
 6669TIP3    H141422   4.729   1.816  11.945 -1.7862  0.8414  1.4366
 6669TIP3    H241423   4.630   1.906  11.874  0.9430  2.4114 -0.6021
 6670TIP3   OH241424   3.311   5.012  12.427 -0.1339 -0.1838  0.9378
 6670TIP3    H141425   3.336   4.930  12.385  0.6537  1.4876 -2.1079
 6670TIP3    H241426   3.387   5.036  12.480 -0.1615 -1.1330  1.4171
 6671TIP3   OH241427   4.120   0.999   4.563 -0.1636  0.3022  0.6407
 6671TIP3    H141428   4.145   1.024   4.474 -1.0003  1.3106  0.6679
 6671TIP3    H241429   4.065   1.071   4.594 -0.0158 -0.1022  1.9246
 6672TIP3   OH241430   6.389   2.241  17.104 -0.5519  0.0087  0.0492
 6672TIP3    H141431   6.296   2.223  17.085 -0.6979 -0.1647  0.8990
 6672TIP3    H241432   6.387   2.301  17.179  0.0365 -1.2794  1.1301
 6673TIP3   OH241433   1.474   5.921  14.141 -0.1935  0.7245 -0.3457
 6673TIP3    H141434   1.551   5.958  14.183 -2.2358  2.7799  1.8728
 6673TIP3    H241435   1.480   5.827  14.157  2.3023  0.6772 -1.1785
 6674TIP3   OH241436   5.413   6.446   5.901  0.2772  0.1030 -0.0237
 6674TIP3    H141437   5.454   6.522   5.941 -0.5333  2.7851 -3.7902
 6674TIP3    H241438   5.429   6.456   5.808 -3.8553 -1.8211 -1.1683
 6675TIP3   OH241439   1.312   0.294   4.679 -0.2633 -0.6139  0.1997
 6675TIP3    H141440   1.341   0.204   4.677  0.9916 -0.2148 -0.9994
 6675TIP3    H241441   1.235   0.295   4.622  0.8153 -0.6043 -1.3102
 6676TIP3   OH241442   2.078   5.716  13.196 -0.0837 -0.4604  0.1709
 6676TIP3    H141443   2.031   5.731  13.278  4.0026 -3.0977  3.4358
 6676TIP3    H241444   2.131   5.795  13.183 -1.1085  0.1690 -0.2904
 6677TIP3   OH241445   0.637   0.295  13.524 -0.0443  0.1752 -0.4189
 6677TIP3    H141446   0.557   0.343  13.499 -0.0532  0.5509  0.2887
 6677TIP3    H241447   0.638   0.219  13.466 -0.2008  0.8614 -1.3608
 6678TIP3   OH241448   6.127   3.979  14.856  0.4483  0.3182  0.4602
 6678TIP3    H141449   6.135   3.890  14.891  0.9774  0.5773  1.0181
 6678TIP3    H241450   6.217   4.010  14.851  0.1836  1.3202  1.5725
 6679TIP3   OH241451   2.622   3.119   5.647  0.2059  0.0663 -0.3607
 6679TIP3    H141452   2.674   3.042   5.626 -1.2782 -1.2851  0.7283
 6679TIP3    H241453   2.585   3.147   5.562  0.6279 -0.5172 -0.7400
 6680TIP3   OH241454   5.530   0.228  14.197 -0.8832  0.7037 -0.1581
 6680TIP3    H141455   5.599   0.211  14.261 -1.8484 -3.5246  0.0377
 6680TIP3    H241456   5.470   0.287  14.242 -0.3825 -0.3452  2.0308
 6681TIP3   OH241457   3.512   5.335  14.170  0.1843  0.3628  0.1026
 6681TIP3    H141458   3.490   5.245  14.147 -1.2989  1.2340 -2.2672
 6681TIP3    H241459   3.427   5.378  14.182  0.8606  1.4912  1.0119
 6682TIP3   OH241460   0.843   0.020  15.464 -0.0593 -0.2335  0.2546
 6682TIP3    H141461   0.776   0.016  15.396 -0.6632 -1.3768  0.8839
 6682TIP3    H241462   0.825  -0.057  15.519  0.0634  0.9544  2.0231
 6683TIP3   OH241463   5.830   1.913  16.810  0.4250 -0.1902  0.7935
 6683TIP3    H141464   5.904   1.852  16.817  1.0761  0.2164 -1.6171
 6683TIP3    H241465   5.760   1.861  16.771  0.3631  0.0994  0.5092
 6684TIP3   OH241466   1.616   2.448  14.947  0.4362 -0.4951 -0.5265
 6684TIP3    H141467   1.624   2.370  14.894  0.4869 -1.6173  1.0525
 6684TIP3    H241468   1.526   2.447  14.979  0.0869  0.7343 -1.4097
 6685TIP3   OH241469   5.742   4.474   2.668  0.1433 -0.7446 -0.6425
 6685TIP3    H141470   5.665   4.519   2.704 -0.2138 -0.7863 -1.3411
 6685TIP3    H241471   5.709   4.428   2.591  1.2155  0.7276 -2.0541
 6686TIP3   OH241472   1.508   2.890  14.985 -0.5403  0.0776 -0.1420
 6686TIP3    H141473   1.422   2.870  14.948 -0.9412  1.2620  0.0901
 6686TIP3    H241474   1.567   2.826  14.946 -1.3037  0.0398 -1.2822
 6687TIP3   OH241475   2.420   5.014  16.367  0.4690  0.3195 -0.6267
 6687TIP3    H141476   2.389   5.104  16.376 -0.2676  0.0489 -0.4076
 6687TIP3    H241477   2.487   5.005  16.436 -1.0196  0.0338  0.8358
 6688TIP3   OH241478   1.834   2.684  15.925  0.3641 -1.1275 -0.2684
 6688TIP3    H141479   1.847   2.591  15.908  0.0957 -1.7192  2.3367
 6688TIP3    H241480   1.824   2.690  16.020 -1.8313  1.2819 -0.5361
 6689TIP3   OH241481   1.192   1.448  10.524  0.0460  0.6506 -0.2902
 6689TIP3    H141482   1.228   1.370  10.566  1.4100  1.1682 -0.4541
 6689TIP3    H241483   1.235   1.452  10.439 -0.0977  1.5112 -0.3328
 6690TIP3   OH241484   0.076   1.149  12.341  0.0898  0.3229  0.0129
 6690TIP3    H141485   0.054   1.198  12.262  0.2021 -1.4979 -1.2070
 6690TIP3    H241486  -0.009   1.123  12.377  0.0581 -0.0232 -0.3026
 6691TIP3   OH241487   1.979   1.277   0.987 -0.6032  0.4215  0.5474
 6691TIP3    H141488   2.065   1.303   1.019 -0.3987  0.7197 -0.2269
 6691TIP3    H241489   1.933   1.359   0.971 -0.3818  0.3124 -0.7675
 6692TIP3   OH241490   4.142   2.097   4.533  0.1639  0.7600 -1.2039
 6692TIP3    H141491   4.055   2.073   4.500 -0.6127 -0.8926  1.7236
 6692TIP3    H241492   4.126   2.169   4.594  0.6656 -0.1631  0.0632
 6693TIP3   OH241493   5.123   5.070  12.046 -0.5639  0.2404 -0.0969
 6693TIP3    H141494   5.088   4.982  12.057  0.6045 -0.3885 -1.1659
 6693TIP3    H241495   5.141   5.077  11.952  1.4497  0.7784  0.2825
 6694TIP3   OH241496   6.696   0.393   1.693  0.2486 -0.3497  0.2897
 6694TIP3    H141497   6.764   0.431   1.637  0.1061 -0.3425  0.1221
 6694TIP3    H241498   6.745   0.345   1.760  0.4035 -1.5673 -0.6667
 6695TIP3   OH241499   4.587   0.548  12.983 -0.1254 -0.1316  0.3082
 6695TIP3    H141500   4.642   0.621  12.952 -0.0237 -0.0564  0.6533
 6695TIP3    H241501   4.637   0.470  12.961 -1.3835 -0.2861 -2.4209
 6696TIP3   OH241502   4.282   5.716  11.357  0.5378 -0.5310  0.2091
 6696TIP3    H141503   4.196   5.686  11.386  1.3137 -1.8764  1.2145
 6696TIP3    H241504   4.278   5.710  11.261 -1.0540  1.1545  0.0932
 6697TIP3   OH241505   3.976   4.795   5.833  0.8997  0.4024  0.3455
 6697TIP3    H141506   3.890   4.761   5.857  1.4648  0.9904  3.6569
 6697TIP3    H241507   4.038   4.732   5.869  1.8767  2.3335  2.2319
 6698TIP3   OH241508   5.102   3.825  16.417  0.2016  0.5836 -0.1499
 6698TIP3    H141509   5.187   3.855  16.451 -0.0015  0.7714  0.2065
 6698TIP3    H241510   5.077   3.753  16.476  0.4990 -0.0324 -0.7585
 6699TIP3   OH241511   4.373   0.143  12.615 -0.2658 -0.3090 -0.1423
 6699TIP3    H141512   4.424   0.068  12.582  1.8230 -1.1419  4.2441
 6699TIP3    H241513   4.288   0.105  12.638  0.1587 -0.9513  0.4022
 6700TIP3   OH241514   1.814   0.628   4.127  0.4874 -0.2993  0.0533
 6700TIP3    H141515   1.791   0.537   4.148  1.0827 -0.3246  0.6143
 6700TIP3    H241516   1.738   0.661   4.079 -1.3278  0.0446  2.9508
 6701TIP3   OH241517   0.704   1.613  13.882 -0.1254  0.6393  0.2122
 6701TIP3    H141518   0.739   1.555  13.815 -0.8755 -1.7696  1.7780
 6701TIP3    H241519   0.647   1.673  13.835 -2.1685 -2.1842 -1.2066
 6702TIP3   OH241520   0.978   4.586  14.112  0.1620  0.2795 -0.1255
 6702TIP3    H141521   0.990   4.545  14.026  1.2867  0.9652 -0.3132
 6702TIP3    H241522   0.956   4.677  14.092 -0.1533  0.3023  0.3123
 6703TIP3   OH241523   3.005   6.531  16.079  0.5929  0.0675  0.2235
 6703TIP3    H141524   3.061   6.586  16.025  0.8879 -1.9516 -1.6662
 6703TIP3    H241525   3.011   6.444  16.039 -1.5898 -0.8605  1.7228
 6704TIP3   OH241526   3.488   2.195  16.867  0.0542  0.5424 -0.3849
 6704TIP3    H141527   3.528   2.255  16.805 -0.7669 -0.2157 -1.6988
 6704TIP3    H241528   3.556   2.129  16.885  0.8774  1.6878  0.8856
 6705TIP3   OH241529   4.671   4.350   0.641  0.0907 -0.7232 -0.7904
 6705TIP3    H141530   4.599   4.289   0.655  1.2679 -1.7020  1.4725
 6705TIP3    H241531   4.640   4.433   0.677 -1.0166 -0.2573 -2.6802
 6706TIP3   OH241532   1.953   3.726  13.487  0.2201 -0.3147  0.0018
 6706TIP3    H141533   1.858   3.710  13.488  0.2699 -0.6305  0.7538
 6706TIP3    H241534   1.992   3.643  13.513  0.6447  0.0931  0.7130
 6707TIP3   OH241535   1.542   5.090  13.190  0.6174  0.5826 -0.4156
 6707TIP3    H141536   1.529   5.173  13.237  1.7654  0.8981 -0.6232
 6707TIP3    H241537   1.530   5.023  13.257  0.6550  0.9621 -0.0209
 6708TIP3   OH241538   3.471   2.405  12.024 -0.1177  0.1589 -0.0809
 6708TIP3    H141539   3.445   2.394  12.115 -2.7289  0.6470 -0.6799
 6708TIP3    H241540   3.409   2.470  11.990  1.7192  1.0708 -1.8384
 6709TIP3   OH241541   1.814   6.720   0.353 -0.2225 -0.4457 -0.1717
 6709TIP3    H141542   1.778   6.800   0.391  0.6658  0.7710 -1.7884
 6709TIP3    H241543   1.738   6.676   0.314 -0.9923 -1.2555  2.0761
 6710TIP3   OH241544   6.686   2.741  16.935 -0.1031  0.1979 -0.4576
 6710TIP3    H141545   6.657   2.707  17.020 -0.4216 -1.0452 -1.0390
 6710TIP3    H241546   6.617   2.802  16.910  0.9950  2.1848  1.0876
 6711TIP3   OH241547   2.043   2.245   3.982  0.2575  0.7456 -0.0758
 6711TIP3    H141548   2.131   2.213   3.961  0.7074  1.7017  0.3332
 6711TIP3    H241549   2.000   2.170   4.024  1.7955  1.0804  2.2880
 6712TIP3   OH241550   2.461   3.380  16.957  0.3824 -0.9504 -0.2461
 6712TIP3    H141551   2.389   3.429  16.996  0.8428 -0.3975 -0.0844
 6712TIP3    H241552   2.420   3.300  16.923 -0.6080  0.1079 -1.6644
 6713TIP3   OH241553   5.566   6.656   0.552  0.0613  0.2933 -0.3993
 6713TIP3    H141554   5.576   6.750   0.544 -1.5625  0.5368  0.1517
 6713TIP3    H241555   5.655   6.624   0.568  0.9062  1.4926 -2.3902
 6714TIP3   OH241556   3.037   6.509  14.649  0.1180  0.1498 -0.5863
 6714TIP3    H141557   3.017   6.573  14.717 -0.3136 -0.5485 -0.0494
 6714TIP3    H241558   3.131   6.493  14.658 -0.1400 -0.7817  0.5973
 6715TIP3   OH241559   2.066   5.805   1.482 -0.7660  0.2812 -0.1125
 6715TIP3    H141560   2.073   5.817   1.388 -1.1187  1.0877 -0.0368
 6715TIP3    H241561   2.137   5.745   1.504 -1.5683 -1.0861 -1.0949
 6716TIP3   OH241562   3.542   3.151   4.614 -1.0664 -0.3988  0.1737
 6716TIP3    H141563   3.530   3.207   4.691  0.3557  0.0741  0.0688
 6716TIP3    H241564   3.630   3.171   4.583 -1.1071 -1.5953 -0.7735
 6717TIP3   OH241565   0.917   4.208  10.843 -0.2909  0.2762  0.5321
 6717TIP3    H141566   0.833   4.188  10.801 -0.3257 -0.8004  1.0921
 6717TIP3    H241567   0.934   4.299  10.819 -2.5277  1.1568  1.8797
 6718TIP3   OH241568   6.655   3.967  12.514  0.6113  0.3302  0.0506
 6718TIP3    H141569   6.617   4.049  12.483  1.7019  1.4006  1.4389
 6718TIP3    H241570   6.596   3.900  12.480 -0.0749  1.6344 -1.4802
 6719TIP3   OH241571   6.155   5.419   5.690 -0.2534  0.1499  0.9426
 6719TIP3    H141572   6.211   5.423   5.768 -0.4926  1.6606  1.0646
 6719TIP3    H241573   6.183   5.493   5.636  0.5150 -1.3776 -0.8714
 6720TIP3   OH241574   0.203   4.255   6.207 -0.2091  0.3658  0.0986
 6720TIP3    H141575   0.277   4.299   6.250 -0.1290  0.7761 -0.4380
 6720TIP3    H241576   0.154   4.215   6.278  0.1068  0.7458  0.5383
 6721TIP3   OH241577   5.403   5.823   0.654 -0.0024  0.1986 -0.4171
 6721TIP3    H141578   5.371   5.739   0.683  0.0208 -0.3640 -1.9246
 6721TIP3    H241579   5.330   5.863   0.607  0.7740 -0.1788 -2.0374
 6722TIP3   OH241580   6.416   3.218  12.824 -0.3788 -0.6139  0.1253
 6722TIP3    H141581   6.498   3.265  12.837 -1.6748  1.9795 -0.5485
 6722TIP3    H241582   6.435   3.157  12.752  0.3277  1.7746 -1.8470
 6723TIP3   OH241583   4.570   4.116  15.121  0.4244  0.9990  0.5502
 6723TIP3    H141584   4.515   4.142  15.195 -0.3142 -0.3780  0.5089
 6723TIP3    H241585   4.510   4.110  15.047  1.2199  2.7768 -0.3256
 6724TIP3   OH241586   5.735   4.346  16.682  0.0615  0.0709  0.2033
 6724TIP3    H141587   5.690   4.411  16.629 -1.7707 -0.4753  0.9927
 6724TIP3    H241588   5.762   4.394  16.761 -2.7300 -0.3583  1.5371
 6725TIP3   OH241589   1.262   0.796  15.478  0.7332  0.7582 -1.0762
 6725TIP3    H141590   1.273   0.705  15.453  0.3448  0.9526 -2.0048
 6725TIP3    H241591   1.216   0.836  15.404  0.8829  1.7017 -0.6770
 6726TIP3   OH241592   3.315   2.114   2.245 -0.3132  0.6906  0.2227
 6726TIP3    H141593   3.310   2.180   2.315 -1.1990 -1.1223  1.9879
 6726TIP3    H241594   3.408   2.092   2.241 -0.3398  0.2966  1.3865
 6727TIP3   OH241595   4.886   5.373  16.675 -0.1882  0.3271 -0.4263
 6727TIP3    H141596   4.900   5.279  16.686  1.4638  0.3473 -2.0121
 6727TIP3    H241597   4.794   5.386  16.699  0.0061 -1.3679  1.5420
 6728TIP3   OH241598   5.561   6.203   1.059 -0.0646  0.2097 -0.4557
 6728TIP3    H141599   5.535   6.294   1.048 -2.5495 -0.6500 -2.4363
 6728TIP3    H241600   5.552   6.164   0.972  0.6709 -2.0102  0.3837
 6729TIP3   OH241601   3.476   2.537   1.922  0.3979  0.0676 -0.6668
 6729TIP3    H141602   3.473   2.454   1.875  1.6502  0.0231 -0.6867
 6729TIP3    H241603   3.491   2.513   2.013  1.7773  0.2912 -0.8172
 6730TIP3   OH241604   1.312   1.643   3.289  0.4226  0.1620  0.4409
 6730TIP3    H141605   1.259   1.591   3.349  0.4249 -1.6984 -1.0621
 6730TIP3    H241606   1.260   1.721   3.272 -1.2257 -0.9554  0.1121
 6731TIP3   OH241607   3.493   5.546   0.444 -0.3278  0.0935 -0.2188
 6731TIP3    H141608   3.493   5.464   0.396  0.6863 -0.5550  0.8615
 6731TIP3    H241609   3.585   5.565   0.462 -0.6232  0.8082  0.6435
 6732TIP3   OH241610   0.610   2.940  12.716 -0.0034  1.1282  0.3558
 6732TIP3    H141611   0.567   2.885  12.650  1.1573  0.5094  0.0901
 6732TIP3    H241612   0.548   3.010  12.733 -1.0286  0.3739 -0.1665
 6733TIP3   OH241613   1.136   5.631   2.682 -0.2946  0.0713  0.1419
 6733TIP3    H141614   1.126   5.618   2.776  2.6533  1.7648  0.8207
 6733TIP3    H241615   1.230   5.617   2.666 -0.4647  1.2091 -2.2833
 6734TIP3   OH241616   0.897   4.208  12.552  0.3715 -0.5658 -0.5493
 6734TIP3    H141617   0.938   4.295  12.560  0.5359 -0.5778 -1.2330
 6734TIP3    H241618   0.959   4.157  12.500 -0.3902 -0.6658 -1.3778
 6735TIP3   OH241619   6.527   1.441   1.148  0.2995  0.4313  0.4808
 6735TIP3    H141620   6.588   1.452   1.075 -1.3116  0.0039 -0.9708
 6735TIP3    H241621   6.452   1.395   1.111 -0.9994  1.0796  2.1618
 6736TIP3   OH241622   6.596   1.492   2.421  0.6189  0.4163  0.6066
 6736TIP3    H141623   6.659   1.435   2.376  1.1541  0.0358  1.8093
 6736TIP3    H241624   6.597   1.463   2.512 -1.4481  0.2796  0.6340
 6737TIP3   OH241625   4.087   4.587  12.521 -0.0447 -0.7479 -0.4244
 6737TIP3    H141626   4.037   4.566  12.600  1.1104 -0.9110  0.2933
 6737TIP3    H241627   4.149   4.654  12.549  0.0287 -0.4133 -1.3367
 6738TIP3   OH241628   6.109   0.808  16.263  0.6052 -0.6815 -0.3393
 6738TIP3    H141629   6.112   0.745  16.335 -1.0546 -1.0716 -0.5786
 6738TIP3    H241630   6.125   0.757  16.184  1.2857 -0.4391 -0.3700
 6739TIP3   OH241631   1.955   4.638  15.700 -0.0365 -0.2634  0.6994
 6739TIP3    H141632   1.972   4.544  15.691 -2.4354 -0.7995  1.1673
 6739TIP3    H241633   1.951   4.653  15.794  0.9002  0.4503  0.6390
 6740TIP3   OH241634   3.206   3.165   2.271  0.5171  0.3476  0.0905
 6740TIP3    H141635   3.285   3.137   2.317  1.0814 -1.0484 -1.6229
 6740TIP3    H241636   3.195   3.102   2.200 -1.3355  1.3535 -0.6045
 6741TIP3   OH241637   0.957   0.894  14.799  0.3645 -0.5550  0.0881
 6741TIP3    H141638   0.931   0.985  14.783 -1.2173 -1.2321 -1.6150
 6741TIP3    H241639   1.013   0.872  14.725 -0.8445 -1.4972 -0.5922
 6742TIP3   OH241640   5.964   2.714   4.760 -0.5934 -0.2410  0.1117
 6742TIP3    H141641   5.948   2.790   4.705  0.2523  0.4845  0.8552
 6742TIP3    H241642   5.980   2.643   4.698  0.2138  0.5299 -0.5918
 6743TIP3   OH241643   4.992   3.708   4.593 -0.7173  0.3401 -0.0096
 6743TIP3    H141644   4.974   3.718   4.687 -0.6510  0.4041 -0.0036
 6743TIP3    H241645   5.012   3.796   4.563 -1.5699  0.4663 -0.2602
 6744TIP3   OH241646   5.620   4.368   5.025  0.1954  0.0402 -0.2325
 6744TIP3    H141647   5.610   4.295   4.965  0.4647  0.3785 -0.6948
 6744TIP3    H241648   5.690   4.342   5.084 -1.4594 -1.2000  1.3173
 6745TIP3   OH241649   5.146   3.632  12.110 -0.0118  0.0623  0.2770
 6745TIP3    H141650   5.124   3.585  12.190 -0.7602  0.2497  0.1831
 6745TIP3    H241651   5.093   3.712  12.113  1.1167  0.8481  0.3660
 6746TIP3   OH241652   3.106   3.497   6.232  0.3576  0.3272  0.1410
 6746TIP3    H141653   3.049   3.423   6.253  0.1138 -0.0221 -1.5672
 6746TIP3    H241654   3.071   3.570   6.283 -1.5096  0.0630 -0.6601
 6747TIP3   OH241655   3.885   2.758   0.140 -0.8018 -0.8825 -0.6011
 6747TIP3    H141656   3.798   2.721   0.153 -1.4156  0.9320  0.7811
 6747TIP3    H241657   3.884   2.840   0.189  1.4353 -0.4335 -1.2084
 6748TIP3   OH241658   2.828   0.647  13.846 -0.4282  0.6873  0.0645
 6748TIP3    H141659   2.921   0.626  13.845 -0.1675  1.8116 -0.2546
 6748TIP3    H241660   2.807   0.654  13.939 -0.6354 -1.3293  0.2157
 6749TIP3   OH241661   1.927   6.004   1.077 -0.4335 -0.2691  0.2849
 6749TIP3    H141662   1.887   6.051   1.004 -3.9598  0.7733  2.6635
 6749TIP3    H241663   1.991   6.066   1.113  0.6343 -0.4300 -1.2636
 6750TIP3   OH241664   4.335   5.813  16.459 -0.2774 -0.0828 -0.8128
 6750TIP3    H141665   4.403   5.864  16.416  0.9134  1.3364  2.4531
 6750TIP3    H241666   4.257   5.868  16.455  0.4996  1.2505  0.9602
 6751TIP3   OH241667   2.503   1.946  14.054  0.3246 -0.5657  0.7416
 6751TIP3    H141668   2.414   1.944  14.019  0.1097 -0.9692  1.2865
 6751TIP3    H241669   2.522   2.038  14.067  1.1104 -0.2209 -2.1388
 6752TIP3   OH241670   3.675   4.863  14.730  0.3635  0.2245  0.7075
 6752TIP3    H141671   3.735   4.809  14.782  0.4009  0.4538  0.9029
 6752TIP3    H241672   3.722   4.946  14.718  0.5765 -0.0089 -0.1373
 6753TIP3   OH241673   4.714   6.526  14.914 -0.1224  0.4792  0.5877
 6753TIP3    H141674   4.631   6.509  14.870 -0.6792  2.1584  0.9089
 6753TIP3    H241675   4.770   6.564  14.847  0.7708 -1.5570  0.1186
 6754TIP3   OH241676   0.439   1.545   5.322  0.4841  0.5924 -0.1721
 6754TIP3    H141677   0.386   1.610   5.275 -2.4837  0.3803  2.5792
 6754TIP3    H241678   0.405   1.461   5.292  1.7438  0.3217 -0.9271
 6755TIP3   OH241679   6.277   0.310  15.017 -0.0353 -0.6715  0.4453
 6755TIP3    H141680   6.222   0.232  15.012 -1.8287  0.5712 -0.2199
 6755TIP3    H241681   6.342   0.297  14.948  0.1750 -1.9043  0.8463
 6756TIP3   OH241682   0.407   0.548   6.365 -0.4057 -0.0237  0.5914
 6756TIP3    H141683   0.398   0.620   6.303 -1.8310 -1.6127 -1.1681
 6756TIP3    H241684   0.324   0.549   6.414 -0.2880 -0.2336  0.7974
 6757TIP3   OH241685   6.784   6.724  15.838  0.1180  1.0379 -0.3346
 6757TIP3    H141686   6.726   6.728  15.914  0.4347  0.3663 -0.0470
 6757TIP3    H241687   6.836   6.804  15.843 -0.8560  1.6998 -0.6618
 6758TIP3   OH241688   2.984   6.047  11.811  0.2100 -0.3283  0.3102
 6758TIP3    H141689   3.077   6.056  11.834  0.2740 -2.2711  0.9981
 6758TIP3    H241690   2.938   6.064  11.893  0.0111 -0.2508  0.1814
 6759TIP3   OH241691   1.259   6.541  14.571 -0.4349  0.1148 -0.5442
 6759TIP3    H141692   1.348   6.556  14.602 -0.4780  0.8886 -0.7792
 6759TIP3    H241693   1.239   6.451  14.598  0.2168  0.1213 -0.0141
 6760TIP3   OH241694   4.136   5.908  13.899  0.1168 -0.2659  0.1771
 6760TIP3    H141695   4.150   5.896  13.805  0.2709  0.1579  0.1439
 6760TIP3    H241696   4.220   5.939  13.932 -0.8035  2.9492 -0.1304
 6761TIP3   OH241697   5.700   4.379  11.462 -0.2767  0.0523 -0.0968
 6761TIP3    H141698   5.791   4.404  11.444 -0.1792  0.6993  1.2238
 6761TIP3    H241699   5.654   4.399  11.380  0.8744 -0.9563 -1.0406
 6762TIP3   OH241700   0.699   4.139   4.532  0.4664 -0.3190 -0.1272
 6762TIP3    H141701   0.791   4.119   4.514  1.4591  1.7665  2.1609
 6762TIP3    H241702   0.695   4.234   4.535 -1.7867 -0.3612 -0.0552
 6763TIP3   OH241703   3.244   4.464   5.022  0.2746  0.2322 -0.1314
 6763TIP3    H141704   3.165   4.519   5.017 -0.8034 -1.1461  1.0789
 6763TIP3    H241705   3.260   4.453   5.115  1.3212 -0.3495 -0.3629
 6764TIP3   OH241706   1.426   0.194  13.116  0.8053  0.2075  0.1191
 6764TIP3    H141707   1.475   0.125  13.161 -0.1581 -1.1923 -0.8849
 6764TIP3    H241708   1.470   0.204  13.031 -0.5307 -1.0023 -0.7564
 6765TIP3   OH241709   3.782   6.114   2.702 -0.1706 -0.2000  0.0316
 6765TIP3    H141710   3.793   6.208   2.712  1.0546 -0.3033 -0.2132
 6765TIP3    H241711   3.716   6.104   2.633 -0.0138  0.4658 -0.2195
 6766TIP3   OH241712   0.042   2.437   4.561  0.0555  0.5999 -0.4307
 6766TIP3    H141713   0.114   2.439   4.498  0.7095  2.3926  0.2973
 6766TIP3    H241714   0.078   2.477   4.640 -1.6413  1.2463  0.0602
 6767TIP3   OH241715   1.222   3.888  16.695  0.1744 -0.2213 -0.3114
 6767TIP3    H141716   1.316   3.871  16.698  0.0525 -0.8174  1.9856
 6767TIP3    H241717   1.183   3.802  16.678 -0.0429 -0.4806  1.4094
 6768TIP3   OH241718   0.099   3.019   2.604  0.3912  0.4557  0.4626
 6768TIP3    H141719   0.079   2.993   2.694  2.5065  0.7150  1.0622
 6768TIP3    H241720   0.156   3.095   2.613 -0.7004  1.5315 -1.1546
 6769TIP3   OH241721   4.869   6.462  11.231  0.0548  0.0951 -0.1195
 6769TIP3    H141722   4.863   6.555  11.254 -1.6953 -0.3800  1.6056
 6769TIP3    H241723   4.953   6.434  11.266  0.3255  0.8751 -0.1127
 6770TIP3   OH241724   4.771   1.911  12.315 -0.0403 -0.0817  0.5074
 6770TIP3    H141725   4.817   1.835  12.279 -0.0949 -0.2221  0.7322
 6770TIP3    H241726   4.702   1.873  12.369 -0.8777  0.1219 -0.3994
 6771TIP3   OH241727   3.231   0.445   3.902  0.3860  0.2903  0.0613
 6771TIP3    H141728   3.284   0.522   3.923 -0.2305  0.5635  0.6582
 6771TIP3    H241729   3.292   0.371   3.908  0.5215  0.4840  1.6729
 6772TIP3   OH241730   4.866   5.991  15.438 -0.4176 -0.6573  0.0833
 6772TIP3    H141731   4.931   5.926  15.409 -1.7684 -1.8563 -0.3920
 6772TIP3    H241732   4.819   5.948  15.509 -1.7143 -0.4516 -0.6183
 6773TIP3   OH241733   5.519   2.539   4.586 -0.7343  0.4676  0.0724
 6773TIP3    H141734   5.494   2.571   4.673  1.8814 -0.2993  1.1809
 6773TIP3    H241735   5.535   2.618   4.535 -1.0776  0.9231  0.6555
 6774TIP3   OH241736   2.501   0.435   0.623 -0.5170 -0.1579  0.0107
 6774TIP3    H141737   2.502   0.342   0.599  0.1440  0.1797 -1.3460
 6774TIP3    H241738   2.592   0.463   0.614 -1.0564  1.1768 -1.9666
 6775TIP3   OH241739   4.418   1.509  10.816  0.3516 -0.2129  0.4038
 6775TIP3    H141740   4.397   1.590  10.770 -2.0409  0.0467  1.8062
 6775TIP3    H241741   4.385   1.522  10.905  1.6244 -2.0297  1.2086
 6776TIP3   OH241742   1.562   3.172   3.277 -0.4781  0.0803 -0.6446
 6776TIP3    H141743   1.603   3.172   3.190  0.8118  0.9527 -0.0699
 6776TIP3    H241744   1.618   3.114   3.329 -1.0115 -0.1202 -0.2881
 6777TIP3   OH241745   0.007   3.697  17.119 -1.3005  0.8669 -0.0026
 6777TIP3    H141746   0.028   3.709  17.211 -1.8874  1.0315  0.1173
 6777TIP3    H241747   0.057   3.765  17.074 -0.9166  0.7062  0.1831
 6778TIP3   OH241748   2.825   5.484  14.006  0.4173 -0.0531 -0.9642
 6778TIP3    H141749   2.796   5.410  14.059  1.4198 -0.7290 -1.3312
 6778TIP3    H241750   2.825   5.558  14.067  1.3700 -0.7791 -0.0416
 6779TIP3   OH241751   0.288   6.176  15.409  0.0274 -0.1310 -0.1616
 6779TIP3    H141752   0.253   6.092  15.440 -0.8458  0.1633 -0.3230
 6779TIP3    H241753   0.378   6.177  15.439 -0.2996 -0.6135  0.8637
 6780TIP3   OH241754   3.010   0.409  16.424  0.4175 -0.0106 -0.1121
 6780TIP3    H141755   2.930   0.375  16.464  1.3982 -0.6590  1.3897
 6780TIP3    H241756   3.047   0.334  16.377  0.0627  0.3462 -0.9937
 6781TIP3   OH241757   1.903   4.322  14.203 -0.1283 -0.3436  0.4099
 6781TIP3    H141758   1.909   4.230  14.178 -1.1227 -0.4863  0.6336
 6781TIP3    H241759   1.911   4.321  14.298 -3.4836 -0.6254  0.8241
 6782TIP3   OH241760   3.057   2.990   1.682 -0.3047  0.4033 -0.0217
 6782TIP3    H141761   3.018   3.077   1.670 -1.6469 -0.3148 -1.0517
 6782TIP3    H241762   2.984   2.929   1.673 -0.2279 -0.7550  4.5603
 6783TIP3   OH241763   4.753   0.693  13.282  1.0327 -0.3014  0.2834
 6783TIP3    H141764   4.785   0.732  13.364  1.0763  0.3976 -0.0617
 6783TIP3    H241765   4.815   0.722  13.216 -1.5403  3.1431 -0.8667
 6784TIP3   OH241766   1.062   5.764  16.432  0.2824 -0.5408 -1.0003
 6784TIP3    H141767   1.100   5.844  16.468  0.0987 -1.2712  0.9067
 6784TIP3    H241768   1.020   5.792  16.351  0.6608  1.1965 -0.6307
 6785TIP3   OH241769   6.793   4.541   2.969 -0.2189  1.4660  0.9415
 6785TIP3    H141770   6.871   4.585   3.003  0.2256 -0.1865  2.2083
 6785TIP3    H241771   6.738   4.528   3.047 -0.5868  0.3605  0.5184
 6786TIP3   OH241772   6.588   1.525  14.571  0.2204  0.0861  0.0870
 6786TIP3    H141773   6.629   1.612  14.576  1.8972 -0.6080 -0.8511
 6786TIP3    H241774   6.595   1.491  14.660  2.7324 -0.4200 -0.2367
 6787TIP3   OH241775   5.685   0.379   1.886 -0.2442  0.2313  0.3662
 6787TIP3    H141776   5.610   0.418   1.840 -1.1911 -1.0356  0.7657
 6787TIP3    H241777   5.700   0.436   1.961  1.0431  2.0841 -1.2085
 6788TIP3   OH241778   0.040   1.945   1.795  0.1093 -0.2732  0.1463
 6788TIP3    H141779   0.035   2.031   1.753  0.2699  0.3153  1.2746
 6788TIP3    H241780  -0.051   1.921   1.813  0.1079  1.4597  3.2227
 6789TIP3   OH241781   3.684   6.428   3.871 -0.1818  0.0007  0.1840
 6789TIP3    H141782   3.662   6.505   3.819  1.2815  0.2656 -0.0995
 6789TIP3    H241783   3.669   6.455   3.961 -2.4964 -0.3800 -0.0311
 6790TIP3   OH241784   2.883   0.522  12.583 -0.5494 -0.0796  0.0160
 6790TIP3    H141785   2.829   0.541  12.506 -0.6341 -0.4969 -0.0266
 6790TIP3    H241786   2.844   0.444  12.621 -1.6974  1.1733  1.5722
 6791TIP3   OH241787   4.284   3.356   3.114 -0.4015  0.5906  0.0571
 6791TIP3    H141788   4.270   3.450   3.103 -1.5884  0.2294 -1.9773
 6791TIP3    H241789   4.205   3.325   3.160  0.3851  0.6781  1.5365
 6792TIP3   OH241790   4.300   5.801   1.511 -0.0060  0.0882  0.4096
 6792TIP3    H141791   4.222   5.779   1.562 -0.6675 -0.1772 -0.6595
 6792TIP3    H241792   4.302   5.897   1.511  1.0115  0.1093  2.3579
 6793TIP3   OH241793   4.964   1.679  13.996  0.4245  0.7008 -0.5316
 6793TIP3    H141794   4.912   1.730  13.934  0.0711 -0.1529 -0.9656
 6793TIP3    H241795   4.899   1.637  14.053  0.7436  1.4502  0.4139
 6794TIP3   OH241796   5.550   3.579   3.068 -0.0295  0.1135  0.5622
 6794TIP3    H141797   5.626   3.595   3.123  0.2980 -1.2783  0.5569
 6794TIP3    H241798   5.492   3.654   3.085  1.5401  1.4695  0.1595
 6795TIP3   OH241799   3.553   3.190  14.241 -0.3386  0.7701  0.1051
 6795TIP3    H141800   3.508   3.158  14.320 -1.7485 -1.3821 -1.4613
 6795TIP3    H241801   3.644   3.200  14.268 -0.7258 -0.1102  1.9323
 6796TIP3   OH241802   4.316   2.301   4.171  0.2502 -0.0819 -0.2301
 6796TIP3    H141803   4.236   2.334   4.131  2.0832  0.1811 -4.2197
 6796TIP3    H241804   4.381   2.369   4.154  1.6822 -0.9486  1.4740
 6797TIP3   OH241805   5.273   0.091   6.452 -0.1793  0.3456 -0.7730
 6797TIP3    H141806   5.285   0.174   6.405  1.0539  1.3518  1.1754
 6797TIP3    H241807   5.204   0.109   6.515  0.0786 -0.1088 -0.3511
 6798TIP3   OH241808   6.037   2.706  16.835 -0.1086  0.1873 -0.5994
 6798TIP3    H141809   5.978   2.651  16.886 -0.3816  0.1655 -0.9348
 6798TIP3    H241810   6.004   2.700  16.746  0.5791 -0.0582 -0.8371
 6799TIP3   OH241811   6.550   0.889   0.373  0.5022 -0.0438 -0.0170
 6799TIP3    H141812   6.617   0.849   0.428  0.7727  1.1253  0.5514
 6799TIP3    H241813   6.492   0.933   0.435  0.3211  0.5779 -0.6138
 6800TIP3   OH241814   3.827   1.659   0.929  0.2217 -0.2044 -0.2459
 6800TIP3    H141815   3.869   1.739   0.898 -0.3600  0.4162  0.5175
 6800TIP3    H241816   3.900   1.604   0.959  0.6659 -0.2082 -1.3128
 6801TIP3   OH241817   1.863   6.712   2.700  0.1943  0.2482  0.1198
 6801TIP3    H141818   1.848   6.618   2.710 -0.7558  0.4552  0.8255
 6801TIP3    H241819   1.956   6.720   2.680  0.2183 -0.8616 -0.2998
 6802TIP3   OH241820   3.251   1.314   3.111  0.1210 -0.1008 -0.2872
 6802TIP3    H141821   3.202   1.255   3.055 -0.5887  1.8351 -1.8257
 6802TIP3    H241822   3.336   1.323   3.067  0.0607  0.3350 -0.3244
 6803TIP3   OH241823   1.496   5.838  11.662 -0.5958 -0.7697 -0.8506
 6803TIP3    H141824   1.528   5.755  11.626  0.0877 -0.9721  0.1789
 6803TIP3    H241825   1.401   5.827  11.665 -0.4762 -1.7840 -0.1304
 6804TIP3   OH241826   2.445   0.165  10.579 -0.4220  0.1294 -0.3993
 6804TIP3    H141827   2.508   0.182  10.648 -0.9686  1.5584 -0.2060
 6804TIP3    H241828   2.479   0.088  10.533  0.4193 -0.2978  0.8829
 6805TIP3   OH241829   5.869   0.950   1.888 -0.0653  0.0670 -0.5147
 6805TIP3    H141830   5.943   1.004   1.913 -0.5870  0.3949  0.3545
 6805TIP3    H241831   5.819   0.939   1.968 -0.9401 -0.1816 -1.0814
 6806TIP3   OH241832   3.110   3.920   3.222  0.0541 -0.0031 -0.3191
 6806TIP3    H141833   3.072   3.845   3.178 -1.7685  1.2188 -0.9487
 6806TIP3    H241834   3.135   3.888   3.309  1.5756 -1.8831 -1.3657
 6807TIP3   OH241835   6.692   0.789   4.037  0.5180 -0.1051 -0.7464
 6807TIP3    H141836   6.643   0.837   3.970 -0.4025  0.3250  0.2106
 6807TIP3    H241837   6.758   0.851   4.068  0.6576 -0.1565 -0.9375
 6808TIP3   OH241838   3.743   1.149   5.218 -0.0256  0.3815  0.1262
 6808TIP3    H141839   3.744   1.217   5.284 -0.3524  0.8905 -0.3831
 6808TIP3    H241840   3.722   1.069   5.266  1.9878  0.3243  0.9881
 6809TIP3   OH241841   4.853   2.917  14.657 -0.8942 -0.1596 -0.2780
 6809TIP3    H141842   4.943   2.948  14.644 -0.2576 -2.4161 -1.9187
 6809TIP3    H241843   4.849   2.895  14.750 -0.7747  2.7563  0.4941
 6810TIP3   OH241844   3.093   1.009  11.789 -0.4265 -0.3889  0.0548
 6810TIP3    H141845   3.065   1.098  11.766  1.0957 -0.2355 -1.4400
 6810TIP3    H241846   3.012   0.961  11.804 -1.3136  1.0044 -0.1244
 6811TIP3   OH241847   5.672   3.797   0.652 -0.2020 -0.3322 -0.2767
 6811TIP3    H141848   5.589   3.843   0.642  0.3247  0.7854  0.2743
 6811TIP3    H241849   5.649   3.712   0.689 -1.0253  0.3562  0.8580
 6812TIP3   OH241850   0.183   3.167   4.786  0.6458  0.1840 -0.1081
 6812TIP3    H141851   0.098   3.147   4.825  0.7728 -0.9851 -0.3921
 6812TIP3    H241852   0.174   3.256   4.753  0.1135  0.7141  1.4148
 6813TIP3   OH241853   0.744   4.113   2.008 -0.1572 -0.0743 -0.2073
 6813TIP3    H141854   0.761   4.089   2.099 -0.1642 -1.2479 -0.5028
 6813TIP3    H241855   0.649   4.113   2.001 -0.1642  0.3241 -0.1431
 6814TIP3   OH241856   2.567   1.670  14.145 -0.2317  0.4185  0.4791
 6814TIP3    H141857   2.639   1.685  14.206 -0.1022 -0.4791  0.5600
 6814TIP3    H241858   2.538   1.758  14.120  1.4697  0.8148 -0.2475
 6815TIP3   OH241859   5.009   3.448   0.151  0.5131  0.3102  0.1199
 6815TIP3    H141860   4.937   3.393   0.121  0.1381  0.8768 -0.0437
 6815TIP3    H241861   4.977   3.487   0.233  0.8609  0.1128  0.3528
 6816TIP3   OH241862   2.097   6.115   0.488 -0.2037 -0.4063 -0.0380
 6816TIP3    H141863   2.043   6.153   0.418  1.3439  0.3176 -0.8986
 6816TIP3    H241864   2.159   6.059   0.441 -0.8351 -2.0705  1.0192
 6817TIP3   OH241865   1.843   1.717   3.346 -0.3346  0.1912  0.3973
 6817TIP3    H141866   1.902   1.710   3.420  0.5062 -0.2218 -0.2896
 6817TIP3    H241867   1.882   1.661   3.279  0.1484  2.2590 -1.1518
 6818TIP3   OH241868   2.632   6.419   5.748 -0.5352  0.2732  0.1456
 6818TIP3    H141869   2.659   6.433   5.657  0.5106  0.9999  0.5439
 6818TIP3    H241870   2.579   6.340   5.746  2.4931 -1.9229 -0.5621
 6819TIP3   OH241871   5.780   5.382   5.414 -0.3029  0.2284 -0.4804
 6819TIP3    H141872   5.705   5.437   5.435 -2.1365 -3.1400  3.1763
 6819TIP3    H241873   5.826   5.372   5.497 -0.1435 -3.5364 -0.8409
 6820TIP3   OH241874   3.924   1.903  16.804 -0.2733 -0.4328 -0.6275
 6820TIP3    H141875   3.980   1.892  16.727  0.3476  0.0639 -0.2653
 6820TIP3    H241876   3.918   1.816  16.842 -0.8424 -0.7453 -1.4055
 6821TIP3   OH241877   3.279   5.473  14.136 -0.5203 -0.2776  0.3383
 6821TIP3    H141878   3.326   5.544  14.093  1.5762 -2.1143 -0.6032
 6821TIP3    H241879   3.224   5.435  14.068 -1.4663  0.2685  0.7815
 6822TIP3   OH241880   1.006   4.459  12.529 -0.2430 -1.0094 -0.0370
 6822TIP3    H141881   1.063   4.476  12.454 -0.6955 -1.1009 -0.4028
 6822TIP3    H241882   0.998   4.544  12.573 -1.3724 -0.5548 -1.0707
 6823TIP3   OH241883   0.246   0.980  15.177 -0.7273 -0.3991 -0.2334
 6823TIP3    H141884   0.211   1.006  15.262 -0.7413  0.2665 -0.4347
 6823TIP3    H241885   0.327   1.030  15.168 -1.8892  1.3786 -1.6039
 6824TIP3   OH241886   0.769   0.948   0.290  0.1238 -0.1532  0.7771
 6824TIP3    H141887   0.724   0.916   0.212 -0.6001  1.0577  0.6665
 6824TIP3    H241888   0.833   1.012   0.256 -0.9404  1.1959  1.2105
 6825TIP3   OH241889   0.185   0.079   5.248  0.0659  0.5639  0.2982
 6825TIP3    H141890   0.158   0.171   5.238  0.4444  0.9252  2.2698
 6825TIP3    H241891   0.278   0.083   5.269  0.2841 -0.3363 -0.4369
 6826TIP3   OH241892   4.413   2.913  11.906  0.3736 -0.0673  0.1105
 6826TIP3    H141893   4.386   2.862  11.983 -1.4677 -0.4961 -0.7633
 6826TIP3    H241894   4.417   2.849  11.835  0.1375  0.6304 -0.5479
 6827TIP3   OH241895   3.316   2.088   5.942 -0.0973 -0.2785  0.3681
 6827TIP3    H141896   3.276   2.016   5.893  1.2826 -2.1772  1.8636
 6827TIP3    H241897   3.392   2.049   5.985  0.8384  2.1466  1.1075
 6828TIP3   OH241898   4.508   6.611   5.882 -0.1707  0.6480 -0.0596
 6828TIP3    H141899   4.468   6.669   5.947 -1.7243 -1.1912  0.7130
 6828TIP3    H241900   4.489   6.523   5.913  1.1346 -0.3148 -1.7880
 6829TIP3   OH241901   0.892   6.498  14.463 -0.1750 -0.0252  0.2215
 6829TIP3    H141902   0.892   6.521  14.556 -0.0154 -0.7110  0.4008
 6829TIP3    H241903   0.850   6.411  14.460 -0.3307  0.0636 -0.3658
 6830TIP3   OH241904   3.030   5.561  17.145 -0.0673 -0.1341 -0.3766
 6830TIP3    H141905   3.085   5.504  17.091 -1.1330 -0.2925 -1.3209
 6830TIP3    H241906   3.089   5.592  17.214  1.1094 -0.6064 -1.1303
 6831TIP3   OH241907   6.449   1.747   2.705 -0.0110  0.2679 -1.0897
 6831TIP3    H141908   6.504   1.669   2.709 -0.2739  0.1295  0.2811
 6831TIP3    H241909   6.361   1.715   2.726 -0.0646  0.9674 -0.2123
 6832TIP3   OH241910   5.080   5.089   0.084  0.5883  0.2947 -0.0286
 6832TIP3    H141911   5.042   5.166   0.126 -2.0304 -0.5498 -0.6296
 6832TIP3    H241912   5.145   5.125   0.023  1.0801  1.8295  1.3304
 6833TIP3   OH241913   0.099   3.058  12.828  0.2511 -0.0290 -0.2310
 6833TIP3    H141914   0.178   3.027  12.872 -0.9430 -1.2776  1.1655
 6833TIP3    H241915   0.118   3.149  12.804  2.2957 -0.4749 -0.4854
 6834TIP3   OH241916   2.420   3.552   3.211 -0.0967 -0.0884 -0.3854
 6834TIP3    H141917   2.396   3.488   3.277 -0.0365  0.8619  0.5821
 6834TIP3    H241918   2.337   3.590   3.183 -0.3143 -1.7484 -2.2339
 6835TIP3   OH241919   4.525   5.626  11.383  0.1411 -0.0729 -0.1192
 6835TIP3    H141920   4.432   5.648  11.382  0.5332  1.7126  0.3624
 6835TIP3    H241921   4.561   5.666  11.305  0.7303  0.3117  0.3409
 6836TIP3   OH241922   6.280   0.348  16.389  0.3072 -0.2607 -0.1936
 6836TIP3    H141923   6.240   0.280  16.443 -0.8871 -0.2332 -0.9946
 6836TIP3    H241924   6.279   0.427  16.443 -3.1561  0.4090 -0.9767
 6837TIP3   OH241925   3.135   4.634  10.615 -0.0558 -0.7252 -0.3583
 6837TIP3    H141926   3.057   4.579  10.609  0.0540 -1.4041  2.7991
 6837TIP3    H241927   3.205   4.579  10.580 -0.7788 -0.3887 -2.4985
 6838TIP3   OH241928   5.198   4.635   4.828  0.3988 -0.9235  0.3463
 6838TIP3    H141929   5.140   4.602   4.759  0.0392  2.1689 -0.9791
 6838TIP3    H241930   5.280   4.588   4.815  0.6551  0.1983 -2.9072
 6839TIP3   OH241931   2.135   1.392  13.328 -0.3266 -0.0395 -0.4244
 6839TIP3    H141932   2.070   1.376  13.397  0.4970 -2.1622 -0.0624
 6839TIP3    H241933   2.214   1.419  13.376 -0.5624  1.3962 -0.7875
 6840TIP3   OH241934   2.776   0.817   4.106 -0.2142  0.6020  0.5776
 6840TIP3    H141935   2.866   0.826   4.137  0.9816 -0.7923 -2.1063
 6840TIP3    H241936   2.745   0.906   4.093  2.2806  1.2170 -2.1313
 6841TIP3   OH241937   5.660   1.876   3.001  0.4478 -0.1161 -0.3745
 6841TIP3    H141938   5.672   1.795   3.050  2.0087  1.0113  1.2310
 6841TIP3    H241939   5.729   1.873   2.934  0.3406 -0.2080 -0.4827
 6842TIP3   OH241940   4.180   0.491  13.955  0.2177  0.0510  0.4125
 6842TIP3    H141941   4.098   0.443  13.943  0.0646  0.1121  1.1357
 6842TIP3    H241942   4.243   0.424  13.982  0.3809  0.0232 -0.0258
 6843TIP3   OH241943   0.756   1.568   2.718 -0.0868 -0.0864 -0.1744
 6843TIP3    H141944   0.762   1.629   2.791 -0.0557  1.0065 -1.0737
 6843TIP3    H241945   0.688   1.605   2.661  0.3196 -0.5968 -1.0112
 6844TIP3   OH241946   4.250   2.801   2.087 -0.0497 -0.0278  0.4199
 6844TIP3    H141947   4.225   2.716   2.052 -0.5985 -0.1622  1.1193
 6844TIP3    H241948   4.236   2.794   2.182  0.1126  0.7618  0.5145
 6845TIP3   OH241949   1.715   5.009   1.871 -0.0340 -0.1879  0.3141
 6845TIP3    H141950   1.774   5.079   1.840  0.0505 -0.2381  0.3627
 6845TIP3    H241951   1.661   4.989   1.794 -1.0308  0.9214  0.6894
 6846TIP3   OH241952   3.278   3.824   3.893  0.7610 -0.1109 -0.3937
 6846TIP3    H141953   3.287   3.909   3.936  0.7267 -0.0046 -0.5957
 6846TIP3    H241954   3.344   3.768   3.935  0.4523 -0.1256  0.0809
 6847TIP3   OH241955   2.760   1.212  11.593 -0.1107 -0.6926  0.0382
 6847TIP3    H141956   2.710   1.134  11.617 -0.8626  0.0191  0.9015
 6847TIP3    H241957   2.693   1.279  11.578  0.5262 -0.1753 -0.5439
 6848TIP3   OH241958   4.961   1.576   2.254 -0.1761  0.0107  0.0059
 6848TIP3    H141959   4.891   1.526   2.213 -0.4507  0.5396 -0.1857
 6848TIP3    H241960   4.916   1.649   2.297  0.3669  1.1881 -1.3589
 6849TIP3   OH241961   5.673   3.586   2.795  0.4110 -0.2580 -0.0911
 6849TIP3    H141962   5.671   3.494   2.769  1.5756 -0.4227  0.3187
 6849TIP3    H241963   5.631   3.588   2.881  0.3271 -0.3996 -0.1292
 6850TIP3   OH241964   1.011   2.679   5.761 -0.3910 -0.3073 -0.7003
 6850TIP3    H141965   0.922   2.706   5.736  0.3706  2.0801 -1.1939
 6850TIP3    H241966   1.055   2.664   5.677 -0.6871 -3.0721 -0.4414
 6851TIP3   OH241967   1.336   4.157  16.222 -0.1838 -0.2616 -0.1613
 6851TIP3    H141968   1.409   4.164  16.161 -1.4621 -1.1926 -1.9228
 6851TIP3    H241969   1.258   4.160  16.166 -1.4829  0.0220  1.5660
 6852TIP3   OH241970   5.956   4.021  11.963  0.0335 -0.3382 -0.1086
 6852TIP3    H141971   5.998   4.096  12.006 -1.5217 -0.1591  1.1903
 6852TIP3    H241972   6.004   4.011  11.881 -0.1500  2.5429 -0.6748
 6853TIP3   OH241973   1.342   4.912  15.234 -0.2482  0.4306  0.3947
 6853TIP3    H141974   1.264   4.912  15.179 -0.1404 -0.0177  0.2319
 6853TIP3    H241975   1.415   4.921  15.173 -0.1532  0.4200  0.5054
 6854TIP3   OH241976   0.255   5.287  16.342  0.4602  0.2503 -0.2964
 6854TIP3    H141977   0.178   5.302  16.287 -0.2566 -1.2299  0.2606
 6854TIP3    H241978   0.306   5.221  16.294  0.2516 -0.4251  0.3873
 6855TIP3   OH241979   1.616   5.908   4.209 -0.0187 -0.1269  0.3294
 6855TIP3    H141980   1.530   5.919   4.249 -0.0070  1.7386 -0.0656
 6855TIP3    H241981   1.616   5.819   4.176 -1.9607 -0.0439 -0.0190
 6856TIP3   OH241982   2.398   4.355  14.201 -0.3811  0.5116  0.0713
 6856TIP3    H141983   2.399   4.261  14.219  0.8618 -0.6276 -4.6216
 6856TIP3    H241984   2.308   4.372  14.173 -0.9609  1.1403  2.1292
 6857TIP3   OH241985   5.129   2.900  15.030  0.7475  0.0178  0.4577
 6857TIP3    H141986   5.184   2.845  14.974 -0.9181 -1.5481  0.2781
 6857TIP3    H241987   5.152   2.990  15.005  1.8320 -0.6063 -0.9368
 6858TIP3   OH241988   1.675   4.309   0.056  0.1416 -0.1932 -0.0022
 6858TIP3    H141989   1.722   4.382   0.097  0.9474  0.1928 -1.5428
 6858TIP3    H241990   1.598   4.350   0.016 -0.4647 -0.5144  0.8160
 6859TIP3   OH241991   6.781   6.717  17.185  0.8391  0.1311 -0.1481
 6859TIP3    H141992   6.826   6.691  17.105  1.5790  1.3453 -0.1328
 6859TIP3    H241993   6.776   6.636  17.237  1.3819 -0.4042 -0.9162
 6860TIP3   OH241994   5.124   5.946  12.106 -0.0100  0.7561 -1.2360
 6860TIP3    H141995   5.131   5.854  12.081  2.5648  0.2184  0.9404
 6860TIP3    H241996   5.171   5.994  12.037  0.8690  0.1082 -1.1129
 6861TIP3   OH241997   1.782   1.417   2.157 -0.5230 -0.0568  0.2055
 6861TIP3    H141998   1.759   1.333   2.116 -0.9560 -0.0953  0.5122
 6861TIP3    H241999   1.860   1.398   2.208 -1.4038 -0.6302  1.3884
 6862TIP3   OH242000   4.687   2.515   0.083 -0.5785 -0.0571 -0.3145
 6862TIP3    H142001   4.713   2.460   0.009  1.0490  1.0205 -0.6008
 6862TIP3    H242002   4.721   2.470   0.160 -0.7200 -0.2926 -0.3898
 6863TIP3   OH242003   0.900   5.093  12.678 -0.1890 -0.0412  0.8759
 6863TIP3    H142004   0.955   5.025  12.715  1.6895 -0.3740 -2.1173
 6863TIP3    H242005   0.818   5.049  12.655 -0.1904 -0.5154  1.7701
 6864TIP3   OH242006   5.975   0.521   0.541  0.0406  0.1098 -0.6856
 6864TIP3    H142007   5.991   0.508   0.635  1.0611  0.8751 -0.7215
 6864TIP3    H242008   5.897   0.471   0.522  1.8204 -3.1038 -0.1926
 6865TIP3   OH242009   1.868   5.861   5.376 -0.4769 -0.3417 -0.2923
 6865TIP3    H142010   1.784   5.851   5.333  0.1825  1.3789 -2.1320
 6865TIP3    H242011   1.911   5.933   5.329  1.5803 -0.4474  1.2725
 6866TIP3   OH242012   0.263   3.380  15.271  0.0656  0.3368 -0.3324
 6866TIP3    H142013   0.327   3.370  15.342  1.1456  0.9121 -1.1924
 6866TIP3    H242014   0.247   3.474  15.267 -1.0954  0.1728  0.0705
 6867TIP3   OH242015   5.682   2.948  16.389 -0.7647 -0.2633 -0.4788
 6867TIP3    H142016   5.661   3.002  16.312  1.0904  0.4861 -0.5109
 6867TIP3    H242017   5.679   2.858  16.357 -1.9938 -0.0897 -0.9081
 6868TIP3   OH242018   2.781   6.595  16.685 -0.3613 -0.5594 -0.5720
 6868TIP3    H142019   2.863   6.636  16.655 -0.7307  0.3274 -0.3913
 6868TIP3    H242020   2.774   6.622  16.777  0.8160 -3.3324  0.4235
 6869TIP3   OH242021   1.884   1.216   3.436  0.2078 -0.3942  0.2735
 6869TIP3    H142022   1.948   1.267   3.387 -0.0509 -1.4467 -1.2457
 6869TIP3    H242023   1.875   1.262   3.520  0.3146  1.7805 -0.8250
 6870TIP3   OH242024   3.877   4.325  16.826  0.0058 -0.7869 -0.1169
 6870TIP3    H142025   3.897   4.300  16.916 -1.9747  0.2629  0.6954
 6870TIP3    H242026   3.822   4.254  16.792 -0.2980 -0.5995 -0.0289
 6871TIP3   OH242027   5.059   2.598  16.858  0.6421 -0.2498  0.0573
 6871TIP3    H142028   5.047   2.503  16.859 -1.6957 -0.0062  0.0053
 6871TIP3    H242029   5.119   2.614  16.785  1.0760 -1.6571  0.0755
 6872TIP3   OH242030   5.000   0.509   5.283  0.5149 -0.4669 -0.2333
 6872TIP3    H142031   5.092   0.492   5.264  0.2621 -1.3000 -0.7524
 6872TIP3    H242032   4.973   0.440   5.343  0.3350  0.0271  0.2661
 6873TIP3   OH242033   6.201   2.228  12.623 -0.1315 -0.0277 -0.4161
 6873TIP3    H142034   6.218   2.320  12.601 -0.1971 -0.2756 -1.5123
 6873TIP3    H242035   6.173   2.188  12.541  0.7569 -1.2384 -0.1481
 6874TIP3   OH242036   2.800   0.266  16.325  0.4398  0.2679 -0.6321
 6874TIP3    H142037   2.864   0.229  16.264  1.0468 -1.5073  0.9598
 6874TIP3    H242038   2.766   0.190  16.373 -1.6082  1.3555 -0.2310
 6875TIP3   OH242039   3.681   0.361  11.199  0.1505 -0.3745 -0.0864
 6875TIP3    H142040   3.740   0.432  11.174  1.3008 -0.8308  1.1791
 6875TIP3    H242041   3.636   0.394  11.278 -0.3585 -0.5197 -0.3119
 6876TIP3   OH242042   3.046   5.549  12.759 -0.5444  0.1533  0.0291
 6876TIP3    H142043   3.022   5.615  12.824 -0.1952 -1.5646  1.9845
 6876TIP3    H242044   3.089   5.599  12.690 -0.5831  2.0067  1.2714
 6877TIP3   OH242045   6.526   1.212   3.830 -0.4503 -0.5835 -0.0473
 6877TIP3    H142046   6.579   1.238   3.755 -2.9992 -1.4323 -2.2700
 6877TIP3    H242047   6.519   1.292   3.883 -0.9581  0.8859 -2.2281
 6878TIP3   OH242048   5.767   4.001   4.470  0.0276  0.5916  0.1144
 6878TIP3    H142049   5.694   4.033   4.417 -0.0228 -0.4096 -0.4495
 6878TIP3    H242050   5.739   4.015   4.560  0.0226  2.1323 -0.0909
 6879TIP3   OH242051   4.732   0.010  17.064 -0.0343 -0.3274 -0.3241
 6879TIP3    H142052   4.773   0.094  17.045 -0.1608 -0.5789 -1.8362
 6879TIP3    H242053   4.735   0.002  17.159  0.3341  1.2025 -0.1908
 6880TIP3   OH242054   2.187   6.189  14.139 -0.3024  0.5417 -0.4036
 6880TIP3    H142055   2.276   6.211  14.113 -0.2248  1.1708  0.3520
 6880TIP3    H242056   2.181   6.217  14.231 -1.4260  0.9730 -0.5891
 6881TIP3   OH242057   3.081   3.975  14.721 -0.6722  0.3299 -0.2271
 6881TIP3    H142058   3.090   3.948  14.812 -2.4399  0.0089 -0.1134
 6881TIP3    H242059   3.058   4.068  14.725 -1.3679  0.1694 -0.2946
 6882TIP3   OH242060   3.878   4.874  15.380  0.2054 -0.1576 -0.1774
 6882TIP3    H142061   3.835   4.959  15.372  2.8764  1.1900 -1.7803
 6882TIP3    H242062   3.947   4.888  15.444 -1.2886 -2.1436  2.0452
 6883TIP3   OH242063   0.473   0.147   6.273 -0.5384  0.1198 -0.0812
 6883TIP3    H142064   0.415   0.200   6.219 -0.3177  0.5658  0.1174
 6883TIP3    H242065   0.540   0.208   6.304 -0.3817 -0.2353  0.2921
 6884TIP3   OH242066   6.131   0.068  12.029 -0.2324 -0.1310  0.1683
 6884TIP3    H142067   6.181   0.015  11.967 -0.4854  0.2978 -0.4094
 6884TIP3    H242068   6.190   0.140  12.052 -1.4010  1.8606 -2.5105
 6885TIP3   OH242069   1.727   0.764  16.428 -0.0705 -0.1258  0.3465
 6885TIP3    H142070   1.810   0.801  16.397 -0.4758  0.3345 -0.2357
 6885TIP3    H242071   1.752   0.699  16.493  0.6978  0.9121  1.1282
 6886TIP3   OH242072   5.095   3.919   3.265  0.0898 -0.1152  0.1143
 6886TIP3    H142073   5.081   3.876   3.349 -0.1896  0.3280  0.2997
 6886TIP3    H242074   5.181   3.889   3.237  0.5782  0.4196  0.9869
 6887TIP3   OH242075   0.263   2.745   5.239 -0.2174  0.0911 -0.0816
 6887TIP3    H142076   0.279   2.837   5.257 -0.3412  0.4536 -1.6976
 6887TIP3    H242077   0.169   2.738   5.225 -0.3621 -0.4903  1.0609
 6888TIP3   OH242078   1.757   1.427  11.708  0.4884 -0.0829  0.0138
 6888TIP3    H142079   1.827   1.403  11.647  1.3891 -1.6216  1.5460
 6888TIP3    H242080   1.727   1.343  11.743 -1.9554  0.5567 -0.3515
 6889TIP3   OH242081   1.520   4.381  14.002  0.1710 -0.0071  0.0908
 6889TIP3    H142082   1.561   4.455  13.957  0.1438 -0.9028 -1.4889
 6889TIP3    H242083   1.539   4.396  14.095  2.6112  0.5013 -0.4109
 6890TIP3   OH242084   4.651   4.821  11.922 -0.1224 -0.3916 -0.4725
 6890TIP3    H142085   4.653   4.728  11.941  0.8324 -0.4185 -0.6554
 6890TIP3    H242086   4.696   4.830  11.838  0.2020  0.2754 -0.2414
 6891TIP3   OH242087   3.185   5.524   2.963 -0.4083 -0.0364  0.2120
 6891TIP3    H142088   3.108   5.529   2.906  0.2423  0.2274 -0.6609
 6891TIP3    H242089   3.231   5.607   2.949 -0.1029 -0.0737  0.9377
 6892TIP3   OH242090   1.132   4.173   0.561 -0.1041 -0.0909  0.3292
 6892TIP3    H142091   1.222   4.153   0.537  0.1116  1.4024 -0.1651
 6892TIP3    H242092   1.114   4.259   0.523 -1.5720 -0.1237  0.8518
 6893TIP3   OH242093   5.325   2.862  15.748  0.0723 -0.0828  0.1064
 6893TIP3    H142094   5.384   2.937  15.743 -0.2541  0.3659  2.0452
 6893TIP3    H242095   5.239   2.897  15.726 -0.0126  0.0427  0.6162
 6894TIP3   OH242096   2.628   2.556  11.105 -0.5795  0.0791  0.6300
 6894TIP3    H142097   2.541   2.593  11.112  0.0967  1.9242 -0.1696
 6894TIP3    H242098   2.688   2.631  11.114  0.8613 -0.8461 -0.7048
 6895TIP3   OH242099   1.216   5.554   3.073 -0.8265  0.5077 -0.0499
 6895TIP3    H142100   1.267   5.515   3.002 -1.3349 -0.3337  0.0282
 6895TIP3    H242101   1.205   5.646   3.048  3.1798  1.5483  1.2794
 6896TIP3   OH242102   2.855   4.646   3.907 -0.1920  0.9892 -0.3201
 6896TIP3    H142103   2.938   4.612   3.941 -0.8564 -1.3570 -0.8906
 6896TIP3    H242104   2.871   4.662   3.814 -1.1466 -2.5883 -1.2353
 6897TIP3   OH242105   6.700   1.220  14.473 -0.3688  0.4357  0.1538
 6897TIP3    H142106   6.733   1.280  14.539  1.8772 -2.7002  2.1533
 6897TIP3    H242107   6.733   1.255  14.390  2.7496  0.8478  1.4580
 6898TIP3   OH242108   2.217   2.299  13.472 -0.1328  0.4860  0.0478
 6898TIP3    H142109   2.144   2.259  13.424  1.0957 -0.4587 -1.1325
 6898TIP3    H242110   2.220   2.253  13.555 -0.9143  0.5864  0.1391
 6899TIP3   OH242111   4.954   2.733  11.848  0.2166 -0.1618  0.0284
 6899TIP3    H142112   4.989   2.807  11.798 -0.9240  1.1136  1.0266
 6899TIP3    H242113   4.944   2.767  11.937 -1.9101 -0.9492  0.1497
 6900TIP3   OH242114   0.723   2.255  13.022  0.1685  0.6165  0.0790
 6900TIP3    H142115   0.749   2.210  12.942 -0.0959  0.6707 -0.0351
 6900TIP3    H242116   0.630   2.237  13.032  0.4855 -0.6293  1.1610
 6901TIP3   OH242117   6.749   0.080  13.990  0.2664  0.9850 -0.3633
 6901TIP3    H142118   6.731   0.072  14.083 -0.2803  0.7072 -0.4895
 6901TIP3    H242119   6.833   0.126  13.985  1.2980 -0.7644  0.2976
 6902TIP3   OH242120   2.912   1.937  13.105  0.1367 -0.2625  0.2309
 6902TIP3    H142121   2.849   1.873  13.071 -0.2629 -0.4063  1.2173
 6902TIP3    H242122   2.868   2.021  13.097  1.5500  0.3586 -3.3837
 6903TIP3   OH242123   0.230   0.782   5.108 -0.8027 -0.4965  0.6302
 6903TIP3    H142124   0.255   0.802   5.198 -0.6941 -2.3376  1.0592
 6903TIP3    H242125   0.313   0.772   5.062 -0.8615  0.8344  0.2146
 6904TIP3   OH242126   0.271   3.630   1.094 -0.7992  0.0141  0.0516
 6904TIP3    H142127   0.230   3.606   1.177  0.1337 -1.7922  0.0576
 6904TIP3    H242128   0.304   3.547   1.060  1.0379  1.0816 -0.9176
 6905TIP3   OH242129   3.637   5.606  10.513  0.0992 -0.0051 -0.1776
 6905TIP3    H142130   3.716   5.583  10.463  1.0104  1.7690  0.3392
 6905TIP3    H242131   3.669   5.667  10.579 -1.6369  0.2850  0.4282
 6906TIP3   OH242132   5.807   2.369   0.761  0.2065  0.7285 -0.2114
 6906TIP3    H142133   5.822   2.455   0.802 -0.7950 -0.6565  3.4742
 6906TIP3    H242134   5.736   2.331   0.812  1.2079 -2.6566 -1.1064
 6907TIP3   OH242135   0.067   3.852  16.645  0.2839  0.3673 -0.4228
 6907TIP3    H142136   0.085   3.767  16.684  1.1958  0.3634 -0.8065
 6907TIP3    H242137   0.107   3.915  16.705 -0.0170  0.4996 -0.3579
 6908TIP3   OH242138   4.582   6.262  14.021 -0.2332  0.6699  0.4860
 6908TIP3    H142139   4.571   6.295  14.110 -1.0969  1.5311  0.0814
 6908TIP3    H242140   4.505   6.294  13.974 -0.1643 -0.3970 -0.3931
 6909TIP3   OH242141   3.546   3.343  10.822 -0.2246  0.1212  0.4762
 6909TIP3    H142142   3.627   3.340  10.771 -1.2246  1.2817 -1.3046
 6909TIP3    H242143   3.554   3.271  10.884  0.8868 -1.7249 -1.6675
 6910TIP3   OH242144   0.961   1.017   3.057  0.1089  0.4982 -0.1391
 6910TIP3    H142145   0.894   0.982   3.116  0.4418  1.6009  0.9508
 6910TIP3    H242146   1.014   1.074   3.113  0.4421  1.5958 -1.5103
 6911TIP3   OH242147   3.192   5.139  13.892 -0.3211 -0.3280  0.1186
 6911TIP3    H142148   3.105   5.145  13.852  0.7083 -0.5515 -2.3041
 6911TIP3    H242149   3.230   5.226  13.880  0.0625 -0.4355  0.5245
 6912TIP3   OH242150   5.996   1.973  15.845 -0.5967  0.2156 -0.6051
 6912TIP3    H142151   6.068   1.911  15.833 -1.4068 -0.6344 -1.2468
 6912TIP3    H242152   6.015   2.017  15.927 -0.2489 -1.2446  0.1335
 6913TIP3   OH242153   6.302   5.610  15.555 -0.3582  0.2629  0.0567
 6913TIP3    H142154   6.345   5.538  15.601 -0.5109  0.3793  0.3914
 6913TIP3    H242155   6.321   5.596  15.463 -0.0800 -0.0007  0.1557
 6914TIP3   OH242156   4.037   0.350  11.460 -0.1703 -0.1874 -0.3772
 6914TIP3    H142157   4.005   0.330  11.548  4.7568 -1.4380  1.4821
 6914TIP3    H242158   4.040   0.265  11.416 -0.1871  0.0352 -0.8157
 6915TIP3   OH242159   3.123   0.791   1.245  0.6336  0.2740 -0.3202
 6915TIP3    H142160   3.125   0.883   1.272  0.2772  1.2020 -3.1086
 6915TIP3    H242161   3.198   0.752   1.289  2.2907  2.5247 -0.9326
 6916TIP3   OH242162   4.467   5.763  16.683 -0.2036  0.6305  0.0772
 6916TIP3    H142163   4.510   5.688  16.643  1.1977  1.7074 -0.5443
 6916TIP3    H242164   4.398   5.787  16.622 -0.2155  0.2665 -0.0535
 6917TIP3   OH242165   5.516   2.074   0.639 -0.3489  0.5336 -0.1584
 6917TIP3    H142166   5.438   2.028   0.607  0.6080 -1.0256 -0.3549
 6917TIP3    H242167   5.482   2.154   0.679 -1.8760  0.8663 -1.9823
 6918TIP3   OH242168   2.602   1.592   2.302  0.3626 -0.1833  0.4248
 6918TIP3    H142169   2.557   1.677   2.298  0.5647  0.0439  2.1017
 6918TIP3    H242170   2.643   1.592   2.388  1.0100 -1.6815  0.1325
 6919TIP3   OH242171   2.405   5.144   0.212 -0.0542  0.0169  0.3613
 6919TIP3    H142172   2.463   5.200   0.161 -0.8774 -2.0126 -3.1606
 6919TIP3    H242173   2.318   5.164   0.179 -0.8935 -0.0697  2.4105
 6920TIP3   OH242174   2.717   5.335  13.082  0.0176  0.0682  0.3095
 6920TIP3    H142175   2.642   5.389  13.056  1.0029  2.0350  1.2938
 6920TIP3    H242176   2.683   5.282  13.155 -0.3000  1.3998  1.1739
 6921TIP3   OH242177   3.108   1.125   5.388 -0.0755  0.1280  0.5019
 6921TIP3    H142178   3.156   1.118   5.306  0.7791  0.0758  0.9914
 6921TIP3    H242179   3.029   1.174   5.366 -0.1477 -0.3993 -0.4682
 6922TIP3   OH242180   3.742   6.367  16.056 -0.0058 -0.3335  0.0456
 6922TIP3    H142181   3.724   6.416  15.976 -2.1496  0.8643  1.1623
 6922TIP3    H242182   3.790   6.429  16.111 -0.4978 -0.3546  0.5063
 6923TIP3   OH242183   1.627   6.366  10.656  0.0205 -0.0573  0.7091
 6923TIP3    H142184   1.661   6.305  10.591  0.8526  0.0516  1.0349
 6923TIP3    H242185   1.562   6.316  10.705  0.2396 -0.4932  0.5556
 6924TIP3   OH242186   1.646   3.242  15.106 -0.3426 -0.1295  0.0386
 6924TIP3    H142187   1.606   3.209  15.186 -0.7647 -0.1865 -0.1945
 6924TIP3    H242188   1.732   3.274  15.134 -0.5458 -0.0108  0.5400
 6925TIP3   OH242189   2.367   0.469  11.054  0.3596  0.3878 -0.0590
 6925TIP3    H142190   2.418   0.510  10.985 -0.1794 -0.6543 -1.1179
 6925TIP3    H242191   2.431   0.425  11.109  0.7588  0.7644 -0.2227
 6926TIP3   OH242192   1.409   0.032  11.339  0.0703  0.5795 -0.0129
 6926TIP3    H142193   1.397   0.112  11.390  0.4665  1.1473 -0.7943
 6926TIP3    H242194   1.493  -0.003  11.369  1.1220  1.7833 -1.3711
 6927TIP3   OH242195   0.777   2.023   5.597 -0.0791  0.1331  0.3830
 6927TIP3    H142196   0.821   2.054   5.676  1.1168  1.0835 -0.6109
 6927TIP3    H242197   0.694   2.069   5.596  1.0506  2.3070 -0.2920
 6928TIP3   OH242198   3.562   2.716   2.145 -0.3806 -0.1225 -0.3715
 6928TIP3    H142199   3.613   2.639   2.169 -1.1479 -0.7839 -0.7977
 6928TIP3    H242200   3.610   2.789   2.183  0.9880 -0.6960 -0.9409
 6929TIP3   OH242201   1.668   6.116   4.530  0.5820  0.6945 -0.7033
 6929TIP3    H142202   1.612   6.039   4.521  0.7642  0.7247 -2.2773
 6929TIP3    H242203   1.609   6.190   4.520  0.5349  0.7653  0.0340
 6930TIP3   OH242204   4.457   0.299   1.627 -0.3744  0.1077  0.1652
 6930TIP3    H142205   4.388   0.348   1.582 -0.3974  0.9501  1.0841
 6930TIP3    H242206   4.537   0.345   1.603 -0.0036 -1.3147 -1.5073
 6931TIP3   OH242207   5.555   2.963   2.674  0.1503 -0.1722  0.5390
 6931TIP3    H142208   5.527   3.018   2.601  2.9611 -0.2184 -0.7194
 6931TIP3    H242209   5.483   2.903   2.688 -1.0683  0.7916 -1.2223
 6932TIP3   OH242210   4.045   3.523   5.000  0.1216 -0.3735 -0.3417
 6932TIP3    H142211   4.026   3.496   4.910  0.3775 -0.0351 -0.4986
 6932TIP3    H242212   3.980   3.590   5.020 -0.5711 -1.1399  0.0809
 6933TIP3   OH242213   2.717   0.912   2.036 -0.1066 -0.0029  0.2567
 6933TIP3    H142214   2.757   0.877   2.115 -0.3073  0.4868  0.5750
 6933TIP3    H242215   2.636   0.862   2.026  0.0069 -0.1883  0.2559
 6934TIP3   OH242216   4.521   4.448   3.763 -0.4276 -0.2077  0.3328
 6934TIP3    H142217   4.603   4.470   3.808 -0.2248  2.3801 -1.1656
 6934TIP3    H242218   4.546   4.439   3.671 -1.8761  1.1917 -0.2402
 6935TIP3   OH242219   0.148   1.263   2.763  0.8097  0.1366  0.5297
 6935TIP3    H142220   0.098   1.292   2.687  2.7451  2.7006  0.1002
 6935TIP3    H242221   0.140   1.168   2.763 -0.7165  0.1960 -1.8027
 6936TIP3   OH242222   4.786   3.635  13.497  0.3413  0.0192 -0.4369
 6936TIP3    H142223   4.746   3.716  13.527  2.6481  0.7211  1.0341
 6936TIP3    H242224   4.712   3.579  13.472 -1.3485  2.2310 -0.6985
 6937TIP3   OH242225   2.421   0.034  11.937  0.4433  0.4939  0.2877
 6937TIP3    H142226   2.485   0.094  11.899  2.0946 -0.7624  1.0050
 6937TIP3    H242227   2.355   0.092  11.976  2.3894  1.9248  1.6733
 6938TIP3   OH242228   0.716   3.499  15.753  0.3225 -0.1138 -0.0747
 6938TIP3    H142229   0.746   3.410  15.737  0.2308  0.0728 -1.3182
 6938TIP3    H242230   0.760   3.525  15.834  2.2030 -0.4327 -0.9579
 6939TIP3   OH242231   5.321   1.900   4.268 -0.0232  0.0239 -0.2319
 6939TIP3    H142232   5.290   1.819   4.309 -0.5325  0.2916 -0.0692
 6939TIP3    H242233   5.264   1.968   4.305 -0.7089  0.2352 -1.6323
 6940TIP3   OH242234   2.633   1.296   1.570  0.2184 -0.0385  0.0659
 6940TIP3    H142235   2.614   1.390   1.579 -1.7840 -0.5701  2.8984
 6940TIP3    H242236   2.603   1.274   1.482 -0.1995  1.7989 -0.3062
 6941TIP3   OH242237   1.032   3.424  16.759 -0.6184  0.3034  0.5042
 6941TIP3    H142238   1.084   3.423  16.839 -0.1618  0.2950  0.2108
 6941TIP3    H242239   1.081   3.370  16.698 -0.8230  0.5361  0.1313
 6942TIP3   OH242240   2.806   5.650   6.415 -0.3471  0.5289  0.1737
 6942TIP3    H142241   2.750   5.726   6.434  1.4840  1.7083  1.1178
 6942TIP3    H242242   2.855   5.676   6.337  0.6707  0.5447  0.8110
 6943TIP3   OH242243   4.816   2.354  15.465 -0.2730  0.2148  0.3258
 6943TIP3    H142244   4.777   2.435  15.496 -0.6332 -0.1297  0.7867
 6943TIP3    H242245   4.753   2.320  15.402  0.2583  0.6975 -0.4841
 6944TIP3   OH242246   2.940   5.874  14.056  0.1480 -0.0687  0.1635
 6944TIP3    H142247   2.983   5.959  14.045  1.9967 -0.7855  1.5189
 6944TIP3    H242248   2.992   5.813  14.004  0.0147 -0.7225  0.7823
 6945TIP3   OH242249   0.221   4.774   3.937 -0.2702 -0.2769 -0.0416
 6945TIP3    H142250   0.255   4.837   3.873  0.9125 -0.6234  0.2120
 6945TIP3    H242251   0.240   4.814   4.022 -0.4394 -0.5091  0.1059
 6946TIP3   OH242252   0.068   4.624  14.703  0.3832 -0.1439  0.1060
 6946TIP3    H142253   0.058   4.686  14.774  3.4650 -0.6313  1.1442
 6946TIP3    H242254   0.014   4.549  14.728  1.2737 -0.2355  1.9111
 6947TIP3   OH242255   0.446   2.097  12.152 -0.0160 -0.1301 -0.1712
 6947TIP3    H142256   0.531   2.138  12.138  0.6959 -1.4263  0.1470
 6947TIP3    H242257   0.408   2.143  12.227  0.4355  0.3934 -0.2593
 6948TIP3   OH242258   2.462   5.705  13.186 -0.7853 -0.3350  1.0324
 6948TIP3    H142259   2.472   5.616  13.218  1.1479 -0.3874  0.4167
 6948TIP3    H242260   2.506   5.705  13.101 -1.1551  1.0886  0.8211
 6949TIP3   OH242261   1.585   6.575  11.341 -0.5629  0.3777  0.0430
 6949TIP3    H142262   1.646   6.634  11.295  1.3081 -1.3010  0.2396
 6949TIP3    H242263   1.577   6.499  11.283 -0.3023 -0.5950  1.2562
 6950TIP3   OH242264   4.200   1.240  13.619  0.3474 -0.7345  0.1489
 6950TIP3    H142265   4.205   1.234  13.523 -1.3150  0.8946 -0.0911
 6950TIP3    H242266   4.263   1.308  13.642 -1.5640  1.2379 -0.1829
 6951TIP3   OH242267   0.168   0.998   2.716 -0.2805 -0.4521 -0.2909
 6951TIP3    H142268   0.120   0.935   2.771 -0.9872  0.5131  0.2301
 6951TIP3    H242269   0.244   1.022   2.768 -2.3451  2.5855  1.6511
 6952TIP3   OH242270   3.502   6.395  16.586  0.2061 -0.5649 -0.2692
 6952TIP3    H142271   3.560   6.349  16.646  1.0768  0.5057 -0.2483
 6952TIP3    H242272   3.471   6.471  16.635 -1.1531 -1.0475 -0.3210
 6953TIP3   OH242273   6.360   2.777   5.573  0.3451  0.1165  0.3195
 6953TIP3    H142274   6.418   2.729   5.632 -0.3667 -1.5370 -0.2735
 6953TIP3    H242275   6.277   2.730   5.577  0.0735  0.3765 -1.4663
 6954TIP3   OH242276   4.908   5.137  13.614 -0.0733 -0.2950  0.5370
 6954TIP3    H142277   4.908   5.212  13.554 -2.7699 -0.5423  0.1172
 6954TIP3    H242278   4.841   5.159  13.679 -0.2211 -1.9412  0.9719
 6955TIP3   OH242279   0.233   0.319   3.972 -0.3302  0.2174 -0.6440
 6955TIP3    H142280   0.307   0.380   3.974  1.4001 -1.7528  1.9173
 6955TIP3    H242281   0.162   0.366   4.016 -0.0066  1.3999 -1.3255
 6956TIP3   OH242282   1.535   0.689  16.108  0.8721 -0.3286 -0.7237
 6956TIP3    H142283   1.498   0.671  16.022  1.7226  0.8443 -1.3696
 6956TIP3    H242284   1.514   0.612  16.160 -3.3852  0.5896 -0.6913
 6957TIP3   OH242285   4.773   0.605  17.090 -0.0673  0.7665  0.0793
 6957TIP3    H142286   4.780   0.578  16.999  1.2644 -2.7206  1.0652
 6957TIP3    H242287   4.751   0.698  17.086 -1.3298  0.4619 -3.7494
 6958TIP3   OH242288   5.287   4.798  13.049  0.1500  0.0214  0.4914
 6958TIP3    H142289   5.358   4.779  12.988 -0.2512 -1.1769  0.3818
 6958TIP3    H242290   5.207   4.793  12.996 -0.1009  0.4011  0.8191
 6959TIP3   OH242291   5.656   4.969  12.536 -0.3156 -0.7459  0.6605
 6959TIP3    H142292   5.575   4.940  12.494 -0.3636  1.1919 -0.7294
 6959TIP3    H242293   5.627   5.030  12.605 -0.1098 -1.8929  1.7953
 6960TIP3   OH242294   3.855   3.255  13.964 -0.0195  0.5800 -0.3947
 6960TIP3    H142295   3.874   3.244  13.871 -1.0877  0.6919 -0.6465
 6960TIP3    H242296   3.889   3.175  14.005  0.1292  0.3595 -0.9356
 6961TIP3   OH242297   4.891   4.576  15.774 -0.4354  0.6344  0.5335
 6961TIP3    H142298   4.916   4.667  15.794  1.8711  0.3041 -0.4998
 6961TIP3    H242299   4.903   4.569  15.680 -0.7249 -0.7186  0.5841
 6962TIP3   OH242300   5.639   3.511  17.060  0.3298 -0.5680  0.2177
 6962TIP3    H142301   5.676   3.562  17.132  0.4699  0.9385 -0.8573
 6962TIP3    H242302   5.705   3.517  16.990 -1.9469  2.7694 -2.0142
 6963TIP3   OH242303   3.522   5.025  13.646  0.2049  0.0046 -0.4916
 6963TIP3    H142304   3.431   4.992  13.642 -0.1673  0.9950 -0.3540
 6963TIP3    H242305   3.552   5.002  13.734 -0.1225  0.2059 -0.3251
 6964TIP3   OH242306   0.388   4.749  11.322 -0.3247 -0.0959  0.1118
 6964TIP3    H142307   0.417   4.791  11.403  1.0027  0.7233 -0.7531
 6964TIP3    H242308   0.362   4.661  11.349 -1.1217  0.5569  1.6154
 6965TIP3   OH242309   4.002   5.809  12.038 -0.1184  0.0505 -0.0525
 6965TIP3    H142310   4.084   5.802  11.990  0.4426 -2.6883  1.1118
 6965TIP3    H242311   3.946   5.742  12.000 -1.6846  1.5829 -0.5233
 6966TIP3   OH242312   3.200   4.375   6.090  0.7820 -0.1498  0.2301
 6966TIP3    H142313   3.255   4.439   6.135 -0.0485  0.0886  0.9349
 6966TIP3    H242314   3.225   4.381   5.998  1.0447  0.8536  0.3647
 6967TIP3   OH242315   1.122   2.632  12.383 -0.1069 -0.0148 -0.2577
 6967TIP3    H142316   1.089   2.622  12.472  1.2743  0.4704  0.3408
 6967TIP3    H242317   1.114   2.726  12.365  0.1044 -0.0323 -0.4474
 6968TIP3   OH242318   3.075   0.600   5.708 -0.2065 -0.4134 -0.0362
 6968TIP3    H142319   3.015   0.618   5.635 -0.0207  0.9648  0.1305
 6968TIP3    H242320   3.018   0.567   5.777 -0.5866 -0.4028 -0.3361
 6969TIP3   OH242321   0.682   4.173  14.407  0.2764  0.1990  0.5554
 6969TIP3    H142322   0.598   4.198  14.447  0.9243 -0.7954  2.7205
 6969TIP3    H242323   0.704   4.090  14.449  0.4506 -1.6527 -2.9114
 6970TIP3   OH242324   2.178   5.717   4.758  0.1385  0.5106  0.3835
 6970TIP3    H142325   2.099   5.766   4.780  0.5624  0.8368  1.1993
 6970TIP3    H242326   2.235   5.726   4.835  1.4471  1.2492 -0.6239
 6971TIP3   OH242327   6.343   3.816  10.389 -0.3428 -0.0331  0.4378
 6971TIP3    H142328   6.379   3.727  10.388 -1.7708 -0.6413  0.5353
 6971TIP3    H242329   6.250   3.803  10.406 -0.9853  1.3473 -1.7210
 6972TIP3   OH242330   5.094   5.353   0.238 -0.4829 -0.3025 -0.4028
 6972TIP3    H142331   5.118   5.369   0.330  0.0330 -1.2028 -0.3775
 6972TIP3    H242332   5.170   5.382   0.188 -0.9405  0.6212 -0.5979
 6973TIP3   OH242333   0.577   5.574   4.940 -0.2407  0.4927  0.0480
 6973TIP3    H142334   0.561   5.663   4.971  0.4658  1.2322 -1.5894
 6973TIP3    H242335   0.615   5.529   5.015 -1.4723  1.2861  1.1886
 6974TIP3   OH242336   3.255   5.012   3.821 -0.1763 -0.4085  0.5049
 6974TIP3    H142337   3.275   4.958   3.897 -0.4189 -0.7007  0.3649
 6974TIP3    H242338   3.159   5.017   3.820 -0.1283  0.8154  1.0574
 6975TIP3   OH242339   1.479   3.368   3.827 -0.2594 -0.0535  0.2592
 6975TIP3    H142340   1.442   3.281   3.841  1.1777 -0.9372 -1.1550
 6975TIP3    H242341   1.567   3.352   3.792  0.3857  1.9746  0.7948
 6976TIP3   OH242342   4.772   3.054  13.983 -0.8949  0.0674 -0.1515
 6976TIP3    H142343   4.713   3.046  13.909 -0.6107 -0.1846 -0.3529
 6976TIP3    H242344   4.770   2.968  14.025 -0.4945 -0.0150 -0.2953
 6977TIP3   OH242345   5.091   0.438   3.152 -0.7077 -0.3730  0.2294
 6977TIP3    H142346   5.124   0.525   3.129 -2.7685  0.8009  1.3909
 6977TIP3    H242347   5.075   0.443   3.247 -2.3985 -1.4314  0.0391
 6978TIP3   OH242348   5.877   2.257  12.475  0.1964  0.6239 -0.3126
 6978TIP3    H142349   5.926   2.306  12.408  0.7388 -0.0913 -0.4443
 6978TIP3    H242350   5.852   2.324  12.539 -1.2267  1.5063 -1.7320
 6979TIP3   OH242351   6.422   4.404   4.679 -0.1853  0.0540  0.6404
 6979TIP3    H142352   6.494   4.353   4.715  0.1236  0.8089  1.1241
 6979TIP3    H242353   6.344   4.370   4.722  0.0630  0.2601  1.2533
 6980TIP3   OH242354   5.249   4.906   0.587 -0.2761  0.4484 -0.4149
 6980TIP3    H142355   5.303   4.958   0.528  2.1674 -0.5766  0.7676
 6980TIP3    H242356   5.240   4.821   0.544 -1.2980  0.7318 -0.7773
 6981TIP3   OH242357   0.374   4.291  13.267 -0.0509  0.1902  0.6537
 6981TIP3    H142358   0.284   4.259  13.280 -0.1995 -0.5800 -1.7084
 6981TIP3    H242359   0.364   4.379  13.232 -0.0798 -0.6702 -1.7370
 6982TIP3   OH242360   2.174   0.817   0.519 -0.1421  0.2643  0.1128
 6982TIP3    H142361   2.211   0.775   0.597 -0.3139  0.7215  0.4476
 6982TIP3    H242362   2.140   0.745   0.467  2.0443 -0.2738 -0.6693
 6983TIP3   OH242363   6.581   5.372   1.774 -0.4046  0.0960 -0.1112
 6983TIP3    H142364   6.607   5.284   1.800  0.0262  0.2719  0.0750
 6983TIP3    H242365   6.592   5.374   1.679  0.8083  0.3214  0.0075
 6984TIP3   OH242366   1.034   5.930  13.983 -0.1776  0.2235  0.1189
 6984TIP3    H142367   1.057   5.841  13.958 -1.4285  0.0798 -0.6027
 6984TIP3    H242368   0.942   5.924  14.012  0.2786  0.9526  1.8668
 6985TIP3   OH242369   5.852   2.677   2.906  0.1822  0.9139 -0.2013
 6985TIP3    H142370   5.930   2.714   2.865  2.0333 -1.2996  1.0819
 6985TIP3    H242371   5.871   2.583   2.915 -1.1565  0.7961  3.1906
 6986TIP3   OH242372   4.148   3.339   2.444  0.4350  0.0266 -0.5319
 6986TIP3    H142373   4.106   3.272   2.390 -0.7458  0.5238 -0.2629
 6986TIP3    H242374   4.087   3.413   2.443  0.3529  0.0511  1.5006
 6987TIP3   OH242375   2.182   5.750  15.368  0.4211  0.2444 -0.0438
 6987TIP3    H142376   2.120   5.711  15.429  0.5331 -0.5199 -0.4052
 6987TIP3    H242377   2.266   5.749  15.414  0.1453  1.3928  0.4915
 6988TIP3   OH242378   4.086   4.820  11.954 -0.2037  0.0335 -0.2332
 6988TIP3    H142379   4.036   4.854  12.028  0.3221 -1.2584  0.7392
 6988TIP3    H242380   4.046   4.735  11.935 -0.3966  0.3918 -1.5200
 6989TIP3   OH242381   3.478   1.996  12.161  0.2470 -0.1268  0.3474
 6989TIP3    H142382   3.486   2.032  12.249  2.6193  1.8527 -0.5523
 6989TIP3    H242383   3.480   1.901  12.173 -0.3427  0.0724  2.4500
 6990TIP3   OH242384   6.051   2.086   6.657  0.2764  0.0532 -0.1110
 6990TIP3    H142385   6.141   2.106   6.682 -0.1147 -0.6849  2.0874
 6990TIP3    H242386   5.999   2.156   6.695 -0.4470 -1.6422  2.2446
 6991TIP3   OH242387   0.590   5.691  15.463  0.2107 -0.6186  0.0004
 6991TIP3    H142388   0.527   5.641  15.411 -0.9277 -0.2792  0.9909
 6991TIP3    H242389   0.615   5.631  15.534  0.2602 -0.4181  0.1540
 6992TIP3   OH242390   4.145   5.429   2.134 -0.1503 -0.3590  0.1104
 6992TIP3    H142391   4.064   5.429   2.082 -1.8621 -0.8055  2.6300
 6992TIP3    H242392   4.171   5.521   2.138  0.9158 -0.4282 -2.6900
 6993TIP3   OH242393   1.676   4.039   6.120  0.3301 -0.8277  0.3597
 6993TIP3    H142394   1.713   3.973   6.179  0.4710  0.5508  1.8562
 6993TIP3    H242395   1.685   4.000   6.033  0.0070 -2.9664  1.2292
 6994TIP3   OH242396   1.627   2.849   5.524  0.3394 -0.6633  0.2098
 6994TIP3    H142397   1.598   2.780   5.584 -0.3091  0.7363  1.5577
 6994TIP3    H242398   1.548   2.898   5.502  0.8291 -0.1601 -0.4908
 6995TIP3   OH242399   5.115   6.164   3.716  0.3300  0.1050 -0.4269
 6995TIP3    H142400   5.177   6.091   3.724 -0.8854 -0.9392 -0.3182
 6995TIP3    H242401   5.085   6.160   3.625 -2.9656 -2.3059  0.5791
 6996TIP3   OH242402   1.998   1.773  13.514  0.8003 -0.1118 -0.2324
 6996TIP3    H142403   1.916   1.819  13.496  0.9418  0.9733  1.6342
 6996TIP3    H242404   2.015   1.721  13.435 -0.9891  0.6508 -1.1627
 6997TIP3   OH242405   0.075   2.171   5.690 -0.0769  0.1419 -0.3248
 6997TIP3    H142406   0.029   2.170   5.606  2.2815  1.1989 -1.7280
 6997TIP3    H242407   0.158   2.215   5.672  1.0842 -0.7545  2.2805
 6998TIP3   OH242408   3.795   0.765   3.583  0.2661  0.4953  0.3813
 6998TIP3    H142409   3.722   0.704   3.589  0.0153  0.8977  2.0450
 6998TIP3    H242410   3.771   0.836   3.642  0.7296  2.0426 -1.2002
 6999TIP3   OH242411   4.381   1.879   1.023  0.1915 -0.2269 -0.1845
 6999TIP3    H142412   4.476   1.869   1.034  0.3042  1.8603  1.2629
 6999TIP3    H242413   4.371   1.910   0.933  0.8810 -0.2742 -0.2849
 7000TIP3   OH242414   0.526   6.004  14.246  0.5281 -0.1894 -0.0549
 7000TIP3    H142415   0.587   6.031  14.314  2.5517 -1.0738 -1.4138
 7000TIP3    H242416   0.469   6.079  14.232  1.7382  0.9202  0.8260
 7001TIP3   OH242417   5.030   1.882  13.730  0.3399  0.0839 -0.2099
 7001TIP3    H142418   5.051   1.952  13.793  0.7567 -0.2370  0.0186
 7001TIP3    H242419   4.936   1.891  13.714  0.0013 -0.4767  1.2775
 7002TIP3   OH242420   5.701   5.753   2.661 -0.0842 -0.2851  0.5232
 7002TIP3    H142421   5.647   5.680   2.630 -1.3277  0.5664  0.6330
 7002TIP3    H242422   5.670   5.829   2.612  1.3807  0.1403  0.2105
 7003TIP3   OH242423   6.692   6.352  15.859 -0.2594 -0.7150  0.1834
 7003TIP3    H142424   6.646   6.274  15.829 -1.3756  0.0661 -0.2258
 7003TIP3    H242425   6.735   6.387  15.781 -1.7112  0.3428 -0.2009
 7004TIP3   OH242426   2.864   3.121   3.467  0.2274 -0.4931 -0.4141
 7004TIP3    H142427   2.923   3.191   3.495 -0.9251  0.7746 -1.0671
 7004TIP3    H242428   2.875   3.053   3.533 -0.3818  1.2690  1.5795
 7005TIP3   OH242429   3.693   3.015  13.726 -0.0212  0.5465 -0.3264
 7005TIP3    H142430   3.760   2.952  13.752 -0.8170 -1.1287 -2.0678
 7005TIP3    H242431   3.629   3.012  13.796 -0.8941 -1.9722 -1.1149
 7006TIP3   OH242432   3.817   4.599  10.444  0.6110 -0.0152 -0.1339
 7006TIP3    H142433   3.827   4.539  10.370  0.8412  0.8955 -0.8658
 7006TIP3    H242434   3.796   4.683  10.404  2.3709  0.8827  0.7121
 7007TIP3   OH242435   1.027   5.043   0.577 -0.6214 -0.1063  0.1135
 7007TIP3    H142436   1.056   5.106   0.511 -1.4639  1.6756  1.3650
 7007TIP3    H242437   0.955   5.088   0.622 -1.0332 -1.8555  1.2712
 7008TIP3   OH242438   1.658   5.118  13.718 -0.3586 -0.5204 -0.8929
 7008TIP3    H142439   1.624   5.170  13.645 -1.9991 -0.4128 -0.0978
 7008TIP3    H242440   1.636   5.169  13.796  1.0547 -0.7966 -0.2792
 7009TIP3   OH242441   3.132   2.518  14.286  0.1893  1.0822 -0.2413
 7009TIP3    H142442   3.147   2.491  14.196  2.1643  2.1172 -0.2760
 7009TIP3    H242443   3.139   2.438  14.337  2.0640  0.9003 -0.7249
 7010TIP3   OH242444   4.278   2.906  12.796  0.3276  0.1424  0.2551
 7010TIP3    H142445   4.282   2.912  12.700 -0.9612  0.3626  0.1990
 7010TIP3    H242446   4.216   2.974  12.821  0.3341 -0.2023  1.2233
 7011TIP3   OH242447   4.793   5.376  15.793 -0.2160 -0.0321 -0.2035
 7011TIP3    H142448   4.868   5.362  15.851 -0.7205 -0.4246  0.3716
 7011TIP3    H242449   4.726   5.316  15.827 -1.3740  1.5299  0.3673
 7012TIP3   OH242450   3.531   1.790  16.717 -0.3241  0.8013  0.0552
 7012TIP3    H142451   3.435   1.793  16.712 -0.5321 -1.1558  1.6361
 7012TIP3    H242452   3.559   1.769  16.628 -1.4078  0.7302 -0.2845
 7013TIP3   OH242453   2.097   5.529  11.740  0.5163 -0.5538 -0.4228
 7013TIP3    H142454   2.137   5.450  11.704 -0.5349 -1.1457 -0.3281
 7013TIP3    H242455   2.060   5.502  11.824  0.1844  0.0452 -0.3628
 7014TIP3   OH242456   5.663   4.584  15.394  0.3086  0.0522  0.1240
 7014TIP3    H142457   5.721   4.579  15.471  1.7300 -0.4405 -0.9247
 7014TIP3    H242458   5.712   4.539  15.325 -0.4469  1.4491 -1.3750
 7015TIP3   OH242459   2.064   2.353  14.596 -0.6389  0.3873  0.0108
 7015TIP3    H142460   2.107   2.360  14.681 -0.0966  1.2600 -0.3195
 7015TIP3    H242461   1.990   2.413  14.602 -1.3361 -0.4716  0.2784
 7016TIP3   OH242462   4.422   1.835   0.473 -0.4781 -0.2042 -0.1793
 7016TIP3    H142463   4.446   1.761   0.417  0.8967 -0.2868  0.4708
 7016TIP3    H242464   4.375   1.895   0.415 -0.8289 -1.1875 -0.9320
 7017TIP3   OH242465   3.101   1.043   3.129 -0.1798 -0.2624  0.9078
 7017TIP3    H142466   3.100   0.982   3.055  0.5505  0.2246  0.4846
 7017TIP3    H242467   3.025   1.018   3.182 -0.0506 -1.3612  0.6045
 7018TIP3   OH242468   2.573   5.158   2.248 -0.3174 -0.6911  0.8252
 7018TIP3    H142469   2.631   5.083   2.263  1.9982  0.0749 -2.7976
 7018TIP3    H242470   2.494   5.120   2.210  0.3397 -1.4117  0.1355
 7019TIP3   OH242471   2.857   2.544   4.195  0.0811  0.2244  0.2143
 7019TIP3    H142472   2.817   2.483   4.132  1.3870 -1.2704  0.7557
 7019TIP3    H242473   2.887   2.617   4.142 -0.7063 -0.0268 -0.5993
 7020TIP3   OH242474   0.951   4.674  10.445 -0.4558 -0.2322 -0.1483
 7020TIP3    H142475   0.991   4.736  10.385 -3.1316  0.0250 -1.8084
 7020TIP3    H242476   0.960   4.715  10.531 -1.1153  1.9453 -1.0434
 7021TIP3   OH242477   5.130   6.425   5.976 -0.6008  0.3175  0.4095
 7021TIP3    H142478   5.224   6.408   5.976 -0.4402  1.1326 -0.2962
 7021TIP3    H242479   5.090   6.342   5.999  0.3159  0.0952  1.2550
 7022TIP3   OH242480   3.941   4.176  11.195 -0.0854  0.7267 -0.8387
 7022TIP3    H142481   3.948   4.084  11.171 -2.4810  0.8079 -2.1009
 7022TIP3    H242482   3.912   4.175  11.286  1.0011  0.2993 -0.4742
 7023TIP3   OH242483   5.455   0.930  12.852  0.1700 -0.3332  0.0999
 7023TIP3    H142484   5.505   0.982  12.789 -1.2295  0.5316 -0.3538
 7023TIP3    H242485   5.449   0.984  12.930 -1.4743  0.3596 -0.4472
 7024TIP3   OH242486   0.770   5.610   3.786  0.2723 -0.0487  0.2187
 7024TIP3    H142487   0.680   5.638   3.774  0.7827  0.8766 -1.8112
 7024TIP3    H242488   0.778   5.597   3.881 -2.1143 -0.7291  0.3998
 7025TIP3   OH242489   2.739   5.904   3.094 -0.7599  0.1725 -0.0081
 7025TIP3    H142490   2.819   5.934   3.136  0.0622 -0.5180 -1.0108
 7025TIP3    H242491   2.720   5.821   3.136 -0.8790  0.2756  0.1427
 7026TIP3   OH242492   4.269   0.259   2.624  0.0705  0.3839 -0.3751
 7026TIP3    H142493   4.244   0.188   2.565  1.3106 -1.1025  0.8030
 7026TIP3    H242494   4.334   0.220   2.683  0.5922  2.4279  0.5042
 7027TIP3   OH242495   6.649   0.493   2.616  0.0471 -0.3347 -0.1642
 7027TIP3    H142496   6.631   0.489   2.522  0.5709 -0.7706 -0.2485
 7027TIP3    H242497   6.735   0.452   2.626  0.4529  0.6243  0.3869
 7028TIP3   OH242498   3.576   3.906  16.467  0.2769  0.3210  0.6184
 7028TIP3    H142499   3.634   3.959  16.412 -1.6087  1.3952 -0.4522
 7028TIP3    H242500   3.593   3.816  16.439 -1.2711  0.8548 -2.6051
 7029TIP3   OH242501   4.839   0.551   1.772  0.2741 -0.1638 -0.0775
 7029TIP3    H142502   4.747   0.576   1.774  0.2130 -0.3420  2.2439
 7029TIP3    H242503   4.838   0.456   1.784  0.7419  0.0962  2.7907
 7030TIP3   OH242504   3.752   2.022  16.027 -0.3564  0.2369  0.4172
 7030TIP3    H142505   3.681   2.084  16.011  0.7806  1.5255  0.1949
 7030TIP3    H242506   3.807   2.065  16.092  0.0260 -0.9226  0.8902
 7031TIP3   OH242507   2.629   4.858   3.945  0.3762  0.0594  0.1141
 7031TIP3    H142508   2.712   4.811   3.948  0.2729 -0.0919  0.7727
 7031TIP3    H242509   2.570   4.800   3.897  0.5089 -0.0603  0.0961
 7032TIP3   OH242510   6.734   1.425   0.087 -0.1336  0.0005  0.5755
 7032TIP3    H142511   6.763   1.477   0.162 -0.1536  3.0552 -1.3746
 7032TIP3    H242512   6.641   1.446   0.078 -0.3692 -1.1024  0.2309
 7033TIP3   OH242513   3.859   6.453  14.249 -0.2139 -0.3473 -0.3838
 7033TIP3    H142514   3.781   6.477  14.298 -0.7525 -3.3786  0.4307
 7033TIP3    H242515   3.827   6.408  14.172  0.7211 -0.4834 -0.7117
 7034TIP3   OH242516   3.466   3.077  12.397  0.1491 -0.2352  0.1728
 7034TIP3    H142517   3.560   3.067  12.380 -0.0847 -2.5368 -0.0732
 7034TIP3    H242518   3.458   3.067  12.492  0.1753  0.3503  0.2410
 7035TIP3   OH242519   4.121   0.527  16.719  0.4481  0.3827  0.0589
 7035TIP3    H142520   4.092   0.436  16.706 -0.3481  0.4193  1.3658
 7035TIP3    H242521   4.203   0.519  16.768 -0.1098  0.3530  1.0285
 7036TIP3   OH242522   4.842   5.561   0.115  0.2602  0.7526  0.1208
 7036TIP3    H142523   4.767   5.615   0.092  0.6300  1.2990  0.1654
 7036TIP3    H242524   4.917   5.609   0.081  0.5968  0.2693  0.1729
 7037TIP3   OH242525   1.079   6.735  13.504  0.0715  0.2815 -0.1063
 7037TIP3    H142526   1.174   6.718  13.506 -0.1275 -0.8355  1.2992
 7037TIP3    H242527   1.039   6.648  13.507 -1.0047  0.7719  0.2487
 7038TIP3   OH242528   5.195   5.260  13.634  0.3723  0.6939  0.0943
 7038TIP3    H142529   5.242   5.187  13.674  0.6662  0.8108 -0.0360
 7038TIP3    H242530   5.139   5.219  13.569 -0.5291  0.4441  0.9968
 7039TIP3   OH242531   4.736   4.163  12.735 -0.2858 -0.1817 -0.7200
 7039TIP3    H142532   4.828   4.187  12.749 -0.3190  0.4955 -1.5405
 7039TIP3    H242533   4.693   4.245  12.713 -1.4433 -0.2169  1.2167
 7040TIP3   OH242534   4.156   5.917   2.741  0.0482  0.2188 -0.0825
 7040TIP3    H142535   4.240   5.909   2.787 -1.2878  1.8136  2.9327
 7040TIP3    H242536   4.115   5.831   2.752  0.9344 -0.3468 -0.9662
 7041TIP3   OH242537   0.310   4.838   4.193  0.4793 -0.0958  0.3554
 7041TIP3    H142538   0.249   4.892   4.243 -0.7961 -0.7105 -0.4817
 7041TIP3    H242539   0.340   4.772   4.256  0.0709  0.0408  0.7023
 7042TIP3   OH242540   0.177   1.616   0.682  0.2086  0.4882 -0.0934
 7042TIP3    H142541   0.113   1.579   0.622  0.5041  0.8219 -0.6246
 7042TIP3    H242542   0.207   1.542   0.736  0.6356 -0.0053 -0.9895
 7043TIP3   OH242543   3.468   0.300  16.091  0.5492  0.0932 -0.0068
 7043TIP3    H142544   3.537   0.291  16.025  0.2819 -1.6648 -0.1130
 7043TIP3    H242545   3.421   0.216  16.088 -1.2663  1.0462  0.4370
 7044TIP3   OH242546   5.013   0.851  10.675 -0.0394  0.5125  0.6980
 7044TIP3    H142547   5.106   0.844  10.697 -0.2303  1.0550  1.7485
 7044TIP3    H242548   4.976   0.767  10.701  0.3719 -0.1874 -0.9083
 7045TIP3   OH242549   3.297   6.179   0.199  0.3966 -0.1415  0.2455
 7045TIP3    H142550   3.294   6.222   0.284  2.1130 -0.7808  0.6747
 7045TIP3    H242551   3.301   6.251   0.136 -0.9636  0.3376  0.6838
 7046TIP3   OH242552   3.225   3.814   1.161  0.0974  0.1926 -0.1701
 7046TIP3    H142553   3.225   3.866   1.081 -0.2582  2.3548  1.1539
 7046TIP3    H242554   3.259   3.873   1.229 -0.3045 -1.3086  1.4242
 7047TIP3   OH242555   3.113   1.919   1.029  0.0567  0.0245 -0.0874
 7047TIP3    H142556   3.118   1.928   1.124  2.5670  0.0540 -0.1502
 7047TIP3    H242557   3.129   1.826   1.013  1.2368  0.2729 -0.4964
 7048TIP3   OH242558   4.457   5.265   4.618 -0.3028  0.1840  0.2581
 7048TIP3    H142559   4.412   5.343   4.647 -0.3725  0.1875  0.1402
 7048TIP3    H242560   4.462   5.209   4.696 -2.5137 -0.7903 -0.2160
 7049TIP3   OH242561   0.874   6.167   0.713  0.2137  0.0982  0.0789
 7049TIP3    H142562   0.852   6.225   0.641  1.6355 -2.2517 -2.4610
 7049TIP3    H242563   0.954   6.123   0.685  0.9609 -0.8457  3.2273
 7050TIP3   OH242564   0.267   2.078   4.310 -0.0907  0.0710 -0.1306
 7050TIP3    H142565   0.202   2.064   4.379 -0.8452 -0.3063 -0.9086
 7050TIP3    H242566   0.224   2.049   4.230  1.7539 -2.1982 -0.4101
 7051TIP3   OH242567   1.118   2.834   2.958  0.1664  0.6704  0.3434
 7051TIP3    H142568   1.095   2.786   3.038 -1.0356  1.7611  0.6877
 7051TIP3    H242569   1.175   2.905   2.988  1.8374 -0.4029 -0.1491
 7052TIP3   OH242570   1.736   1.247   2.479 -0.2600 -0.7353 -0.1448
 7052TIP3    H142571   1.690   1.284   2.403  1.4676 -0.4466 -1.1052
 7052TIP3    H242572   1.749   1.155   2.457 -0.2596 -0.7792  0.0432
 7053TIP3   OH242573   5.999   3.410   3.012  0.1167  0.3858 -0.0329
 7053TIP3    H142574   6.031   3.339   2.957  0.9507  0.9236 -0.2613
 7053TIP3    H242575   6.040   3.488   2.976  0.3623  0.7955  1.1012
 7054TIP3   OH242576   1.103   1.340   4.375 -0.8792  0.4062 -0.3815
 7054TIP3    H142577   1.189   1.373   4.350 -0.5093 -0.2852 -0.0581
 7054TIP3    H242578   1.110   1.245   4.366 -1.9408  0.3940 -1.3628
 7055TIP3   OH242579   5.378   6.034  15.758 -0.2887 -0.7768  0.0290
 7055TIP3    H142580   5.344   6.062  15.842 -1.3574 -0.4884 -0.4860
 7055TIP3    H242581   5.320   5.963  15.731  2.3768 -3.6882  1.3373
 7056TIP3   OH242582   2.825   0.399  15.206 -0.2852 -0.9267 -0.3950
 7056TIP3    H142583   2.781   0.316  15.223 -2.8015  0.1980 -1.0492
 7056TIP3    H242584   2.769   0.465  15.245  0.5738  0.6457 -1.6916
 7057TIP3   OH242585   3.251   3.610  11.012 -0.1568 -0.3733  0.1019
 7057TIP3    H142586   3.299   3.643  10.936 -0.0412 -0.7448  0.0110
 7057TIP3    H242587   3.172   3.569  10.975 -1.5463  1.9087  0.3665
 7058TIP3   OH242588   0.055   0.530  13.384 -0.2518  0.2844  0.1619
 7058TIP3    H142589   0.113   0.460  13.355  2.4875  2.6527 -0.5284
 7058TIP3    H242590   0.023   0.500  13.470  2.5765 -0.9059  0.9216
 7059TIP3   OH242591   0.952   2.108   4.369  0.4240  0.5315  0.1105
 7059TIP3    H142592   0.954   2.183   4.309  0.8109 -0.2849 -0.9079
 7059TIP3    H242593   1.035   2.113   4.417 -0.0241  1.3666  0.8419
 7060TIP3   OH242594   5.531   5.522   5.379 -0.4031  0.3774  0.0044
 7060TIP3    H142595   5.471   5.554   5.447  0.5275 -0.9160  1.4949
 7060TIP3    H242596   5.557   5.601   5.332 -1.4102  1.2590  0.8654
 7061TIP3   OH242597   6.581   2.611   2.485 -0.0453  0.3051  0.2973
 7061TIP3    H142598   6.549   2.616   2.575 -0.5417 -0.6044  0.1851
 7061TIP3    H242599   6.676   2.604   2.493 -0.0397  0.8817  0.7239
 7062TIP3   OH242600   3.372   5.338   6.094 -0.6808 -0.1581  0.1986
 7062TIP3    H142601   3.299   5.385   6.133 -0.6974 -0.8020  0.9848
 7062TIP3    H242602   3.374   5.254   6.140  1.3967  0.3690  1.2094
 7063TIP3   OH242603   3.362   2.442  12.302  0.1414  0.1007 -0.5965
 7063TIP3    H142604   3.320   2.529  12.301 -1.7405 -0.7101  0.8648
 7063TIP3    H242605   3.416   2.443  12.381 -0.6286 -0.3279 -0.0414
 7064TIP3   OH242606   0.563   6.382  16.898  0.2498 -1.0343 -0.4979
 7064TIP3    H142607   0.598   6.294  16.909  0.3035 -1.2926 -2.5089
 7064TIP3    H242608   0.470   6.374  16.918  0.2865 -1.4952 -0.5057
 7065TIP3   OH242609   6.526   2.735  14.408  0.8576 -0.4425  0.0052
 7065TIP3    H142610   6.607   2.745  14.458  0.8064  1.1955 -0.1990
 7065TIP3    H242611   6.555   2.713  14.319  1.2739  2.6372 -0.7303
 7066TIP3   OH242612   0.574   3.591   3.160  0.0845 -0.2221 -0.4175
 7066TIP3    H142613   0.530   3.634   3.233  1.2812 -0.8167  0.6962
 7066TIP3    H242614   0.527   3.508   3.149 -0.2623 -0.0165 -0.5138
 7067TIP3   OH242615   6.289   0.565  11.167 -0.5410  0.3273 -0.4141
 7067TIP3    H142616   6.328   0.651  11.182 -2.3513  1.4638 -1.7773
 7067TIP3    H242617   6.199   0.583  11.141 -1.4533 -2.0755  0.7155
 7068TIP3   OH242618   4.778   3.387  16.208 -0.2590  0.0086 -0.5059
 7068TIP3    H142619   4.717   3.458  16.223 -0.6412 -0.2048 -1.0159
 7068TIP3    H242620   4.738   3.311  16.249  1.4855  0.6129  2.6421
 7069TIP3   OH242621   4.793   1.130   4.644  0.0562  0.2994  0.2191
 7069TIP3    H142622   4.783   1.121   4.549  0.2496  1.2312  0.1017
 7069TIP3    H242623   4.704   1.140   4.677 -0.0953 -0.9618  0.2573
 7070TIP3   OH242624   4.975   0.338   5.504 -0.1798 -0.3034 -0.2473
 7070TIP3    H142625   4.921   0.330   5.583 -0.1600 -0.3031 -0.2338
 7070TIP3    H242626   5.030   0.259   5.505  1.1671  0.6134  0.7454
 7071TIP3   OH242627   3.106   5.459   4.281 -0.0463  0.1083  0.0567
 7071TIP3    H142628   3.097   5.407   4.201  1.3495 -2.0736  1.2189
 7071TIP3    H242629   3.055   5.411   4.346  1.2427  0.1906  1.1605
 7072TIP3   OH242630   4.745   2.200  11.583 -0.0249  0.0149  0.3024
 7072TIP3    H142631   4.713   2.115  11.555 -1.3912  1.7934 -4.6893
 7072TIP3    H242632   4.833   2.206  11.546 -0.0446  0.8473  0.3598
 7073TIP3   OH242633   3.746   0.164   5.710 -0.0953 -0.2830 -0.2553
 7073TIP3    H142634   3.755   0.069   5.710 -0.2894 -0.3106  0.4255
 7073TIP3    H242635   3.720   0.186   5.620 -2.3213 -1.1224  0.1034
 7074TIP3   OH242636   6.607   2.192  16.297 -0.2820 -0.2631  0.5875
 7074TIP3    H142637   6.699   2.205  16.273 -0.6609  2.0120  0.0700
 7074TIP3    H242638   6.561   2.188  16.213 -1.1245  3.3963  0.6965
 7075TIP3   OH242639   3.465   1.194   1.073  0.0327 -0.2523  0.0849
 7075TIP3    H142640   3.546   1.175   1.025  0.3880  0.8301  0.2274
 7075TIP3    H242641   3.402   1.130   1.041  1.2246 -1.8235  0.7406
 7076TIP3   OH242642   5.788   4.684  12.514 -0.2252  0.1704 -0.5828
 7076TIP3    H142643   5.831   4.668  12.430  0.0062 -2.4666 -0.0411
 7076TIP3    H242644   5.818   4.771  12.540  0.8241  0.4544 -2.5440
 7077TIP3   OH242645   0.601   1.423   5.948  0.0725  0.0182 -0.3180
 7077TIP3    H142646   0.526   1.407   6.005  0.0843 -0.8166 -0.5130
 7077TIP3    H242647   0.636   1.508   5.976 -0.4577  0.0353  0.3122
 7078TIP3   OH242648   3.954   2.695  12.571  0.4378 -0.2739  0.1272
 7078TIP3    H142649   3.992   2.746  12.499 -1.4586  0.4410 -0.4350
 7078TIP3    H242650   3.920   2.616  12.529 -0.7613  0.1887  0.1853
 7079TIP3   OH242651   6.378   5.408  13.535 -0.1566 -0.7757  0.1706
 7079TIP3    H142652   6.380   5.389  13.441 -0.3995  0.2080 -0.0487
 7079TIP3    H242653   6.400   5.325  13.577 -1.4895 -1.6084 -0.7128
 7080TIP3   OH242654   3.198   3.537  16.282  0.3803 -0.0378 -0.3757
 7080TIP3    H142655   3.141   3.613  16.268  1.8904  0.8267 -2.1902
 7080TIP3    H242656   3.262   3.566  16.346  0.4639 -0.0654 -0.4461
 7081TIP3   OH242657   0.671   6.414  15.707 -0.1382 -0.0936  0.0164
 7081TIP3    H142658   0.581   6.433  15.680  0.2991  0.7481 -0.8885
 7081TIP3    H242659   0.669   6.422  15.802 -0.1087  4.3575 -0.1358
 7082TIP3   OH242660   5.190   1.362   4.359 -0.6685 -0.2331 -0.8514
 7082TIP3    H142661   5.144   1.293   4.310 -0.2553 -0.2935 -1.1626
 7082TIP3    H242662   5.144   1.367   4.442 -1.0709 -0.4796 -1.0547
 7083TIP3   OH242663   1.182   5.094   2.677  0.1289  0.0138 -0.3055
 7083TIP3    H142664   1.174   5.159   2.747  0.7157  1.0193 -1.1555
 7083TIP3    H242665   1.108   5.111   2.619  1.1545  0.9592 -1.3583
 7084TIP3   OH242666   1.229   5.102   3.017  0.1153  0.1266  0.6253
 7084TIP3    H142667   1.244   5.138   3.105 -1.2455 -0.0258  0.9428
 7084TIP3    H242668   1.211   5.179   2.962  0.7115  0.2010  0.5288
 7085TIP3   OH242669   1.652   5.604  11.565  0.6434 -0.5140  0.4022
 7085TIP3    H142670   1.650   5.524  11.617 -0.8912 -1.3619 -0.8544
 7085TIP3    H242671   1.663   5.574  11.475 -2.4363  0.4310 -0.4116
 7086TIP3   OH242672   2.078   0.101   2.901 -0.1491 -0.0595  0.1462
 7086TIP3    H142673   2.070   0.007   2.918 -1.6512 -0.2328 -1.2544
 7086TIP3    H242674   1.991   0.127   2.871 -0.4071  2.2766  2.5910
 7087TIP3   OH242675   3.128   0.354  11.267  0.1042 -0.2160 -0.6468
 7087TIP3    H142676   3.184   0.280  11.247 -0.5583 -0.7148 -0.6909
 7087TIP3    H242677   3.107   0.392  11.181 -0.3118 -0.5460 -0.6940
 7088TIP3   OH242678   1.162   4.460   2.699 -0.7968 -0.5532 -0.7294
 7088TIP3    H142679   1.190   4.532   2.755 -0.8981 -1.0131 -0.0872
 7088TIP3    H242680   1.145   4.502   2.614 -0.6182  0.1356 -0.4340
 7089TIP3   OH242681   4.621   3.905  11.122 -0.0322 -0.5893  0.4085
 7089TIP3    H142682   4.615   3.996  11.095  0.6435 -0.0973  1.7733
 7089TIP3    H242683   4.573   3.901  11.205  1.0437 -1.1465  1.0405
 7090TIP3   OH242684   5.952   3.179   5.540  0.3367  0.0586  0.1662
 7090TIP3    H142685   5.898   3.113   5.582  2.8754 -2.8927 -0.7903
 7090TIP3    H242686   5.918   3.186   5.451  0.8895 -1.0579 -0.1452
 7091TIP3   OH242687   6.320   5.287   0.902 -0.0455  0.2788 -0.3291
 7091TIP3    H142688   6.306   5.357   0.964  2.0814  1.8244 -1.4740
 7091TIP3    H242689   6.234   5.273   0.862 -1.0358  0.4802  1.6364
 7092TIP3   OH242690   0.676   6.223   3.258  0.2726 -0.3074  0.1063
 7092TIP3    H142691   0.770   6.232   3.270  0.5043 -2.1346 -0.0105
 7092TIP3    H242692   0.666   6.171   3.178 -0.8202 -0.2569  0.1863
 7093TIP3   OH242693   6.285   3.246  11.460 -0.7236 -0.0382  0.0540
 7093TIP3    H142694   6.254   3.325  11.415 -1.5120 -0.6109 -0.4559
 7093TIP3    H242695   6.331   3.278  11.537 -2.6274  0.9134  0.8761
 7094TIP3   OH242696   3.103   5.143  16.882  0.0904 -0.5612 -0.6450
 7094TIP3    H142697   3.129   5.177  16.967 -0.6983 -2.1474  0.2689
 7094TIP3    H242698   3.178   5.161  16.825  1.5087 -1.3366  0.8907
 7095TIP3   OH242699   6.700   4.896  10.418 -0.6007  0.0351  0.2673
 7095TIP3    H142700   6.634   4.921  10.352 -0.3378 -0.6812 -0.2855
 7095TIP3    H242701   6.648   4.862  10.491 -0.8631 -0.1810 -0.0142
 7096TIP3   OH242702   5.855   1.238   5.815 -0.4579  0.3790  0.1692
 7096TIP3    H142703   5.861   1.163   5.875  0.1019  0.3514  0.0863
 7096TIP3    H242704   5.868   1.314   5.871 -2.5634  0.5437  0.5255
 7097TIP3   OH242705   2.229   3.896  11.719 -0.3814 -0.3414  0.0241
 7097TIP3    H142706   2.316   3.935  11.715 -0.5891  0.2043  0.6314
 7097TIP3    H242707   2.244   3.806  11.748 -0.1576  0.3527  2.2381
 7098TIP3   OH242708   0.073   0.350   4.881 -0.1981  0.4287  0.6883
 7098TIP3    H142709  -0.021   0.337   4.869 -0.0833 -0.3428  0.6231
 7098TIP3    H242710   0.103   0.381   4.796  0.4311 -4.0185 -0.9845
 7099TIP3   OH242711   1.401   4.883   5.092  0.1230 -0.2106  0.1171
 7099TIP3    H142712   1.320   4.934   5.102  0.2787 -0.1823  1.4860
 7099TIP3    H242713   1.463   4.944   5.052 -0.3630 -0.0554 -0.4076
 7100TIP3   OH242714   5.993   1.603  10.669 -0.1175 -0.5657  0.5493
 7100TIP3    H142715   6.048   1.584  10.593 -0.0427  0.9913  0.1792
 7100TIP3    H242716   6.046   1.661  10.723 -1.0997  0.3675  0.5408
 7101TIP3   OH242717   2.997   2.183   2.492  0.2460  0.1773 -0.1973
 7101TIP3    H142718   2.968   2.092   2.486 -1.4792  0.7241 -0.8638
 7101TIP3    H242719   2.981   2.208   2.583  1.0356 -0.2806  0.0681
 7102TIP3   OH242720   5.662   0.454   3.499  0.6803 -0.4722 -0.2468
 7102TIP3    H142721   5.692   0.364   3.505  0.5132 -0.7666 -2.6579
 7102TIP3    H242722   5.697   0.486   3.416  1.1619  1.8762  0.7663
 7103TIP3   OH242723   4.174   2.547  11.835  0.4749 -0.0422 -0.2070
 7103TIP3    H142724   4.173   2.498  11.917  0.3786  1.1673  0.5344
 7103TIP3    H242725   4.180   2.639  11.861 -0.1180  0.4097 -1.5400
 7104TIP3   OH242726   1.325   6.567   3.755 -0.5938 -0.1914 -0.5301
 7104TIP3    H142727   1.290   6.561   3.666 -0.8913 -0.8167 -0.3780
 7104TIP3    H242728   1.403   6.511   3.753 -0.1133  0.4707 -0.6215
 7105TIP3   OH242729   6.556   5.022  14.701  0.6570 -0.4030  0.0571
 7105TIP3    H142730   6.566   5.004  14.607 -0.3461 -1.2599  0.0885
 7105TIP3    H242731   6.541   4.935  14.740 -0.9711  0.1390  0.7189
 7106TIP3   OH242732   3.634   4.434  16.154 -0.7664 -0.2720 -0.6142
 7106TIP3    H142733   3.585   4.375  16.211  0.3916 -0.6242  0.0565
 7106TIP3    H242734   3.659   4.507  16.211  0.7162 -0.8020 -0.5403
 7107TIP3   OH242735   0.766   3.760  16.816 -0.7155 -0.4056 -0.2482
 7107TIP3    H142736   0.683   3.803  16.840 -1.4977 -2.2055  0.4001
 7107TIP3    H242737   0.821   3.769  16.893 -1.1586 -1.2184  0.1693
 7108TIP3   OH242738   1.212   0.594   4.644  0.2093  0.3263  0.1826
 7108TIP3    H142739   1.247   0.511   4.676 -0.6146 -1.3900 -2.9301
 7108TIP3    H242740   1.266   0.615   4.568  0.0280  2.3791  0.5637
 7109TIP3   OH242741   0.502   1.150  13.475 -0.5771 -0.3210 -0.0957
 7109TIP3    H142742   0.516   1.232  13.522  0.6047  0.4219 -1.6557
 7109TIP3    H242743   0.579   1.097  13.496 -1.1426 -0.8767  0.5889
 7110TIP3   OH242744   4.225   3.414  15.540 -0.0309  0.3629 -0.0251
 7110TIP3    H142745   4.248   3.441  15.451 -2.8388 -1.5597 -1.4886
 7110TIP3    H242746   4.296   3.356  15.566  0.9185  1.0662 -0.9544
 7111TIP3   OH242747   3.746   6.535   5.442  0.3464 -0.1014 -0.7817
 7111TIP3    H142748   3.688   6.516   5.368  0.0729  0.0527 -0.6082
 7111TIP3    H242749   3.707   6.613   5.483  0.2809 -0.4132 -0.2474
 7112TIP3   OH242750   3.573   0.134   0.045  0.0152 -0.8492  0.1126
 7112TIP3    H142751   3.659   0.176   0.049 -0.6896  0.6650 -0.1843
 7112TIP3    H242752   3.568   0.083   0.126 -0.4049  2.3408  2.2664
 7113TIP3   OH242753   1.731   4.823  10.701 -0.5387  0.1545 -0.4417
 7113TIP3    H142754   1.809   4.804  10.752  0.5955  1.1715 -1.7414
 7113TIP3    H242755   1.692   4.899  10.744 -0.3202  0.1975 -0.3178
 7114TIP3   OH242756   3.262   0.739  13.034  0.2761  0.7131 -0.0958
 7114TIP3    H142757   3.276   0.644  13.024  1.9705  0.9107  0.0571
 7114TIP3    H242758   3.311   0.777  12.960  2.3092  1.5903  1.6024
 7115TIP3   OH242759   2.853   4.112  14.312 -0.0146  0.2054  0.1328
 7115TIP3    H142760   2.897   4.054  14.374  0.8132  1.5854  0.9038
 7115TIP3    H242761   2.832   4.057  14.237 -1.9632 -1.7823  1.9908
 7116TIP3   OH242762   0.958   5.629   1.715  0.5476  0.2833 -0.1694
 7116TIP3    H142763   0.961   5.593   1.626  0.1358 -1.1520  0.3603
 7116TIP3    H242764   1.022   5.577   1.764  0.7881  1.0778  0.3762
 7117TIP3   OH242765   5.560   4.542  16.504  0.1113  0.0392 -0.0078
 7117TIP3    H142766   5.519   4.513  16.422 -0.1311 -0.9846  0.4548
 7117TIP3    H242767   5.604   4.624  16.481  2.9182 -1.8349 -2.0668
 7118TIP3   OH242768   3.685   1.727  11.843  0.0968 -0.0276 -0.1183
 7118TIP3    H142769   3.734   1.778  11.779 -1.7770  0.1989 -1.4395
 7118TIP3    H242770   3.594   1.729  11.812 -1.0512  0.6803  2.9105
 7119TIP3   OH242771   1.158   6.353  15.474  0.2430  0.0696  0.4340
 7119TIP3    H142772   1.248   6.387  15.477  0.0735  0.4751  0.9186
 7119TIP3    H242773   1.109   6.419  15.425  0.6981 -1.3083 -2.0918
 7120TIP3   OH242774   5.565   5.352  16.385 -0.5263 -0.1830  0.4969
 7120TIP3    H142775   5.555   5.299  16.305  1.3342 -0.1218  0.1728
 7120TIP3    H242776   5.529   5.437  16.361 -0.8157 -0.4326  0.0169
 7121TIP3   OH242777   2.551   0.013   4.173  0.6254 -0.2596  0.5628
 7121TIP3    H142778   2.623   0.075   4.172  0.4356 -0.0438 -0.8229
 7121TIP3    H242779   2.566  -0.044   4.098 -0.9733  0.1909 -0.1481
 7122TIP3   OH242780   0.445   4.322   1.242 -0.4010 -0.9552  0.1628
 7122TIP3    H142781   0.437   4.235   1.280 -0.6109 -1.0392 -0.0680
 7122TIP3    H242782   0.482   4.307   1.155 -1.3741 -0.9139 -0.2711
 7123TIP3   OH242783   5.822   1.088  12.813 -0.0756  0.3287  0.1378
 7123TIP3    H142784   5.862   1.139  12.742 -1.3659  1.2797  0.0715
 7123TIP3    H242785   5.740   1.056  12.776 -0.1469 -0.2439  0.7906
 7124TIP3   OH242786   0.215   6.073  12.818  0.1267  0.4536  0.0644
 7124TIP3    H142787   0.127   6.058  12.782 -0.1178 -1.1421  1.2181
 7124TIP3    H242788   0.263   5.993  12.798  1.7131  1.7011 -1.4792
 7125TIP3   OH242789   4.701   3.416  10.916 -0.3341 -0.0175 -0.2900
 7125TIP3    H142790   4.679   3.497  10.963  0.3712 -0.7072  1.3056
 7125TIP3    H242791   4.622   3.363  10.923 -0.1532 -0.2075  0.3219
 7126TIP3   OH242792   6.505   6.743  11.901  0.6564  0.1946  0.8710
 7126TIP3    H142793   6.415   6.722  11.877  0.1945  1.0421  1.7913
 7126TIP3    H242794   6.497   6.791  11.984  1.7754  2.2277 -0.1149
 7127TIP3   OH242795   4.050   0.433   2.141  0.0921 -0.2638  0.2115
 7127TIP3    H142796   4.050   0.431   2.045 -1.3779 -0.7323  0.1981
 7127TIP3    H242797   3.958   0.442   2.165  0.6094  2.9972  1.5531
 7128TIP3   OH242798   3.728   2.506   5.306 -0.0347 -0.1029 -0.1714
 7128TIP3    H142799   3.731   2.550   5.391 -0.3617 -1.9252  0.8222
 7128TIP3    H242800   3.819   2.511   5.274  0.4700 -0.8951  1.0852
 7129TIP3   OH242801   5.749   1.303  14.192  0.5159 -0.5078  0.3426
 7129TIP3    H142802   5.796   1.332  14.114 -1.2929  0.7445 -0.3451
 7129TIP3    H242803   5.788   1.218  14.213  0.6010 -1.2322 -2.3462
 7130TIP3   OH242804   2.191   1.894   1.603 -0.2979 -0.1325 -0.3435
 7130TIP3    H142805   2.104   1.868   1.634  0.0814 -0.8228  0.1653
 7130TIP3    H242806   2.176   1.976   1.556 -1.2143 -0.2132 -0.2117
 7131TIP3   OH242807   3.904   5.936   4.101 -0.6253 -0.3638 -0.1592
 7131TIP3    H142808   3.841   5.916   4.170 -1.6959 -0.1925 -1.0455
 7131TIP3    H242809   3.916   6.031   4.106 -1.6920 -0.1671 -0.9955
 7132TIP3   OH242810   6.556   4.905   0.462  0.3327  0.1002  0.0297
 7132TIP3    H142811   6.528   4.818   0.430 -0.5429  0.6375 -0.7288
 7132TIP3    H242812   6.583   4.952   0.383 -1.6781  1.3920  0.0336
 7133TIP3   OH242813   0.043   2.623   0.391 -0.1476 -0.2511  0.4751
 7133TIP3    H142814   0.012   2.678   0.462  0.3814 -0.2200  0.6881
 7133TIP3    H242815   0.024   2.534   0.420 -0.0073 -0.2343  0.6215
 7134TIP3   OH242816   3.818   1.886   5.462 -0.8327  0.0806 -0.4853
 7134TIP3    H142817   3.734   1.867   5.419 -0.9592 -1.4873  0.3663
 7134TIP3    H242818   3.797   1.887   5.555 -0.2789  1.8811 -0.3440
 7135TIP3   OH242819   1.105   5.170  11.272  0.2577  0.0830 -0.0104
 7135TIP3    H142820   1.108   5.212  11.358  2.9622 -0.1827  0.1128
 7135TIP3    H242821   1.013   5.147  11.259 -0.1155 -0.5102  3.1199
 7136TIP3   OH242822   5.344   0.117   1.628  0.3890  0.2792 -0.5536
 7136TIP3    H142823   5.377   0.056   1.695  1.9224  0.5711 -1.0084
 7136TIP3    H242824   5.274   0.165   1.672 -1.3832 -2.2570 -0.3710
 7137TIP3   OH242825   3.277   0.231  12.904  0.1759  0.3370 -0.8763
 7137TIP3    H142826   3.194   0.217  12.860  0.4212  1.8733 -1.9296
 7137TIP3    H242827   3.341   0.182  12.852  0.2570  1.0297 -1.4431
 7138TIP3   OH242828   3.930   3.761   4.848 -0.3925 -0.4431  0.5296
 7138TIP3    H142829   4.022   3.779   4.831 -0.2901 -2.2691 -1.1728
 7138TIP3    H242830   3.893   3.845   4.874  1.3210  0.7633 -0.7824
 7139TIP3   OH242831   2.397   2.165   0.537  0.1519 -0.3040 -0.1150
 7139TIP3    H142832   2.415   2.212   0.456 -1.0266  2.0530  0.8705
 7139TIP3    H242833   2.444   2.082   0.529  0.8965  0.3011 -2.7337
 7140TIP3   OH242834   3.493   5.994   3.662  0.1176 -0.0206  0.4283
 7140TIP3    H142835   3.580   5.995   3.621 -0.1475 -0.5338 -0.1742
 7140TIP3    H242836   3.436   5.955   3.595 -0.3620 -0.7153  1.2249
 7141TIP3   OH242837   1.612   3.476   2.330  0.1796 -0.1630  0.3450
 7141TIP3    H142838   1.638   3.437   2.247 -1.8690  0.9743 -0.8919
 7141TIP3    H242839   1.569   3.405   2.377 -0.7152 -0.2461 -0.5667
 7142TIP3   OH242840   3.723   4.559  14.833  0.3921 -0.0641  0.2446
 7142TIP3    H142841   3.786   4.627  14.812 -0.2233  0.3352 -0.3496
 7142TIP3    H242842   3.708   4.513  14.750 -0.5612  0.2550  0.2264
 7143TIP3   OH242843   6.183   1.525  16.190 -0.5975 -0.2488 -0.2594
 7143TIP3    H142844   6.182   1.563  16.102 -0.0299  0.8401  0.1920
 7143TIP3    H242845   6.250   1.456  16.185  3.4622  3.2522  0.6330
 7144TIP3   OH242846   1.646   6.634   5.887  0.2787  0.0196 -0.2702
 7144TIP3    H142847   1.644   6.549   5.929 -3.6033 -1.4756 -2.9234
 7144TIP3    H242848   1.627   6.697   5.956  0.6286 -1.5101  1.2665
 7145TIP3   OH242849   1.461   3.786  12.662  0.0208  0.5584  0.0553
 7145TIP3    H142850   1.494   3.696  12.671  1.6262  1.1890  0.9603
 7145TIP3    H242851   1.457   3.801  12.568 -0.0923 -0.3815 -0.1064
 7146TIP3   OH242852   2.294   3.513   1.255  0.0616  0.2640  0.5087
 7146TIP3    H142853   2.282   3.495   1.348 -1.3390 -0.8070  0.1674
 7146TIP3    H242854   2.379   3.474   1.234 -0.1107 -0.4735  1.1279
 7147TIP3   OH242855   4.008   0.604   6.065 -0.6219 -0.1573  0.1613
 7147TIP3    H142856   4.075   0.540   6.042 -0.1776 -0.0860  1.2139
 7147TIP3    H242857   4.010   0.608   6.161 -0.6436  1.4062  0.1235
 7148TIP3   OH242858   2.775   2.640  12.997  0.0139  0.1819  0.0561
 7148TIP3    H142859   2.745   2.579  13.065 -0.8424 -0.0454 -0.5041
 7148TIP3    H242860   2.813   2.584  12.929  1.2395  0.4356  0.5188
 7149TIP3   OH242861   5.676   6.248  11.975 -0.4216 -0.6617 -0.1382
 7149TIP3    H142862   5.743   6.185  11.951 -0.8637 -0.3853 -2.3392
 7149TIP3    H242863   5.594   6.198  11.972 -0.5257 -0.5297  0.4744
 7150TIP3   OH242864   4.085   1.258  16.827  0.1272  0.1557  0.3716
 7150TIP3    H142865   4.173   1.238  16.858  0.7027 -0.5484 -1.5851
 7150TIP3    H242866   4.039   1.174  16.827  0.8297 -0.3437 -2.5910
 7151TIP3   OH242867   3.895   6.172  14.943 -0.1899 -0.0859  0.2690
 7151TIP3    H142868   3.983   6.163  14.979  0.6758  1.3696 -1.3200
 7151TIP3    H242869   3.859   6.248  14.988  0.1487  0.5322 -0.4771
 7152TIP3   OH242870   0.705   6.579  11.250 -0.4049 -0.3050 -0.5224
 7152TIP3    H142871   0.775   6.565  11.187 -0.3484 -1.5105 -0.2214
 7152TIP3    H242872   0.630   6.531  11.214 -1.4042  1.7112 -1.3074
 7153TIP3   OH242873   2.604   0.300   0.909  0.1504 -0.2977 -0.1753
 7153TIP3    H142874   2.612   0.211   0.874  0.2402  0.0585 -1.0877
 7153TIP3    H242875   2.557   0.289   0.991 -0.3347 -1.1364 -0.5469
 7154TIP3   OH242876   0.590   0.439   0.409  0.0703  0.2961  0.2653
 7154TIP3    H142877   0.598   0.392   0.492  0.6279 -0.2192 -0.0730
 7154TIP3    H242878   0.548   0.522   0.432 -0.9474 -0.3709  0.8674
 7155TIP3   OH242879   6.630   3.187  11.321 -0.5397  0.1010  0.4194
 7155TIP3    H142880   6.634   3.210  11.413 -0.6022 -0.5730  0.5956
 7155TIP3    H242881   6.686   3.109  11.313 -0.0769  0.4928 -0.2149
 7156TIP3   OH242882   6.105   3.797  13.561  0.3243 -0.2709  0.0664
 7156TIP3    H142883   6.135   3.721  13.509 -0.3911  0.0810 -0.9015
 7156TIP3    H242884   6.075   3.860  13.495  2.4722  1.5867  0.7536
 7157TIP3   OH242885   5.222   5.609   0.703 -0.5562  0.6642 -0.2776
 7157TIP3    H142886   5.137   5.639   0.736 -1.3137 -1.0961 -0.4821
 7157TIP3    H242887   5.246   5.536   0.761  0.3705  0.5593 -0.7758
 7158TIP3   OH242888   1.507   4.244   6.173  0.0521 -0.1394 -0.2056
 7158TIP3    H142889   1.570   4.174   6.154  0.3821  0.1096 -0.0346
 7158TIP3    H242890   1.534   4.277   6.259 -0.0385  0.2690 -0.3347
 7159TIP3   OH242891   2.818   5.494  12.177 -0.0997  0.1587  0.3561
 7159TIP3    H142892   2.896   5.538  12.211  0.2058  0.3994 -0.6250
 7159TIP3    H242893   2.751   5.509  12.243 -0.6665  3.9927 -0.8699
 7160TIP3   OH242894   1.179   0.516  14.059  0.2612  0.2759  0.6360
 7160TIP3    H142895   1.116   0.493  13.992  1.6260  0.8847 -0.9321
 7160TIP3    H242896   1.172   0.446  14.124 -0.1623 -1.0909 -0.8209
 7161TIP3   OH242897   6.398   5.178   6.113 -0.0490 -0.1364  0.3080
 7161TIP3    H142898   6.463   5.225   6.165  0.1667 -0.6509  0.5010
 7161TIP3    H242899   6.444   5.103   6.078 -0.2542  0.0833 -0.4481
 7162TIP3   OH242900   3.744   1.919  12.051 -0.2015 -0.7786 -0.0079
 7162TIP3    H142901   3.729   1.844  11.994 -0.7118  0.5289 -1.6514
 7162TIP3    H242902   3.662   1.967  12.051  0.4848  0.4332  0.0311
 7163TIP3   OH242903   1.722   4.408  11.849  0.2533  0.0398 -0.3229
 7163TIP3    H142904   1.746   4.316  11.850  1.0464  0.2025 -1.6286
 7163TIP3    H242905   1.777   4.448  11.918 -1.2656 -0.6799  1.3820
 7164TIP3   OH242906   4.235   4.249   4.927  0.0193 -0.2509 -0.2222
 7164TIP3    H142907   4.167   4.285   4.983  0.5360  1.3206 -0.5604
 7164TIP3    H242908   4.247   4.159   4.958 -0.8275  0.0742  1.1011
 7165TIP3   OH242909   2.308   1.718  11.572 -0.2085  0.2556 -0.4260
 7165TIP3    H142910   2.259   1.749  11.649 -0.8490 -3.2769  0.8012
 7165TIP3    H242911   2.241   1.701  11.506  0.0490  0.7427 -0.8223
 7166TIP3   OH242912   5.084   6.410   5.524 -0.4561 -0.3414 -0.0716
 7166TIP3    H142913   5.018   6.349   5.490 -0.9045  0.0084  0.1573
 7166TIP3    H242914   5.167   6.373   5.497 -0.7288 -1.0174  0.0023
 7167TIP3   OH242915   2.645   5.239  13.321 -0.0827  0.1796 -0.4128
 7167TIP3    H142916   2.706   5.168  13.302  1.3351  1.5177 -1.0540
 7167TIP3    H242917   2.648   5.248  13.416  0.0330 -0.3672 -0.3645
 7168TIP3   OH242918   1.999   2.893   2.312  0.1973 -0.4161  0.4586
 7168TIP3    H142919   1.987   2.803   2.282  0.4489 -0.7508  1.3301
 7168TIP3    H242920   1.918   2.937   2.288 -0.6064 -1.2895  1.4812
 7169TIP3   OH242921   0.771   2.641   0.563  0.0359  0.1712 -0.3833
 7169TIP3    H142922   0.862   2.620   0.544 -0.4729 -1.9223 -0.8356
 7169TIP3    H242923   0.765   2.636   0.659  0.3157 -0.0927 -0.3772
 7170TIP3   OH242924   3.149   3.304  14.666 -0.0069 -0.2331 -0.0333
 7170TIP3    H142925   3.207   3.230  14.684 -1.4917 -0.9021  2.5540
 7170TIP3    H242926   3.061   3.268  14.676 -0.7779  1.7034  0.5608
 7171TIP3   OH242927   3.306   2.065  14.519 -0.2024 -0.0581 -0.0614
 7171TIP3    H142928   3.280   1.987  14.568  1.6146  0.8909  2.6829
 7171TIP3    H242929   3.368   2.032  14.454 -0.2822 -1.0353  0.3380
 7172TIP3   OH242930   5.021   1.029   5.635  0.1449 -0.1021 -0.7633
 7172TIP3    H142931   4.973   0.952   5.667  1.8485 -1.4493 -1.3299
 7172TIP3    H242932   5.065   1.063   5.713 -0.6440  0.3601 -0.5026
 7173TIP3   OH242933   4.523   5.166  11.825  0.1009 -0.0419 -0.2016
 7173TIP3    H142934   4.443   5.141  11.870 -0.6401  1.1715 -0.7914
 7173TIP3    H242935   4.592   5.152  11.889 -0.8246  0.7964  1.0151
 7174TIP3   OH242936   1.346   4.854   3.402  0.2752  0.1015  0.2832
 7174TIP3    H142937   1.374   4.828   3.314  0.1912 -1.7384  0.7521
 7174TIP3    H242938   1.250   4.861   3.396  0.4144  2.2439 -0.2865
 7175TIP3   OH242939   0.273   2.006  15.758 -0.9864 -0.0586 -0.3178
 7175TIP3    H142940   0.233   1.990  15.843  1.9005  0.5917  1.2725
 7175TIP3    H242941   0.234   2.088  15.728 -0.1069  1.1675  1.7130
 7176TIP3   OH242942   1.815   1.680  15.386  0.3256  0.3851  0.3020
 7176TIP3    H142943   1.797   1.631  15.467  0.3862 -0.3103 -0.0954
 7176TIP3    H242944   1.910   1.679  15.379  0.3380  0.7746  0.4184
 7177TIP3   OH242945   0.702   4.839  16.717  0.3001  0.3059  0.3166
 7177TIP3    H142946   0.750   4.817  16.637  1.2563 -1.9395  1.4295
 7177TIP3    H242947   0.725   4.931  16.734  2.3520 -0.0128 -0.4583
 7178TIP3   OH242948   4.348   4.252  14.628 -0.0938 -0.0647  0.5070
 7178TIP3    H142949   4.443   4.242  14.622 -0.0166  0.9315 -0.1670
 7178TIP3    H242950   4.324   4.304  14.551 -1.3852 -1.5618 -0.1485
 7179TIP3   OH242951   1.767   3.464  12.405  0.1153  0.0985  0.1983
 7179TIP3    H142952   1.784   3.383  12.454 -0.6400  0.8428  1.7805
 7179TIP3    H242953   1.686   3.448  12.358 -0.4490  0.1693  1.1206
 7180TIP3   OH242954   6.122   4.043   5.927 -0.4222  0.1236  0.4570
 7180TIP3    H142955   6.206   4.012   5.960 -0.8169 -2.7526 -0.9289
 7180TIP3    H242956   6.074   4.069   6.005  1.3461  0.8235  1.3693
 7181TIP3   OH242957   2.972   2.697   0.823 -0.0860  0.1152  0.4104
 7181TIP3    H142958   2.936   2.620   0.867 -2.0186 -0.4220 -1.8671
 7181TIP3    H242959   3.050   2.665   0.778 -1.1216 -0.7055 -0.8864
 7182TIP3   OH242960   4.231   4.355   4.451  0.0298  0.1407 -0.5786
 7182TIP3    H142961   4.147   4.332   4.412 -0.3509 -0.6653  0.6495
 7182TIP3    H242962   4.296   4.319   4.391 -0.5384 -1.1035 -0.4786
 7183TIP3   OH242963   5.863   4.909   3.020 -0.5704  0.6325 -0.0571
 7183TIP3    H142964   5.895   4.901   2.930  0.6456  1.0609  0.3137
 7183TIP3    H242965   5.930   4.961   3.064  0.0183 -1.4430  1.6491
 7184TIP3   OH242966   1.336   0.823   4.495 -0.3838 -0.6115 -0.3022
 7184TIP3    H142967   1.396   0.823   4.421 -0.9693 -0.3878 -0.7800
 7184TIP3    H242968   1.394   0.815   4.572  0.1645 -1.7108 -0.8036
 7185TIP3   OH242969   0.219   5.360   4.350  0.4614  0.2285 -0.0676
 7185TIP3    H142970   0.297   5.403   4.384  0.8022  0.2292 -0.8260
 7185TIP3    H242971   0.151   5.427   4.350  0.3638  0.1444  0.8934
 7186TIP3   OH242972   5.590   4.305   2.989  0.1380  0.2109 -0.6317
 7186TIP3    H142973   5.515   4.302   2.930 -1.9671 -1.3519  1.9051
 7186TIP3    H242974   5.560   4.357   3.063  0.1772 -3.1590  1.9829
 7187TIP3   OH242975   6.647   2.620  14.169 -0.6738 -0.2145 -0.1819
 7187TIP3    H142976   6.739   2.646  14.168 -0.9339  0.8164  0.5279
 7187TIP3    H242977   6.615   2.642  14.082 -0.8521  1.8545  0.3547
 7188TIP3   OH242978   0.034   5.859  13.443  0.1833 -0.0649  0.5176
 7188TIP3    H142979   0.114   5.820  13.407 -0.0007  0.3787 -0.3833
 7188TIP3    H242980   0.055   5.952  13.453 -0.0182 -0.0545  0.8740
 7189TIP3   OH242981   6.634   3.426   4.615 -0.1897 -0.5682  0.3188
 7189TIP3    H142982   6.587   3.347   4.587  0.4495 -1.1630  0.9073
 7189TIP3    H242983   6.572   3.497   4.599 -0.4517 -1.0722 -1.0603
 7190TIP3   OH242984   5.331   4.819   5.672 -0.3895 -0.4341 -0.1050
 7190TIP3    H142985   5.334   4.811   5.767  0.0194  1.5089  0.0719
 7190TIP3    H242986   5.331   4.913   5.655 -0.9302 -0.7404 -2.0234
 7191TIP3   OH242987   3.285   6.166   1.536 -0.1274  0.3250 -0.3329
 7191TIP3    H142988   3.321   6.196   1.619 -1.3335  0.5667  0.1220
 7191TIP3    H242989   3.204   6.216   1.525 -0.8631 -0.9087 -0.8103
 7192TIP3   OH242990   2.271   6.736  10.695 -0.1639  0.1719 -0.6953
 7192TIP3    H142991   2.223   6.815  10.669 -0.8739 -0.1532 -0.3885
 7192TIP3    H242992   2.350   6.737  10.641  0.4886  1.7843  0.1963
 7193TIP3   OH242993   0.385   1.922  17.096  0.0119 -0.3049  0.3542
 7193TIP3    H142994   0.396   1.985  17.168  0.4421 -1.3835  1.2619
 7193TIP3    H242995   0.364   1.839  17.139 -0.6217 -0.7824 -0.8279
 7194TIP3   OH242996   0.085   2.187   3.014  0.6555  0.2713  0.5540
 7194TIP3    H142997   0.058   2.148   2.931  0.6210  3.5222 -1.1449
 7194TIP3    H242998   0.179   2.168   3.021  0.7625  0.3529 -0.5126
 7195TIP3   OH242999   3.074   5.276  12.698 -0.0220 -0.6144 -0.4439
 7195TIP3    H143000   3.054   5.370  12.696 -2.1086 -1.0396 -1.6272
 7195TIP3    H243001   3.127   5.261  12.620 -0.1246 -0.5064 -0.5350
 7196TIP3   OH243002   4.889   1.474  12.871  0.4751  0.2910 -0.3602
 7196TIP3    H143003   4.891   1.393  12.921 -2.0400 -0.2051 -0.9374
 7196TIP3    H243004   4.891   1.446  12.779  1.4521  0.9938 -0.5684
 7197TIP3   OH243005   3.150   6.130   4.653 -0.3626  0.2644 -0.1905
 7197TIP3    H143006   3.113   6.218   4.646 -1.0640 -0.1219 -1.5028
 7197TIP3    H243007   3.093   6.086   4.716 -0.0164  0.7330  0.4635
 7198TIP3   OH243008   5.849   2.453  12.690 -0.0100  0.3063  0.4923
 7198TIP3    H143009   5.823   2.490  12.774 -2.4031 -0.3105  0.0915
 7198TIP3    H243010   5.861   2.530  12.633  0.1620  0.6563  0.9930
 7199TIP3   OH243011   4.420   2.741   3.242  0.4074  0.6112  0.1281
 7199TIP3    H143012   4.502   2.695   3.226 -0.4777 -0.5168 -1.4016
 7199TIP3    H243013   4.416   2.807   3.173 -1.0090 -0.8754 -1.3056
 7200TIP3   OH243014   3.136   5.126  14.601  0.1130 -0.3515  0.0858
 7200TIP3    H143015   3.188   5.054  14.636 -0.4971 -1.1962 -0.6944
 7200TIP3    H243016   3.151   5.199  14.662  1.2540 -0.9302  0.5264
 7201TIP3   OH243017   2.400   3.515  12.936  0.4314 -0.3618 -0.0494
 7201TIP3    H143018   2.358   3.434  12.965  1.5144 -1.2999 -1.0116
 7201TIP3    H243019   2.335   3.583  12.954 -0.5915 -1.4606  0.5773
 7202TIP3   OH243020   4.981   6.530  12.262 -0.1908 -0.0581  0.6844
 7202TIP3    H143021   4.973   6.484  12.345 -1.0749 -0.0168  0.6370
 7202TIP3    H243022   4.969   6.461  12.196  4.3728 -0.9216  0.3914
 7203TIP3   OH243023   0.210   6.471  15.378  0.0064 -0.3671 -0.6037
 7203TIP3    H143024   0.252   6.421  15.448  0.5278 -0.2469 -0.8225
 7203TIP3    H243025   0.144   6.524  15.422 -1.4563 -2.1725 -0.5168
 7204TIP3   OH243026   5.700   2.169   3.113 -0.2262 -0.0327 -0.1965
 7204TIP3    H143027   5.685   2.085   3.069 -1.6287  1.2331 -2.3009
 7204TIP3    H243028   5.789   2.194   3.087 -0.2263 -0.3374 -0.4888
 7205TIP3   OH243029   1.112   0.508  15.156  0.6663  0.6745 -0.6158
 7205TIP3    H143030   1.106   0.535  15.064 -1.1231 -2.6997 -1.6553
 7205TIP3    H243031   1.104   0.413  15.154 -1.6417  0.5850  3.1559
 7206TIP3   OH243032   0.186   3.809  14.043 -0.2326 -0.2659 -0.0965
 7206TIP3    H143033   0.262   3.798  13.986 -0.0188  2.2541 -0.4355
 7206TIP3    H243034   0.111   3.800  13.985 -0.0784  0.2986 -0.3885
 7207TIP3   OH243035   1.486   1.334   2.660  0.1273  0.6238 -0.9241
 7207TIP3    H143036   1.537   1.342   2.579 -0.5431  0.6792 -1.3501
 7207TIP3    H243037   1.546   1.361   2.729  1.2301 -0.9488 -1.2238
 7208TIP3   OH243038   2.223   4.527   5.676 -0.4084 -0.1573  0.0465
 7208TIP3    H143039   2.141   4.574   5.697 -0.0128  0.5572  0.0387
 7208TIP3    H243040   2.284   4.597   5.651  0.6031 -0.5433  1.3275
 7209TIP3   OH243041   3.505   1.690  14.417 -0.3511 -0.2331 -0.3461
 7209TIP3    H143042   3.586   1.734  14.442 -0.9997  0.4833  0.5889
 7209TIP3    H243043   3.469   1.745  14.347 -0.6051  0.1162  0.0521
 7210TIP3   OH243044   3.967   4.387  12.326  0.3060  0.1197  0.3123
 7210TIP3    H143045   3.912   4.359  12.400  0.2218  1.3155  0.7278
 7210TIP3    H243046   4.046   4.422  12.367  1.2467 -1.2488 -0.2739
 7211TIP3   OH243047   1.613   3.023  15.558  0.3000 -0.7125 -0.0989
 7211TIP3    H143048   1.651   2.947  15.601  2.0901 -1.0295 -2.0894
 7211TIP3    H243049   1.684   3.087  15.553 -1.3674  1.5625  2.2703
 7212TIP3   OH243050   5.590   3.859  13.283 -0.2550 -0.1281  0.0787
 7212TIP3    H143051   5.604   3.954  13.284  1.2932 -0.3302 -0.6178
 7212TIP3    H243052   5.675   3.821  13.304 -0.1992 -1.3918 -2.1168
 7213TIP3   OH243053   2.639   1.101  13.108 -0.0173  0.0551 -0.1555
 7213TIP3    H143054   2.544   1.087  13.106 -0.9164  4.1503  1.9681
 7213TIP3    H243055   2.671   1.043  13.177 -1.4864  0.5080  0.9464
 7214TIP3   OH243056   1.266   0.191  15.615 -0.6549  0.2378  0.1215
 7214TIP3    H143057   1.184   0.140  15.614 -0.1990 -0.5088  0.0215
 7214TIP3    H243058   1.316   0.153  15.688 -0.2790  0.5062  0.0026
 7215TIP3   OH243059   1.853   4.641  15.309 -0.1595  0.4486  0.0919
 7215TIP3    H143060   1.870   4.550  15.334 -0.5845  0.3914  0.1838
 7215TIP3    H243061   1.918   4.692  15.357 -2.9665  0.7089  4.1650
 7216TIP3   OH243062   4.720   4.137   3.693 -0.2888 -0.2032 -0.1832
 7216TIP3    H143063   4.714   4.042   3.683  1.1540 -0.3405  0.0624
 7216TIP3    H243064   4.748   4.150   3.783 -0.0819  0.4337 -0.3337
 7217TIP3   OH243065   5.760   4.387   3.519 -0.0180  0.5294 -0.8940
 7217TIP3    H143066   5.823   4.407   3.450  0.5743 -0.8931 -0.8142
 7217TIP3    H243067   5.675   4.394   3.478  0.2467  1.3133 -1.3231
 7218TIP3   OH243068   3.983   4.188   5.724 -0.1499  0.1513  0.0373
 7218TIP3    H143069   4.001   4.145   5.640 -0.3387  0.9886 -0.4398
 7218TIP3    H243070   3.983   4.116   5.788 -4.8391 -1.4189 -1.2723
 7219TIP3   OH243071   5.913   0.208  12.702  0.0623 -0.7066  0.5344
 7219TIP3    H143072   5.893   0.243  12.789  1.4825  0.8135  0.3075
 7219TIP3    H243073   5.851   0.252  12.644 -2.2549 -3.1897  0.9091
 7220TIP3   OH243074   4.578   3.086   3.658  0.1517 -0.2401  1.0936
 7220TIP3    H143075   4.541   3.020   3.600  2.3678 -1.5795  1.0581
 7220TIP3    H243076   4.673   3.072   3.652  0.8063  3.4411  0.5449
 7221TIP3   OH243077   1.471   5.664   5.015  0.4632 -0.0275 -1.0276
 7221TIP3    H143078   1.471   5.617   4.932  0.9469  0.2259 -1.1746
 7221TIP3    H243079   1.382   5.698   5.023 -0.5462 -2.6668  0.0789
 7222TIP3   OH243080   4.155   6.725  13.062  0.4240 -0.0652  0.3926
 7222TIP3    H143081   4.096   6.779  13.010 -1.8483 -2.0697  0.6729
 7222TIP3    H243082   4.219   6.786  13.097  0.2894  1.8013 -2.3179
 7223TIP3   OH243083   1.914   0.931  16.316  0.0060 -0.2568  0.2938
 7223TIP3    H143084   1.877   1.016  16.295 -1.9298 -1.2833 -0.7879
 7223TIP3    H243085   1.991   0.923  16.259 -1.0358 -0.0809 -1.1783
 7224TIP3   OH243086   0.984   6.067  14.901  0.1452  0.7767 -0.5305
 7224TIP3    H143087   0.969   6.097  14.990  1.0644  1.4590 -0.5957
 7224TIP3    H243088   1.062   6.012  14.906 -2.2721 -3.0106 -0.1404
 7225TIP3   OH243089   1.270   1.157   2.687  0.5867  0.1104 -0.4350
 7225TIP3    H143090   1.344   1.215   2.667  0.2538  0.8766  0.4889
 7225TIP3    H243091   1.193   1.205   2.657  0.3475 -0.0725 -0.1241
 7226TIP3   OH243092   3.305   5.134  10.985  0.5054 -0.9083 -0.2995
 7226TIP3    H143093   3.342   5.150  10.898 -0.3730  0.2262 -0.4966
 7226TIP3    H243094   3.265   5.047  10.979  0.0829 -0.6695 -1.1784
 7227TIP3   OH243095   4.237   4.084   2.980 -0.5237  0.2026 -0.9047
 7227TIP3    H143096   4.297   4.109   2.910 -0.2213 -0.1017 -0.7543
 7227TIP3    H243097   4.287   4.023   3.034 -0.1116  1.7989  0.6154
 7228TIP3   OH243098   6.369   4.381  11.209  0.1804 -0.1080 -0.3102
 7228TIP3    H143099   6.373   4.476  11.200  0.4460  0.0873  1.5054
 7228TIP3    H243100   6.316   4.352  11.136  0.0471  1.4432 -0.8654
 7229TIP3   OH243101   1.501   1.238   4.304 -0.4905  0.1993  0.5324
 7229TIP3    H143102   1.573   1.175   4.304 -0.3175  0.3859 -0.2868
 7229TIP3    H243103   1.448   1.214   4.229 -0.7307  0.6836  0.5442
 7230TIP3   OH243104   1.127   2.583  13.713  0.0243  0.0534 -0.2386
 7230TIP3    H143105   1.086   2.501  13.686  0.7627 -0.3241 -0.2560
 7230TIP3    H243106   1.221   2.565  13.707  0.1917  0.6651  0.4965
 7231TIP3   OH243107   2.750   3.331  16.301 -0.4388 -0.1456 -0.2953
 7231TIP3    H143108   2.656   3.312  16.297 -0.5237  0.3568 -2.5446
 7231TIP3    H243109   2.754   3.423  16.325 -0.5605 -0.0882 -0.4832
 7232TIP3   OH243110   5.320   0.224   3.832 -0.2721  0.7705 -0.0292
 7232TIP3    H143111   5.246   0.178   3.793 -1.4946  1.6445  1.1835
 7232TIP3    H243112   5.316   0.201   3.925  3.4088 -2.4190 -0.3837
 7233TIP3   OH243113   2.223   0.778   4.095 -0.0744 -0.1924 -0.5501
 7233TIP3    H143114   2.219   0.869   4.124 -1.5178 -1.2995  3.3465
 7233TIP3    H243115   2.316   0.758   4.090  0.2571  1.1013  0.0355
 7234TIP3   OH243116   5.755   5.527   3.863  0.2252  0.4248 -0.2995
 7234TIP3    H143117   5.735   5.621   3.868 -0.5086  0.2233  1.3902
 7234TIP3    H243118   5.732   5.494   3.950  1.9798 -1.0377 -0.3452
 7235TIP3   OH243119   0.605   1.993   3.078 -0.4014 -0.1314 -0.0423
 7235TIP3    H143120   0.586   2.084   3.100 -1.0303 -0.3735  0.4353
 7235TIP3    H243121   0.566   1.942   3.149  2.9473 -0.6535  1.6158
 7236TIP3   OH243122   2.786   1.788   4.638  0.2473 -0.6650 -0.2742
 7236TIP3    H143123   2.870   1.829   4.659 -0.9103  1.6076  0.2700
 7236TIP3    H243124   2.776   1.718   4.702  0.9888  0.1429  0.7534
 7237TIP3   OH243125   1.559   0.770   1.393 -0.2528  0.3519 -0.4898
 7237TIP3    H143126   1.610   0.840   1.435  1.2014 -0.9648  0.0216
 7237TIP3    H243127   1.468   0.788   1.418  0.3096  0.9705  1.2544
 7238TIP3   OH243128   1.706   1.659   0.058 -0.5201 -0.2394 -0.1740
 7238TIP3    H143129   1.720   1.737   0.113 -2.4103  0.5068 -0.6774
 7238TIP3    H243130   1.698   1.587   0.121 -1.3791  0.4007  0.4710
 7239TIP3   OH243131   4.181   1.496   2.102 -0.3067 -0.2999 -0.1520
 7239TIP3    H143132   4.119   1.533   2.040  1.2655  0.6721 -1.2260
 7239TIP3    H243133   4.214   1.417   2.060  1.2435  0.7071 -0.9127
 7240TIP3   OH243134   0.664   6.087   4.798 -0.1001 -0.0539 -0.2125
 7240TIP3    H143135   0.737   6.027   4.788  0.3672  0.5291 -0.3368
 7240TIP3    H243136   0.643   6.085   4.892  1.1552  1.0136  0.1244
 7241TIP3   OH243137   0.940   3.393   3.657  0.2672 -0.1533  0.3592
 7241TIP3    H143138   1.010   3.367   3.598 -0.0191  0.0426 -0.0656
 7241TIP3    H243139   0.865   3.409   3.600 -0.0352 -0.0561  0.7820
 7242TIP3   OH243140   5.816   4.640   1.106  0.0268  0.3826 -0.7531
 7242TIP3    H143141   5.845   4.665   1.194  0.6319 -3.7829  0.4509
 7242TIP3    H243142   5.730   4.600   1.119 -0.5076  0.9582 -2.3085
 7243TIP3   OH243143   6.012   3.853   2.518  0.5616  0.1813  0.2073
 7243TIP3    H143144   5.924   3.886   2.532  0.1640 -0.2145 -1.1877
 7243TIP3    H243145   6.002   3.758   2.515  0.3089  0.1781 -3.7957
 7244TIP3   OH243146   4.300   0.369   2.203 -0.2122  0.4768  0.2941
 7244TIP3    H143147   4.342   0.392   2.286  0.1365 -1.2615  0.6433
 7244TIP3    H243148   4.224   0.427   2.198  0.9223  2.0676  0.7783
 7245TIP3   OH243149   3.103   5.471  13.527 -0.6708 -0.9887  0.6520
 7245TIP3    H143150   3.165   5.399  13.538  0.0461 -0.5407 -0.3360
 7245TIP3    H243151   3.122   5.531  13.600 -0.4764 -1.2292  0.7979
 7246TIP3   OH243152   4.911   6.042   0.617  0.3673  0.0183 -0.0202
 7246TIP3    H143153   4.868   6.122   0.648 -0.8264 -0.3171 -0.7454
 7246TIP3    H243154   5.004   6.056   0.634  0.0705  1.1621  0.7363
 7247TIP3   OH243155   0.160   6.004  14.393  0.4398 -0.6356 -0.2381
 7247TIP3    H143156   0.204   5.934  14.343  1.5251  1.7807 -2.9458
 7247TIP3    H243157   0.080   6.021  14.345 -0.3812 -0.7048  1.0536
 7248TIP3   OH243158   4.926   5.723  14.248 -0.7845  0.6746 -0.0738
 7248TIP3    H143159   4.966   5.777  14.180 -0.5370  0.7671  0.1400
 7248TIP3    H243160   4.972   5.639  14.242 -1.0710  0.5346 -0.3137
 7249TIP3   OH243161   6.780   5.750   5.074  0.1985 -0.1515 -0.0944
 7249TIP3    H143162   6.696   5.715   5.043 -0.4029  1.5978 -0.5591
 7249TIP3    H243163   6.825   5.674   5.110 -1.1033 -1.3552 -0.8745
 7250TIP3   OH243164   3.609   6.334   2.413  0.2791  0.3355 -0.7131
 7250TIP3    H143165   3.660   6.253   2.418 -0.7757 -0.4882 -2.3761
 7250TIP3    H243166   3.640   6.377   2.333  4.0154  3.9515  2.2387
 7251TIP3   OH243167   1.504   5.037   0.820 -0.1160 -0.5995  0.1662
 7251TIP3    H143168   1.445   5.109   0.799  0.7643 -0.3926 -1.7929
 7251TIP3    H243169   1.588   5.061   0.780  0.5495 -2.1222  0.5413
 7252TIP3   OH243170   3.575   3.968  13.990  0.2435 -0.4236  0.1955
 7252TIP3    H143171   3.545   3.902  14.053  0.7892 -0.9218 -0.0507
 7252TIP3    H243172   3.665   3.987  14.017  0.7261 -1.1528 -0.8209
 7253TIP3   OH243173   0.946   4.351   2.847  0.1519 -0.3250 -0.1742
 7253TIP3    H143174   0.891   4.422   2.879  0.2625  0.3064 -1.3400
 7253TIP3    H243175   1.017   4.394   2.800  0.3817 -1.2018 -0.6651
 7254TIP3   OH243176   4.520   5.033  11.040 -0.0579  0.2313 -0.4292
 7254TIP3    H143177   4.542   4.942  11.023  0.9322  0.3349  0.2525
 7254TIP3    H243178   4.474   5.062  10.960  1.4298 -0.2726 -1.5005
 7255TIP3   OH243179   0.009   5.561  13.118 -0.4163  0.9430  0.2732
 7255TIP3    H143180   0.008   5.466  13.109 -0.4099  0.7317  2.1252
 7255TIP3    H243181  -0.044   5.593  13.044 -1.5636 -0.5820  0.3925
 7256TIP3   OH243182   1.618   4.193   2.183  0.4473 -0.0979  0.0830
 7256TIP3    H143183   1.564   4.160   2.254  1.2338  1.1097  1.2883
 7256TIP3    H243184   1.583   4.151   2.104 -2.1476  0.5047  0.8133
 7257TIP3   OH243185   1.209   6.623   3.002 -0.6295  0.3242  0.4196
 7257TIP3    H143186   1.136   6.683   2.988 -0.2559  0.6207 -0.2482
 7257TIP3    H243187   1.168   6.536   2.999 -0.8745  0.4609 -0.5224
 7258TIP3   OH243188   3.717   1.828   0.341  0.0187  0.0613  0.2530
 7258TIP3    H143189   3.725   1.798   0.431 -1.0479  0.3959  0.4755
 7258TIP3    H243190   3.664   1.761   0.297  0.2714  0.0549 -0.0517
 7259TIP3   OH243191   3.123   5.069   0.784  0.6050 -0.1078  0.0294
 7259TIP3    H143192   3.029   5.060   0.769  0.7049 -0.7464 -0.2236
 7259TIP3    H243193   3.157   5.108   0.703  0.8898 -1.9919 -0.8020
 7260TIP3   OH243194   4.593   4.655   2.601 -0.0395 -0.3459  0.4386
 7260TIP3    H143195   4.554   4.575   2.568 -2.7354  0.6548  0.9153
 7260TIP3    H243196   4.599   4.713   2.525 -2.4718  0.5379  0.8156
 7261TIP3   OH243197   6.038   3.511   0.626 -0.5257 -0.2401 -0.3184
 7261TIP3    H143198   6.066   3.497   0.535 -0.5078  0.8837 -0.5065
 7261TIP3    H243199   5.944   3.530   0.619  0.0008  2.9605 -0.5227
 7262TIP3   OH243200   6.215   1.619   2.854  0.2931  0.5158 -0.4499
 7262TIP3    H143201   6.197   1.691   2.915 -0.3066 -0.1997  0.2338
 7262TIP3    H243202   6.268   1.558   2.904  0.4623  0.2866 -0.9024
 7263TIP3   OH243203   4.441   6.423  11.190 -0.1864 -0.8511  0.4494
 7263TIP3    H143204   4.350   6.452  11.194  0.2387  0.3715  1.8697
 7263TIP3    H243205   4.478   6.444  11.276  1.7165 -0.3927 -0.4158
 7264TIP3   OH243206   0.136   3.751   0.156  0.1477 -0.1030  0.4006
 7264TIP3    H143207   0.137   3.749   0.252 -0.3790 -1.5632  0.3969
 7264TIP3    H243208   0.229   3.749   0.131  0.2663 -0.7406  0.8741
 7265TIP3   OH243209   6.344   0.071  15.793 -0.6136  0.0847  0.3033
 7265TIP3    H143210   6.322  -0.020  15.811  0.8061 -0.5076 -0.7997
 7265TIP3    H243211   6.264   0.107  15.754 -1.6683 -0.2511  2.0546
 7266TIP3   OH243212   1.460   0.876   3.468  0.4148 -0.0340 -0.3815
 7266TIP3    H143213   1.525   0.945   3.483 -0.7297  0.5431  2.7381
 7266TIP3    H243214   1.511   0.797   3.453  1.7660  0.9408 -1.1222
 7267TIP3   OH243215   3.145   4.595  13.835 -0.1808 -0.1954  0.3530
 7267TIP3    H143216   3.122   4.539  13.908  2.4144  0.8346  2.1188
 7267TIP3    H243217   3.139   4.538  13.758 -0.5384 -2.0282  1.6812
 7268TIP3   OH243218   4.071   6.665  13.709  0.2153  0.4796 -0.3883
 7268TIP3    H143219   4.090   6.620  13.627  0.6226  1.3814 -0.7985
 7268TIP3    H243220   4.027   6.599  13.763 -0.0930 -0.1113 -1.3426
 7269TIP3   OH243221   5.912   0.755   5.064 -0.1391  0.1101  0.1944
 7269TIP3    H143222   5.877   0.841   5.090 -0.6050 -0.4463  1.4796
 7269TIP3    H243223   5.835   0.704   5.040 -0.1731 -0.8319  2.1610
 7270TIP3   OH243224   1.411   1.114  16.520 -0.0113 -0.1245 -0.0658
 7270TIP3    H143225   1.322   1.114  16.557  0.4611  0.4766  1.1142
 7270TIP3    H243226   1.427   1.023  16.496 -0.4120 -0.5069  1.0459
 7271TIP3   OH243227   6.190   1.791  12.996  0.1763  0.3655  0.1868
 7271TIP3    H143228   6.212   1.879  12.965 -1.4835 -0.0317 -2.4111
 7271TIP3    H243229   6.131   1.756  12.929  0.4730 -2.6005  1.3280
 7272TIP3   OH243230   2.869   0.424   3.233 -0.3580  0.3142  0.3535
 7272TIP3    H143231   2.862   0.518   3.217 -0.1369  0.0725 -1.4127
 7272TIP3    H243232   2.936   0.417   3.301 -1.8639  1.5022  2.0621
 7273TIP3   OH243233   6.684   1.762   5.810 -0.3851  0.4519  0.3065
 7273TIP3    H143234   6.744   1.754   5.737 -0.3636 -1.4779  0.4819
 7273TIP3    H243235   6.721   1.832   5.864  1.5320 -0.4448  0.2407
 7274TIP3   OH243236   3.884   2.148   4.454  0.8968  0.5483  0.0765
 7274TIP3    H143237   3.854   2.239   4.458 -0.8259  0.0228 -0.4063
 7274TIP3    H243238   3.845   2.107   4.531  2.7492  0.4760  1.0463
 7275TIP3   OH243239   6.442   4.622  10.936  0.1022 -0.4721  0.4973
 7275TIP3    H143240   6.444   4.716  10.949  3.5120 -0.2965 -0.2517
 7275TIP3    H243241   6.519   4.589  10.983  0.7970 -2.4130 -1.7815
 7276TIP3   OH243242   5.588   6.646  15.227 -0.0173  0.3913  0.5171
 7276TIP3    H143243   5.638   6.568  15.252 -1.2002 -0.2460  0.9825
 7276TIP3    H243244   5.627   6.674  15.144  1.4866  0.2838  1.1494
 7277TIP3   OH243245   0.394   2.184  16.200 -0.2605 -0.2643 -0.1065
 7277TIP3    H143246   0.418   2.091  16.195 -1.3008 -0.6624  1.4448
 7277TIP3    H243247   0.308   2.188  16.159  0.5721  0.4098 -1.9129
 7278TIP3   OH243248   2.819   5.221   1.511  0.2530  0.7471 -0.0339
 7278TIP3    H143249   2.867   5.164   1.572  0.0530  0.7585  0.1353
 7278TIP3    H243250   2.739   5.173   1.491  1.9556 -1.0662 -3.3137
 7279TIP3   OH243251   0.167   0.363  16.450  0.1713  0.0875  0.1347
 7279TIP3    H143252   0.206   0.321  16.373  1.1806  0.9246  0.1577
 7279TIP3    H243253   0.199   0.312  16.524 -0.0398 -0.1622  0.0517
 7280TIP3   OH243254   1.350   5.556  12.777 -0.0341  0.0561 -0.1909
 7280TIP3    H143255   1.381   5.637  12.817  0.5780  0.0086 -0.5571
 7280TIP3    H243256   1.417   5.535  12.711 -0.1906 -0.7432 -0.0972
 7281TIP3   OH243257   2.685   5.611   5.041 -0.2636  0.2552 -0.2023
 7281TIP3    H143258   2.658   5.562   4.963  0.7702 -1.8056  0.6400
 7281TIP3    H243259   2.771   5.647   5.018 -0.1226 -0.0432 -0.1482
 7282TIP3   OH243260   3.394   0.444  11.153 -0.2233  1.0332  0.3630
 7282TIP3    H143261   3.481   0.407  11.165  0.0438  1.9419  1.3523
 7282TIP3    H243262   3.372   0.426  11.062  0.8528  0.5047  0.1991
 7283TIP3   OH243263   2.176   6.466   0.462 -0.6499 -0.1108 -0.2808
 7283TIP3    H143264   2.126   6.528   0.514 -0.9546  0.8172 -1.6370
 7283TIP3    H243265   2.174   6.501   0.373  2.3313 -0.0874 -0.4291
 7284TIP3   OH243266   0.266   6.782   1.328  0.0774  0.3517 -0.0230
 7284TIP3    H143267   0.330   6.826   1.273 -1.7969  1.2118 -1.6522
 7284TIP3    H243268   0.182   6.799   1.285 -1.0269 -2.6979  0.6632
 7285TIP3   OH243269   0.145   3.227  13.629  0.1758 -0.0417  0.3624
 7285TIP3    H143270   0.179   3.156  13.575  0.2792 -0.0518  0.4411
 7285TIP3    H243271   0.150   3.194  13.718  0.0404 -0.0102  0.3816
 7286TIP3   OH243272   1.509   5.249  14.947 -0.6313  0.0748  0.1545
 7286TIP3    H143273   1.535   5.175  15.001 -1.5167 -0.3519  0.0012
 7286TIP3    H243274   1.526   5.220  14.857 -0.8702  0.1093  0.0996
 7287TIP3   OH243275   1.052   4.898   1.393  0.0941  0.1442  0.5284
 7287TIP3    H143276   1.082   4.904   1.484  0.0099  0.1461  0.5568
 7287TIP3    H243277   0.993   4.822   1.393  1.6821 -1.1430  0.0263
 7288TIP3   OH243278   4.185   6.299   2.806  0.2880 -0.1667  0.3241
 7288TIP3    H143279   4.149   6.291   2.894  0.2445 -1.2822  0.2151
 7288TIP3    H243280   4.152   6.223   2.759  1.1854 -0.1567 -0.3496
 7289TIP3   OH243281   3.096   5.416  13.902 -0.7805 -0.1648 -0.3999
 7289TIP3    H143282   3.021   5.468  13.930 -0.9699 -0.8770  0.4760
 7289TIP3    H243283   3.061   5.357  13.835 -0.5182  0.9531 -1.5514
 7290TIP3   OH243284   5.216   2.225   5.184  0.2468 -0.0291 -0.1023
 7290TIP3    H143285   5.146   2.161   5.197  0.1671 -0.0288 -0.5089
 7290TIP3    H243286   5.291   2.189   5.231  0.1335 -0.3028 -0.1290
 7291TIP3   OH243287   5.871   4.076   6.198 -0.3105 -0.5526  0.3229
 7291TIP3    H143288   5.801   4.117   6.249 -1.2457  0.0342 -1.3494
 7291TIP3    H243289   5.951   4.122   6.225 -0.7252 -0.4589  1.4392
 7292TIP3   OH243290   6.047   5.249  14.103  0.1310  0.4832  0.1148
 7292TIP3    H143291   6.000   5.170  14.127  0.6693  0.0276 -0.3110
 7292TIP3    H243292   6.132   5.242  14.147  1.4306 -0.7248 -2.4032
 7293TIP3   OH243293   0.163   0.956  15.921 -0.2643 -0.1263 -0.0374
 7293TIP3    H143294   0.174   1.030  15.981 -0.6189 -0.3663  0.3284
 7293TIP3    H243295   0.074   0.926  15.937  0.1923 -1.2441  0.5219
 7294TIP3   OH243296   2.417   1.532  11.752  0.2756 -0.4432 -0.2348
 7294TIP3    H143297   2.375   1.558  11.835  0.6541 -0.6782  0.0314
 7294TIP3    H243298   2.355   1.560  11.685  0.1177  0.0583  0.1117
 7295TIP3   OH243299   5.080   3.434   2.373 -1.1519  0.3321 -0.9153
 7295TIP3    H143300   5.045   3.518   2.344  0.1822  2.0129  1.9266
 7295TIP3    H243301   5.105   3.448   2.464  3.3311 -1.7541 -1.5353
 7296TIP3   OH243302   3.598   4.249  15.095  0.1343 -0.3667  0.0408
 7296TIP3    H143303   3.541   4.319  15.063  0.3426  0.3589  1.1794
 7296TIP3    H243304   3.647   4.220  15.018  0.0877  0.7970 -0.4467
 7297TIP3   OH243305   2.246   2.615   5.685  0.1265  0.2552  0.5679
 7297TIP3    H143306   2.305   2.673   5.636  0.7073 -1.2914 -0.6484
 7297TIP3    H243307   2.160   2.657   5.678  0.2448  0.2440 -1.5874
 7298TIP3   OH243308   6.736   1.357  11.716 -0.3569 -0.2060 -0.5210
 7298TIP3    H143309   6.722   1.302  11.639  0.2071  0.6636 -1.2679
 7298TIP3    H243310   6.806   1.313  11.764  0.4703  0.1142 -1.3907
 7299TIP3   OH243311   0.157   6.719   6.621 -0.0409  0.2409  0.0865
 7299TIP3    H143312   0.078   6.720   6.567  1.1428  0.6056 -1.7215
 7299TIP3    H243313   0.129   6.755   6.706 -2.2693 -1.6544  0.2497
 7300TIP3   OH243314   4.896   1.456  15.729 -0.1990  0.3770  0.3935
 7300TIP3    H143315   4.945   1.375  15.722  1.6284  1.5332 -1.0076
 7300TIP3    H243316   4.961   1.522  15.755 -0.8745  2.0425 -1.8399
 7301TIP3   OH243317   2.891   3.455  11.577 -0.0313  0.3029 -0.4453
 7301TIP3    H143318   2.900   3.499  11.662 -0.9584 -1.3227  0.5462
 7301TIP3    H243319   2.903   3.525  11.513  0.7779  1.5702  1.0080
 7302TIP3   OH243320   1.175   2.994   0.079  0.3464  0.0406  0.6322
 7302TIP3    H143321   1.253   3.046   0.099  0.8691 -0.3397 -0.3776
 7302TIP3    H243322   1.130   3.044   0.010 -0.6414  0.5658  1.6130
 7303TIP3   OH243323   5.978   5.501   5.209  0.3270 -0.3740  0.2825
 7303TIP3    H143324   5.961   5.585   5.252 -0.6409 -0.6126  0.3829
 7303TIP3    H243325   5.904   5.446   5.234  0.3822 -0.9102 -0.6948
 7304TIP3   OH243326   5.003   2.959  14.293  0.3066 -0.6144  0.1686
 7304TIP3    H143327   5.003   2.950  14.198 -3.1280  0.8612 -0.0934
 7304TIP3    H243328   5.004   3.054  14.309  1.2955 -0.8313  1.6549
 7305TIP3   OH243329   3.826   4.956   6.139  0.4577 -0.0250  0.2549
 7305TIP3    H143330   3.730   4.951   6.141  0.0888  4.0894  1.9736
 7305TIP3    H243331   3.853   4.904   6.215 -0.3144 -1.3351 -0.3125
 7306TIP3   OH243332   4.780   3.754  15.073  0.2336 -0.0059  0.2502
 7306TIP3    H143333   4.863   3.781  15.033  0.6843 -0.2447  0.9879
 7306TIP3    H243334   4.718   3.750  15.001  0.4662  1.6926 -0.0885
 7307TIP3   OH243335   3.270   3.023   2.848  0.3000  0.2121 -0.6090
 7307TIP3    H143336   3.301   3.075   2.923  2.9203  1.3800 -2.3367
 7307TIP3    H243337   3.216   2.954   2.887  2.3895  0.1125  2.4695
 7308TIP3   OH243338   1.861   3.133   2.878  0.7267 -0.3426  0.1934
 7308TIP3    H143339   1.865   3.148   2.783 -1.2716  0.5420  0.1941
 7308TIP3    H243340   1.895   3.045   2.890  1.9598 -0.0933 -1.2256
 7309TIP3   OH243341   4.691   0.788  13.986 -0.2817 -0.5524  0.4299
 7309TIP3    H143342   4.632   0.813  14.057 -3.0063 -0.0466 -1.8345
 7309TIP3    H243343   4.721   0.700  14.010  0.6212  0.3961  3.1605
 7310TIP3   OH243344   4.043   6.056  10.724  0.2821 -0.9217 -0.0877
 7310TIP3    H143345   3.951   6.035  10.742 -0.1222  1.4457  0.9686
 7310TIP3    H243346   4.065   6.005  10.646 -1.7602 -1.9028 -0.0810
 7311TIP3   OH243347   2.989   3.257  15.320  0.5717  0.5685 -0.9563
 7311TIP3    H143348   3.072   3.209  15.319  0.3745  0.2278 -1.5132
 7311TIP3    H243349   2.923   3.190  15.303  0.0074  0.5419  1.0489
 7312TIP3   OH243350   6.056   3.968   0.967 -0.0855 -0.0037 -0.0097
 7312TIP3    H143351   6.024   3.884   0.934  0.2786  0.3378 -1.2914
 7312TIP3    H243352   5.997   4.033   0.928  0.0850  0.3832  0.3757
 7313TIP3   OH243353   0.296   2.949  15.853  0.3716 -0.1819  0.2120
 7313TIP3    H143354   0.252   2.924  15.771 -1.1830  1.0640  0.6154
 7313TIP3    H243355   0.382   2.908  15.847  0.3325 -0.0998 -2.0766
 7314TIP3   OH243356   6.259   0.612  17.179 -0.1674 -0.3750  0.3719
 7314TIP3    H143357   6.335   0.566  17.215  0.1505  0.0183  0.2147
 7314TIP3    H243358   6.216   0.651  17.256  0.0289 -0.2406  0.4121
 7315TIP3   OH243359   2.497   5.259   5.725 -0.4469 -0.3347 -0.1217
 7315TIP3    H143360   2.591   5.245   5.718 -0.1790  1.4049 -0.3202
 7315TIP3    H243361   2.480   5.258   5.819 -0.3488 -1.2952 -0.1078
 7316TIP3   OH243362   3.929   2.495   2.701 -0.4560 -0.2555  0.4833
 7316TIP3    H143363   3.888   2.423   2.654  0.4980 -0.2256 -0.4217
 7316TIP3    H243364   3.864   2.521   2.766 -0.1671 -3.0579  2.0482
 7317TIP3   OH243365   5.975   6.650  15.184 -0.1856  0.2266 -0.2620
 7317TIP3    H143366   5.982   6.565  15.139 -1.8477  1.0690 -2.2618
 7317TIP3    H243367   6.034   6.642  15.259  0.0428 -2.5332 -0.6326
 7318TIP3   OH243368   6.768   1.205   1.582  0.2393  0.1088 -0.0563
 7318TIP3    H143369   6.700   1.234   1.522  0.6118 -0.6732 -0.8822
 7318TIP3    H243370   6.726   1.139   1.638  0.4078 -0.6691 -0.8313
 7319TIP3   OH243371   4.811   1.553  13.732 -0.1262  0.4138  0.2568
 7319TIP3    H143372   4.772   1.638  13.752  1.1500  1.2389 -0.6327
 7319TIP3    H243373   4.871   1.570  13.659 -1.5139 -1.6828 -1.4857
 7320TIP3   OH243374   1.874   5.686  12.721  0.0643 -0.3087  0.3618
 7320TIP3    H143375   1.883   5.606  12.773 -1.4437 -1.0342 -0.4312
 7320TIP3    H243376   1.921   5.752  12.771  0.8576 -1.5532  1.3313
 7321TIP3   OH243377   0.460   1.403   3.660 -0.4985  0.1448  0.9928
 7321TIP3    H143378   0.404   1.369   3.590  0.2332 -1.4940  1.1503
 7321TIP3    H243379   0.412   1.384   3.741  1.1437 -3.5588  1.3526
 7322TIP3   OH243380   2.483   6.390   4.329 -0.4541 -0.1330  0.1271
 7322TIP3    H143381   2.442   6.358   4.248 -0.5982 -0.0419  0.1631
 7322TIP3    H243382   2.532   6.315   4.362  0.3708  0.1002 -0.5294
 7323TIP3   OH243383   3.703   2.145  13.468 -0.4906 -0.0977 -0.3641
 7323TIP3    H143384   3.703   2.129  13.562 -0.9585 -0.5533 -0.4379
 7323TIP3    H243385   3.690   2.058  13.429 -2.8941  0.4031 -0.7820
 7324TIP3   OH243386   5.582   2.744  12.077  0.0520  0.4528  0.2232
 7324TIP3    H143387   5.574   2.809  12.007 -0.3819 -0.8825 -1.0268
 7324TIP3    H243388   5.587   2.660  12.030  1.1723 -0.3716  1.7521
 7325TIP3   OH243389   1.471   6.717   4.479  0.0879  0.3785  1.4115
 7325TIP3    H143390   1.433   6.636   4.444 -0.2438  0.6168  1.2036
 7325TIP3    H243391   1.529   6.749   4.410 -1.3146  1.3654  0.6339
 7326TIP3   OH243392   5.398   5.486   1.783 -0.0743  0.1611 -0.0932
 7326TIP3    H143393   5.365   5.573   1.760 -1.1237 -0.7472 -2.3189
 7326TIP3    H243394   5.320   5.433   1.796  0.5315 -0.7255  0.0297
 7327TIP3   OH243395   1.336   0.734  14.034  0.0923  0.4858 -0.0902
 7327TIP3    H143396   1.273   0.789  13.987 -0.1041 -0.3462 -0.8213
 7327TIP3    H243397   1.285   0.659  14.064  0.0624  1.3098  2.0777
 7328TIP3   OH243398   5.961   3.372   2.201 -0.3356  0.7086  0.7879
 7328TIP3    H143399   5.879   3.379   2.250 -1.6643 -1.3773 -0.9452
 7328TIP3    H243400   5.966   3.453   2.150 -0.4175  1.5994  2.1537
 7329TIP3   OH243401   0.001   0.808   5.546 -0.0578  0.1942 -0.2374
 7329TIP3    H143402  -0.027   0.818   5.637  0.2464  0.1189 -0.1359
 7329TIP3    H243403   0.035   0.894   5.522  0.3373  0.0700 -0.1194
 7330TIP3   OH243404   1.636   1.863  14.588 -0.0069  0.6489 -0.3788
 7330TIP3    H143405   1.596   1.778  14.572  0.5612 -0.4328  3.0467
 7330TIP3    H243406   1.589   1.897  14.665  1.8811  1.9072  0.2967
 7331TIP3   OH243407   0.458   5.908  12.999 -0.1167  0.2195 -0.4674
 7331TIP3    H143408   0.521   5.979  12.989  0.1421  0.0293 -0.2033
 7331TIP3    H243409   0.426   5.891  12.911 -1.1796  1.5640 -0.3900
 7332TIP3   OH243410   0.128   2.747  17.142  0.1915 -0.1802  0.2929
 7332TIP3    H143411   0.174   2.667  17.169  0.2978 -0.3185 -0.2868
 7332TIP3    H243412   0.068   2.765  17.214 -1.7338 -2.2604 -0.6571
 7333TIP3   OH243413   4.636   5.740  11.151 -0.4036  0.1807  0.5990
 7333TIP3    H143414   4.601   5.756  11.064  0.8292  3.8349  0.5871
 7333TIP3    H243415   4.728   5.716  11.137  0.4118  2.7900  0.7483
 7334TIP3   OH243416   0.837   6.079   6.068 -0.9827  0.2266  0.3471
 7334TIP3    H143417   0.780   6.024   6.014 -0.6044 -1.3946  1.5093
 7334TIP3    H243418   0.783   6.100   6.145 -0.2764 -0.8011  1.1606
 7335TIP3   OH243419   1.216   4.922  15.625 -0.3914 -0.2479  0.2771
 7335TIP3    H143420   1.248   4.958  15.542  1.5593 -0.6143  0.8028
 7335TIP3    H243421   1.243   4.986  15.690  1.5768 -1.7273  1.0222
 7336TIP3   OH243422   1.328   4.528  15.109 -0.1923 -0.2176 -0.1417
 7336TIP3    H143423   1.323   4.489  15.022 -1.5760  1.5563 -0.9207
 7336TIP3    H243424   1.311   4.621  15.094  0.5962  0.3068  1.9116
 7337TIP3   OH243425   3.781   4.713  16.886 -0.4720  0.5852 -0.0630
 7337TIP3    H143426   3.726   4.664  16.825  0.0179 -0.0935  0.0275
 7337TIP3    H243427   3.747   4.690  16.972  0.5805 -0.6685  0.0521
 7338TIP3   OH243428   6.626   6.634  16.685  0.1358  0.6809  0.0201
 7338TIP3    H143429   6.669   6.553  16.658 -0.4418  0.5660 -0.5991
 7338TIP3    H243430   6.660   6.700  16.625  1.2808  1.1017  1.0868
 7339TIP3   OH243431   0.274   2.209   5.218 -0.5597 -0.1947  0.8471
 7339TIP3    H143432   0.230   2.294   5.222 -1.8250 -0.3149 -4.2386
 7339TIP3    H243433   0.221   2.151   5.273 -1.8325  1.4817  1.4422
 7340TIP3   OH243434   5.111   2.199   0.677  0.6079 -0.0238  0.2703
 7340TIP3    H143435   5.154   2.222   0.759  2.1828  1.2506 -0.8323
 7340TIP3    H243436   5.035   2.257   0.672  1.1901  0.7605  0.2991
 7341TIP3   OH243437   0.469   3.903  12.175  0.8161  0.1565 -0.0299
 7341TIP3    H143438   0.428   3.821  12.148  1.0825 -0.2019  0.6419
 7341TIP3    H243439   0.561   3.895  12.149  0.9767 -0.0110  0.5624
 7342TIP3   OH243440   6.061   6.040  10.459  0.0019  0.5388  0.7543
 7342TIP3    H143441   6.140   5.999  10.425 -0.3339 -0.3302  1.0038
 7342TIP3    H243442   5.993   6.018  10.394  0.0660  1.7391  0.2540
 7343TIP3   OH243443   4.237   4.665  14.500 -0.2464 -0.4498  0.8636
 7343TIP3    H143444   4.322   4.641  14.535  0.3622 -1.8566 -1.4037
 7343TIP3    H243445   4.232   4.760  14.511  0.9061 -0.5248  2.3964
 7344TIP3   OH243446   0.898   3.073  10.654  0.0430 -0.2237  0.0355
 7344TIP3    H143447   0.929   3.163  10.640  0.7714 -0.2459  1.2715
 7344TIP3    H243448   0.815   3.083  10.700  0.6365 -0.1611  1.1301
 7345TIP3   OH243449   4.499   3.023   5.204 -0.5704 -0.0782  0.0226
 7345TIP3    H143450   4.489   2.931   5.181 -1.5676 -0.2191  0.9398
 7345TIP3    H243451   4.411   3.053   5.225 -0.2218  1.0147  0.0058
 7346TIP3   OH243452   4.709   5.227  14.391  0.1043 -0.1558 -0.2601
 7346TIP3    H143453   4.757   5.195  14.467  0.0865 -0.8141 -0.5188
 7346TIP3    H243454   4.654   5.298  14.425  0.2137 -0.3409  0.3067
 7347TIP3   OH243455   0.856   1.301  17.136 -0.2932  0.7381  0.4939
 7347TIP3    H143456   0.854   1.233  17.068 -0.2026  1.0024  0.2222
 7347TIP3    H243457   0.765   1.330  17.143 -0.4067  0.2630  0.9429
 7348TIP3   OH243458   1.085   5.677   2.131 -0.4490  0.0211  0.4249
 7348TIP3    H143459   0.998   5.656   2.097  0.8382 -1.2306 -2.4817
 7348TIP3    H243460   1.133   5.595   2.124  2.1026  1.5473 -2.1581
 7349TIP3   OH243461   5.342   5.426   0.092  0.0752  0.5696  0.0211
 7349TIP3    H143462   5.369   5.336   0.111 -0.4355  0.2583 -0.6674
 7349TIP3    H243463   5.414   5.480   0.123  1.0426 -0.1722 -0.8750
 7350TIP3   OH243464   3.782   0.526   5.493  0.1054  0.2318  0.2021
 7350TIP3    H143465   3.770   0.523   5.588 -4.6977 -0.8414 -0.1877
 7350TIP3    H243466   3.762   0.616   5.468  1.4426  0.5352  0.1382
 7351TIP3   OH243467   3.069   5.771   2.908 -0.3004 -0.1533 -0.1280
 7351TIP3    H143468   3.038   5.827   2.980 -0.6966  0.7355 -0.9690
 7351TIP3    H243469   3.009   5.697   2.908 -1.3613  0.6761 -0.6019
 7352TIP3   OH243470   0.840   2.055  15.652  0.8896 -0.3637 -0.2902
 7352TIP3    H143471   0.867   2.009  15.732  2.8025 -1.1154 -1.3095
 7352TIP3    H243472   0.771   2.000  15.615  0.4323 -0.3384  0.5000
 7353TIP3   OH243473   4.249   6.123  13.170  0.3074 -0.1162 -0.1804
 7353TIP3    H143474   4.327   6.081  13.206 -0.4302 -0.6674  0.7758
 7353TIP3    H243475   4.275   6.215  13.161  1.0624 -0.2884  0.1337
 7354TIP3   OH243476   0.000   4.719   2.288  0.0844 -0.5428 -0.3542
 7354TIP3    H143477  -0.094   4.706   2.286 -0.0419  0.3407 -1.5684
 7354TIP3    H243478   0.027   4.692   2.376 -2.0522  3.8291  1.9970
 7355TIP3   OH243479   3.532   6.637   4.770  0.3536  0.9230 -0.4584
 7355TIP3    H143480   3.463   6.699   4.744  0.3466  1.1960  0.1838
 7355TIP3    H243481   3.614   6.684   4.754  0.3959  0.6384 -1.1188
 7356TIP3   OH243482   5.483   2.913   5.201  0.4895 -0.2322 -0.1689
 7356TIP3    H143483   5.481   2.980   5.133 -0.0803 -1.3619 -1.2943
 7356TIP3    H243484   5.576   2.896   5.215  0.6474  0.9308  0.2888
 7357TIP3   OH243485   2.136   2.797   2.542  0.4888  0.4061 -0.0326
 7357TIP3    H143486   2.124   2.815   2.449  2.0677  2.3369  0.0942
 7357TIP3    H243487   2.066   2.735   2.563 -0.5467  0.7323 -2.2496
 7358TIP3   OH243488   6.675   0.815  15.533 -0.1556  0.0760  0.1870
 7358TIP3    H143489   6.686   0.886  15.469  2.0419 -0.7806 -0.4789
 7358TIP3    H243490   6.626   0.748  15.485 -1.6447  0.8167  0.6037
 7359TIP3   OH243491   0.806   3.937   2.265  0.2000 -0.4246  0.1161
 7359TIP3    H143492   0.743   3.887   2.213  2.0907 -3.0947  0.1756
 7359TIP3    H243493   0.759   3.957   2.346 -1.3164 -0.1939 -0.7766
 7360TIP3   OH243494   1.136   1.695   3.058  0.0072 -0.3547  0.6216
 7360TIP3    H143495   1.174   1.781   3.076  1.8545 -1.5284  2.8239
 7360TIP3    H243496   1.210   1.642   3.026 -1.1240 -1.1202 -0.8406
 7361TIP3   OH243497   5.746   2.030   0.538 -0.3550 -0.1278 -0.3237
 7361TIP3    H143498   5.668   2.047   0.591  0.2874 -0.2353  0.6768
 7361TIP3    H243499   5.766   2.115   0.497  0.2494  0.4507  1.1292
 7362TIP3   OH243500   6.083   3.695  13.145  0.5696 -1.2213  0.4920
 7362TIP3    H143501   6.091   3.763  13.079 -1.2230 -1.0951  0.3479
 7362TIP3    H243502   6.144   3.627  13.117  3.7243  0.9345  1.5629
 7363TIP3   OH243503   2.612   0.566   4.612  0.1805 -0.4505  0.5153
 7363TIP3    H143504   2.624   0.538   4.521  1.3489 -0.3055  0.6070
 7363TIP3    H243505   2.538   0.627   4.609  0.7504  0.2150 -0.4875
 7364TIP3   OH243506   2.072   0.528   6.327 -0.0250 -0.0663  0.0122
 7364TIP3    H143507   2.131   0.475   6.272  2.0236  2.2053 -0.1491
 7364TIP3    H243508   2.116   0.531   6.412 -0.8656  0.1984  0.4462
 7365TIP3   OH243509   2.296   0.939   4.762 -0.2509 -0.4254  0.2022
 7365TIP3    H143510   2.235   0.899   4.823 -2.1710  1.0592 -0.6250
 7365TIP3    H243511   2.347   0.866   4.727 -2.7331 -2.0257 -0.3365
 7366TIP3   OH243512   0.051   0.788  11.851 -0.0802  0.0581 -0.4690
 7366TIP3    H143513  -0.035   0.771  11.891  0.4863 -1.2869  0.2437
 7366TIP3    H243514   0.064   0.715  11.791 -0.2346  1.2537 -2.0148
 7367TIP3   OH243515   4.053   1.751  13.051 -0.4045 -0.0680 -0.1606
 7367TIP3    H143516   4.116   1.680  13.057 -0.0261  0.3658  1.2329
 7367TIP3    H243517   4.101   1.823  13.009 -0.7566 -0.5616 -1.4697
 7368TIP3   OH243518   3.567   4.977  16.300  0.5564  0.1952  0.5407
 7368TIP3    H143519   3.512   4.959  16.376  1.7814 -1.3309  1.1150
 7368TIP3    H243520   3.551   5.070  16.280 -1.0554  0.1819  1.5897
 7369TIP3   OH243521   1.160   2.516   3.440 -0.2389 -0.2872  0.3350
 7369TIP3    H143522   1.094   2.447   3.453 -1.4948  0.1207 -2.9047
 7369TIP3    H243523   1.228   2.474   3.387  0.0933  0.3906  0.2161
 7370TIP3   OH243524   2.936   4.431  12.390 -0.0457  0.6275 -0.2972
 7370TIP3    H143525   2.955   4.415  12.298  0.3266  0.3919 -0.1830
 7370TIP3    H243526   2.913   4.524  12.395 -0.9379  0.4414 -0.7662
 7371TIP3   OH243527   6.496   3.501   5.025 -0.0344 -0.3063  0.2280
 7371TIP3    H143528   6.521   3.487   4.933  0.2570  0.0475  0.2526
 7371TIP3    H243529   6.400   3.498   5.024 -0.0091 -2.3706  0.2442
 7372TIP3   OH243530   1.775   5.515  14.738 -0.6357  0.0600 -0.2772
 7372TIP3    H143531   1.685   5.522  14.772 -0.9692 -2.2292 -0.5177
 7372TIP3    H243532   1.787   5.422  14.723  1.9307  0.2779  0.0571
 7373TIP3   OH243533   6.508   3.393   0.853  0.0176 -0.0730  0.2519
 7373TIP3    H143534   6.603   3.383   0.842 -0.1212 -2.3054  0.6883
 7373TIP3    H243535   6.496   3.396   0.948 -0.5027 -2.3712  0.3124
 7374TIP3   OH243536   2.515   4.185  14.468 -0.1685  0.6847 -0.0388
 7374TIP3    H143537   2.448   4.136  14.419  0.0197  0.0143  0.3622
 7374TIP3    H243538   2.475   4.201  14.553  0.6148 -0.8175  0.6586
 7375TIP3   OH243539   0.575   2.946  14.160 -0.0469  0.4645  0.2166
 7375TIP3    H143540   0.665   2.923  14.136 -0.8494 -1.5508 -1.0625
 7375TIP3    H243541   0.554   3.021  14.105  0.5333  0.3388 -0.1855
 7376TIP3   OH243542   5.859   3.209   1.765  0.2057 -0.2784 -0.0175
 7376TIP3    H143543   5.940   3.251   1.793 -0.0300  1.6247 -1.9287
 7376TIP3    H243544   5.880   3.116   1.761  1.7392 -0.0309  1.2078
 7377TIP3   OH243545   5.119   4.206  16.827 -0.3112 -0.4300  0.6269
 7377TIP3    H143546   5.087   4.132  16.878 -0.1735  0.5399  2.2061
 7377TIP3    H243547   5.120   4.279  16.890  0.1530  0.7534 -0.7076
 7378TIP3   OH243548   0.333   2.478   3.466  0.2867 -0.1839 -0.6015
 7378TIP3    H143549   0.414   2.444   3.428  0.7440  1.4632 -1.2042
 7378TIP3    H243550   0.265   2.455   3.404  0.3230 -1.3410 -0.2256
 7379TIP3   OH243551   4.509   3.890  14.223 -0.0117 -0.2725  0.4866
 7379TIP3    H143552   4.424   3.932  14.214  0.2474  0.6793  2.0441
 7379TIP3    H243553   4.570   3.947  14.176 -0.1999 -0.9191 -0.5718
 7380TIP3   OH243554   3.616   6.693   1.788  0.1781  0.8894 -0.4296
 7380TIP3    H143555   3.583   6.708   1.699 -0.2097 -1.2674 -0.6926
 7380TIP3    H243556   3.697   6.644   1.775  0.6082  1.3633  0.3956
 7381TIP3   OH243557   5.015   0.046   0.213  0.0765  0.3815 -0.3142
 7381TIP3    H143558   5.036   0.013   0.301 -0.4204 -0.0001 -0.3311
 7381TIP3    H243559   5.049   0.135   0.212  0.2930  0.3080  0.1901
 7382TIP3   OH243560   1.762   4.210   5.485 -0.4549  0.7108  0.4460
 7382TIP3    H143561   1.828   4.151   5.448 -1.6687 -1.2364  1.2086
 7382TIP3    H243562   1.774   4.204   5.580 -1.1522  1.0173  0.5602
 7383TIP3   OH243563   2.824   1.023  15.059 -0.8059 -0.1679 -0.1286
 7383TIP3    H143564   2.809   1.094  14.997 -1.6459  0.2576  0.5505
 7383TIP3    H243565   2.912   1.040  15.094 -0.9784  0.5093 -0.0163
 7384TIP3   OH243566   1.915   2.687   4.467  0.1435 -0.8145  0.0682
 7384TIP3    H143567   1.956   2.769   4.491 -1.3338 -0.3862  1.2616
 7384TIP3    H243568   1.875   2.655   4.547 -4.1604  0.1806 -1.4173
 7385TIP3   OH243569   6.440   0.811   1.552 -1.0243 -0.2608 -0.0343
 7385TIP3    H143570   6.516   0.823   1.495 -1.3880 -1.0727 -0.7150
 7385TIP3    H243571   6.468   0.744   1.615 -1.1360 -0.4749 -0.2123
 7386TIP3   OH243572   1.015   4.139  10.543 -0.4791 -0.5443  0.0349
 7386TIP3    H143573   1.014   4.203  10.614 -0.7230 -1.3781  0.8119
 7386TIP3    H243574   0.929   4.147  10.502 -0.0400  0.5126 -0.7160
 7387TIP3   OH243575   2.368   1.666  16.019 -0.0797 -0.2160  0.0805
 7387TIP3    H143576   2.415   1.585  16.001  1.1218  0.6226 -0.6622
 7387TIP3    H243577   2.332   1.693  15.934  2.2183  1.6539 -0.3865
 7388TIP3   OH243578   2.922   2.031  13.606  0.3455  0.1928  0.3725
 7388TIP3    H143579   2.959   1.988  13.529 -1.4141  1.8863 -1.5241
 7388TIP3    H243580   2.893   1.959  13.662  0.8496 -1.0856 -0.9500
 7389TIP3   OH243581   3.151   0.051  14.207 -0.0517  0.0778  0.3997
 7389TIP3    H143582   3.065   0.010  14.208 -0.4563  0.8960 -0.0517
 7389TIP3    H243583   3.201   0.004  14.274 -1.0968  0.1227  1.2290
 7390TIP3   OH243584   5.636   5.173  15.484  0.0844 -0.3345 -0.9374
 7390TIP3    H143585   5.695   5.106  15.521 -0.0236 -0.5951 -1.2304
 7390TIP3    H243586   5.569   5.186  15.552  0.3948 -0.1455 -0.6645
 7391TIP3   OH243587   3.863   3.172  16.597  0.1180  0.0628  0.3115
 7391TIP3    H143588   3.792   3.108  16.588  0.7235 -0.5892  0.1580
 7391TIP3    H243589   3.854   3.206  16.686 -0.9523  0.6691  0.0017
 7392TIP3   OH243590   6.245   0.851  13.863  0.3264  0.4199  0.1791
 7392TIP3    H143591   6.190   0.927  13.843 -0.6917 -0.4092 -0.2468
 7392TIP3    H243592   6.203   0.778  13.819 -0.3684 -0.9478  2.8765
 7393TIP3   OH243593   4.480   1.444   0.349 -0.5727 -0.0538  0.3520
 7393TIP3    H143594   4.434   1.528   0.342  1.8589  1.2669 -0.9228
 7393TIP3    H243595   4.474   1.406   0.261 -1.0718 -0.9506  0.7516
 7394TIP3   OH243596   0.911   0.633   4.240 -0.1565 -0.3972  0.1106
 7394TIP3    H143597   0.970   0.699   4.277  1.1338 -0.5910 -1.4983
 7394TIP3    H243598   0.896   0.662   4.150  0.0958 -2.0487 -0.4939
 7395TIP3   OH243599   5.239   2.930  12.089  0.1083  0.1503  0.4930
 7395TIP3    H143600   5.261   2.950  11.998  0.4556 -1.3402  0.2202
 7395TIP3    H243601   5.179   3.000  12.116  0.0234  0.6173 -0.8673
 7396TIP3   OH243602   2.232   4.781  16.079 -0.0217  0.3343  0.5048
 7396TIP3    H143603   2.196   4.792  15.991 -1.6564 -1.9999  0.7787
 7396TIP3    H243604   2.182   4.843  16.132 -1.6775 -0.7822  0.3437
 7397TIP3   OH243605   2.228   6.672   3.640  0.2464  0.2932  0.1244
 7397TIP3    H143606   2.308   6.654   3.591  0.2276 -0.2559  0.2768
 7397TIP3    H243607   2.172   6.721   3.580 -0.2140 -1.2862 -0.8125
 7398TIP3   OH243608   5.055   1.552   1.580 -0.7073  0.5972  0.1608
 7398TIP3    H143609   5.030   1.464   1.553  2.4182  0.1917 -1.8972
 7398TIP3    H243610   5.121   1.538   1.648  1.2661  1.1838 -1.5416
 7399TIP3   OH243611   3.590   1.122  11.986  0.1666 -0.4744  0.2487
 7399TIP3    H143612   3.644   1.123  11.907 -0.7146 -2.7717 -0.4842
 7399TIP3    H243613   3.648   1.151  12.055  2.7997 -3.8079 -0.3154
 7400TIP3   OH243614   4.051   6.662  11.011  0.3758 -0.4554  0.4890
 7400TIP3    H143615   3.960   6.682  10.989  0.1380  0.5323  2.1536
 7400TIP3    H243616   4.097   6.661  10.927 -1.0304 -0.2589 -0.3197
 7401TIP3   OH243617   3.974   6.071   1.239 -0.0631  0.3730 -0.3435
 7401TIP3    H143618   3.953   6.076   1.146 -0.0890  3.3768 -0.2827
 7401TIP3    H243619   3.903   6.120   1.282  0.0980 -0.7217  1.2482
 7402TIP3   OH243620   0.229   5.837   0.281  0.5063  0.5109  0.1992
 7402TIP3    H143621   0.298   5.789   0.234  1.2173  0.5957  1.1030
 7402TIP3    H243622   0.154   5.778   0.280  0.8417  0.0814 -0.1383
 7403TIP3   OH243623   3.583   3.810  14.222 -0.5851  0.0138  0.0940
 7403TIP3    H143624   3.666   3.856  14.236 -0.7618  0.2419  0.3959
 7403TIP3    H243625   3.552   3.789  14.310  0.7558 -2.9913 -0.0374
 7404TIP3   OH243626   6.569   5.240  13.992  0.4329  0.3978  0.1120
 7404TIP3    H143627   6.552   5.299  13.919  2.1855  1.0109  0.1503
 7404TIP3    H243628   6.661   5.254  14.013  0.0621  0.0338  2.2601
 7405TIP3   OH243629   2.053   1.701  12.471  0.1136  0.1352  0.3641
 7405TIP3    H143630   2.109   1.732  12.542  0.1810  1.9852 -0.4290
 7405TIP3    H243631   2.010   1.781  12.438  0.4359 -0.5845 -1.9433
 7406TIP3   OH243632   0.726   5.489  13.784 -0.0348  0.4876  0.7195
 7406TIP3    H143633   0.788   5.525  13.847 -0.3138  2.1668  0.0974
 7406TIP3    H243634   0.755   5.523  13.699 -0.3381 -0.7772  0.0875
 7407TIP3   OH243635   1.978   2.502  13.372 -0.8927 -0.2182 -0.2856
 7407TIP3    H143636   1.922   2.478  13.446  0.6520  0.4101  1.1481
 7407TIP3    H243637   2.065   2.512  13.410 -0.0767  0.3245 -2.1742
 7408TIP3   OH243638   2.091   3.862   3.051  0.0613  0.2583 -0.5487
 7408TIP3    H143639   2.044   3.781   3.029 -0.9944  0.0084  2.2305
 7408TIP3    H243640   2.175   3.832   3.087  1.1059  0.5950 -2.5606
 7409TIP3   OH243641   5.765   2.651   1.219 -0.0923 -0.0957 -0.6387
 7409TIP3    H143642   5.727   2.647   1.306 -3.1044  0.3711 -1.8176
 7409TIP3    H243643   5.734   2.734   1.183  1.9276  0.2124 -1.8377
 7410TIP3   OH243644   5.342   0.541   0.022 -0.3250  0.0849  0.1365
 7410TIP3    H143645   5.348   0.634  -0.002  0.6545 -0.1962 -0.7586
 7410TIP3    H243646   5.357   0.541   0.117 -0.2685  0.8293  0.1383
 7411TIP3   OH243647   0.671   5.374  16.671  0.4347  0.1406 -0.0286
 7411TIP3    H143648   0.755   5.382  16.717  0.0506  1.8522  0.4348
 7411TIP3    H243649   0.682   5.298  16.614  2.0259 -0.1284  0.5909
 7412TIP3   OH243650   3.713   4.178   3.767 -0.4944 -0.2508 -0.0579
 7412TIP3    H143651   3.762   4.126   3.831 -2.4830 -0.3200  1.5063
 7412TIP3    H243652   3.712   4.124   3.688 -0.2706 -1.4042  0.6969
 7413TIP3   OH243653   3.968   0.999   5.665 -0.3678 -0.4089 -0.0904
 7413TIP3    H143654   3.965   0.952   5.582  0.7993 -0.2903 -0.2225
 7413TIP3    H243655   3.961   0.932   5.732 -1.8814 -0.4577 -0.2626
 7414TIP3   OH243656   1.586   1.776   3.760  0.2121  0.2943  0.1797
 7414TIP3    H143657   1.641   1.705   3.792  1.5994  1.4097  0.3781
 7414TIP3    H243658   1.517   1.733   3.709  1.5414 -1.1197 -0.4851
 7415TIP3   OH243659   4.502   3.813  15.569 -0.1366 -0.9456 -0.1253
 7415TIP3    H143660   4.502   3.820  15.474 -1.3973 -2.4966 -0.2920
 7415TIP3    H243661   4.508   3.903  15.600 -1.3326 -0.2893 -1.6879
 7416TIP3   OH243662   6.454   6.796  12.728 -0.1560  0.4489 -0.6147
 7416TIP3    H143663   6.548   6.811  12.727 -0.0966  0.3333  0.7954
 7416TIP3    H243664   6.433   6.763  12.640  1.5868 -2.2951 -0.1243
 7417TIP3   OH243665   2.927   5.513   6.037  0.0969  0.0785  0.5862
 7417TIP3    H143666   2.887   5.435   6.075  1.4717 -0.4300  1.0385
 7417TIP3    H243667   2.903   5.584   6.097 -1.8678  0.2085 -0.2712
 7418TIP3   OH243668   0.718   5.309   2.774  0.1817 -0.2862 -0.2945
 7418TIP3    H143669   0.708   5.350   2.860  0.3578  0.3692 -0.5837
 7418TIP3    H243670   0.778   5.236   2.789 -0.3245 -0.5959  0.2714
 7419TIP3   OH243671   2.040   2.141  11.953 -0.4062 -0.3966 -0.2598
 7419TIP3    H143672   2.048   2.048  11.973  1.2589 -0.3419 -0.5237
 7419TIP3    H243673   1.986   2.145  11.875 -2.3091 -0.9743  0.9611
 7420TIP3   OH243674   0.561   0.245  11.977  0.0730 -0.4277  0.3206
 7420TIP3    H143675   0.632   0.222  11.918  0.4964  0.5781  0.4234
 7420TIP3    H243676   0.602   0.253  12.063 -0.4977 -1.6565  0.7289
 7421TIP3   OH243677   5.469   4.655  11.592  0.2717  0.6793 -0.4605
 7421TIP3    H143678   5.439   4.568  11.620  1.1455  0.1581 -1.0911
 7421TIP3    H243679   5.405   4.682  11.525  0.6087  0.0203 -1.0678
 7422TIP3   OH243680   5.296   0.207   5.225  0.1365  0.5771  0.0016
 7422TIP3    H143681   5.231   0.143   5.196 -0.6853  2.0064 -1.3983
 7422TIP3    H243682   5.271   0.289   5.183  2.3125  1.3978  0.1733
 7423TIP3   OH243683   5.928   1.222  11.159 -0.1616 -0.0439  0.0761
 7423TIP3    H143684   5.969   1.136  11.163 -0.9968 -0.4533  0.1643
 7423TIP3    H243685   5.996   1.280  11.124 -0.6323 -1.4326 -3.5850
 7424TIP3   OH243686   3.896   3.855   2.646 -0.4159 -0.3513  0.6524
 7424TIP3    H143687   3.958   3.813   2.705  2.1289  1.6467 -0.3783
 7424TIP3    H243688   3.867   3.933   2.693 -1.7134 -0.9372  0.8665
 7425TIP3   OH243689   5.307   5.965  17.001  0.0452 -0.5243 -0.1342
 7425TIP3    H143690   5.234   5.959  17.062 -1.2496 -1.8592 -1.7415
 7425TIP3    H243691   5.270   6.003  16.921  1.6255  0.8903 -0.2632
 7426TIP3   OH243692   3.584   5.314  12.383  0.2070  0.0115 -0.1723
 7426TIP3    H143693   3.542   5.292  12.466 -1.5077  2.4875 -0.2563
 7426TIP3    H243694   3.669   5.350  12.408 -1.1823  2.9161  0.8565
 7427TIP3   OH243695   1.878   3.770  11.927 -0.2678 -0.2445  0.5986
 7427TIP3    H143696   1.800   3.767  11.982 -1.4706 -2.5266 -1.0656
 7427TIP3    H243697   1.912   3.681  11.928  1.3921  0.3452 -0.0112
 7428TIP3   OH243698   1.450   4.947  16.007 -0.0651  0.1655 -0.3601
 7428TIP3    H143699   1.504   4.904  15.941  0.7786  1.8537 -0.8558
 7428TIP3    H243700   1.416   5.025  15.963 -3.7192 -1.2417 -0.3355
 7429TIP3   OH243701   1.094   1.941   1.226 -0.1091  0.2264 -0.5411
 7429TIP3    H143702   1.178   1.981   1.207  0.6903 -0.5459  1.1499
 7429TIP3    H243703   1.083   1.874   1.158  0.7066  0.2236 -0.6766
 7430TIP3   OH243704   0.275   2.122   1.140 -0.8394  0.2183 -0.2656
 7430TIP3    H143705   0.343   2.136   1.205 -0.0889 -1.6644 -0.5874
 7430TIP3    H243706   0.253   2.210   1.109  1.6191  0.8753 -0.3283
 7431TIP3   OH243707   3.602   0.972  15.134  0.1271 -0.3839  0.5512
 7431TIP3    H143708   3.539   0.946  15.201 -1.3072  1.1248 -0.1123
 7431TIP3    H243709   3.593   1.068  15.130  2.3887 -0.1450  0.3236
 7432TIP3   OH243710   3.194   1.402  11.742  0.1567 -0.0505 -0.0099
 7432TIP3    H143711   3.106   1.392  11.777  0.5906 -0.0241  1.1575
 7432TIP3    H243712   3.244   1.333  11.786  0.9806  0.7357  0.3239
 7433TIP3   OH243713   1.929   4.956  14.744 -0.9256  0.1773  0.6996
 7433TIP3    H143714   1.999   4.909  14.697 -0.1545 -0.4692  2.4279
 7433TIP3    H243715   1.953   5.048  14.734  0.6280 -0.0588  1.8783
 7434TIP3   OH243716   0.329   6.100   1.241  0.0922  0.7801 -0.1015
 7434TIP3    H143717   0.412   6.116   1.197  0.1322  0.1213 -0.2806
 7434TIP3    H243718   0.317   6.175   1.299  0.1698  1.5300 -1.0368
 7435TIP3   OH243719   6.413   2.820   0.615 -0.3106 -0.1175  0.6722
 7435TIP3    H143720   6.318   2.817   0.600 -0.4377  1.2826  1.1061
 7435TIP3    H243721   6.422   2.816   0.710 -0.1272  2.6957  0.8549
 7436TIP3   OH243722   4.337   0.282  13.990  0.0753  0.5039  0.5874
 7436TIP3    H143723   4.379   0.196  13.983 -0.2945  0.4307 -1.1713
 7436TIP3    H243724   4.357   0.311  14.079 -0.7904 -1.9279  1.6736
 7437TIP3   OH243725   1.939   1.993  16.218  0.6523  0.2206 -0.2336
 7437TIP3    H143726   1.919   1.900  16.213  1.6073  0.0240 -0.6807
 7437TIP3    H243727   1.858   2.037  16.193 -0.4357 -0.4186  1.9314
 7438TIP3   OH243728   0.660   6.138   2.416  0.1052 -0.3615  0.5267
 7438TIP3    H143729   0.722   6.079   2.458 -1.8038 -1.3133  2.1844
 7438TIP3    H243730   0.666   6.218   2.468  0.6529 -0.0715  0.0346
 7439TIP3   OH243731   2.036   6.552  14.121 -0.6740 -0.2586 -0.7935
 7439TIP3    H143732   2.001   6.620  14.064  2.1651  2.3032  0.2341
 7439TIP3    H243733   2.123   6.533  14.084 -0.5969 -1.9058  0.1268
 7440TIP3   OH243734   4.114   3.687  13.813 -0.6011 -0.1440  0.4220
 7440TIP3    H143735   4.041   3.635  13.846 -1.9236 -0.1872 -2.2935
 7440TIP3    H243736   4.129   3.654  13.724  1.1851  1.4391  0.0651
 7441TIP3   OH243737   2.770   0.084   3.010  0.0335 -0.0792 -0.1854
 7441TIP3    H143738   2.845   0.130   3.048 -0.7004  0.9871  0.0179
 7441TIP3    H243739   2.706   0.080   3.082  0.2085 -1.7314 -0.1003
 7442TIP3   OH243740   6.616   6.303   1.913 -0.1011  0.7024  0.2919
 7442TIP3    H143741   6.581   6.345   1.992 -0.3091  0.8689  0.1130
 7442TIP3    H243742   6.580   6.214   1.915 -0.5583  0.8807  0.0953
 7443TIP3   OH243743   6.770   0.828   2.881 -0.7586  0.1847  0.7894
 7443TIP3    H143744   6.702   0.760   2.886 -0.5478  0.0390  2.1169
 7443TIP3    H243745   6.815   0.823   2.966  0.3335  0.8822  0.2709
 7444TIP3   OH243746   6.299   2.688  12.022 -0.3856 -0.4948 -0.3943
 7444TIP3    H143747   6.243   2.755  11.983  0.9690  0.8077 -0.1983
 7444TIP3    H243748   6.274   2.687  12.115 -0.0806  0.1172 -0.2983
 7445TIP3   OH243749   4.657   4.323   1.616 -0.5274  0.7583 -1.0332
 7445TIP3    H143750   4.586   4.376   1.580 -2.4761 -0.7404  0.3640
 7445TIP3    H243751   4.621   4.286   1.697  0.6678 -2.6224 -1.8648
 7446TIP3   OH243752   3.726   0.603  13.077 -0.2950  0.4931 -0.6259
 7446TIP3    H143753   3.639   0.566  13.094 -0.0781 -0.1369 -0.8334
 7446TIP3    H243754   3.757   0.631  13.163 -0.7016  0.7206 -0.5502
 7447TIP3   OH243755   1.661   2.669   0.953 -0.3665  0.1619  0.1065
 7447TIP3    H143756   1.734   2.692   1.011 -0.9742  1.9723  0.2125
 7447TIP3    H243757   1.592   2.639   1.013 -0.0190 -0.7527  0.0675
 7448TIP3   OH243758   0.902   1.762   0.285 -0.4822 -0.6315 -0.3237
 7448TIP3    H143759   0.976   1.802   0.238 -0.6004  0.2422  0.2166
 7448TIP3    H243760   0.848   1.723   0.216 -0.5432  0.4537 -0.9066
 7449TIP3   OH243761   6.534   3.491  15.999 -0.2086 -0.0827 -0.0730
 7449TIP3    H143762   6.492   3.407  15.981  1.3268 -1.4030  1.9762
 7449TIP3    H243763   6.499   3.518  16.084  0.9442  0.1890  0.3428
 7450TIP3   OH243764   4.932   1.592   3.394 -0.3768 -0.2958  0.2519
 7450TIP3    H143765   4.999   1.535   3.432  0.5900 -0.5643 -1.6839
 7450TIP3    H243766   4.851   1.540   3.397 -0.0633 -0.7533  0.8357
 7451TIP3   OH243767   1.619   2.827  13.056  0.6007  0.1685 -0.4248
 7451TIP3    H143768   1.646   2.825  12.964 -0.7101  0.6707 -0.8485
 7451TIP3    H243769   1.594   2.918  13.072  0.6712  0.0518  0.3821
 7452TIP3   OH243770   5.308   6.402  15.449  0.1954  0.0283 -0.7064
 7452TIP3    H143771   5.246   6.437  15.513  0.7951 -0.6033  0.2441
 7452TIP3    H243772   5.290   6.308  15.447  1.2248 -0.1981 -0.2731
 7453TIP3   OH243773   6.436   4.634   1.716  0.3000  0.3149  0.0347
 7453TIP3    H143774   6.514   4.579   1.714  0.8532  0.8991  2.4977
 7453TIP3    H243775   6.468   4.722   1.696  0.4077  0.6549  1.6189
 7454TIP3   OH243776   5.628   1.807  15.955  0.3081  0.1956 -0.2984
 7454TIP3    H143777   5.599   1.826  16.044  1.5806  1.4510 -0.1154
 7454TIP3    H243778   5.707   1.860  15.943 -0.3959  0.8660 -2.5358
 7455TIP3   OH243779   6.727   5.167  14.353  0.4094  0.5328  0.6636
 7455TIP3    H143780   6.808   5.117  14.339  1.1927  1.5977  1.2070
 7455TIP3    H243781   6.732   5.239  14.291 -1.1038 -0.4658 -0.6810
 7456TIP3   OH243782   0.278   2.398  16.713  0.4366  0.9056  0.3718
 7456TIP3    H143783   0.195   2.355  16.696  0.8624  0.0425  0.4521
 7456TIP3    H243784   0.287   2.396  16.809  0.5943  0.9171  0.3567
 7457TIP3   OH243785   5.023   6.365   4.093 -0.7211 -0.3748  0.4358
 7457TIP3    H143786   4.981   6.438   4.049 -0.2698  0.1297  0.8348
 7457TIP3    H243787   5.053   6.400   4.176 -1.2093 -1.2182  0.9894
 7458TIP3   OH243788   2.585   5.138  14.336  0.5256  0.2552  0.5237
 7458TIP3    H143789   2.537   5.193  14.274 -0.9032 -1.4633  0.0214
 7458TIP3    H243790   2.672   5.178  14.341  0.2602  1.2384 -1.5681
 7459TIP3   OH243791   5.605   5.348   1.934  0.1992  0.7119 -0.6155
 7459TIP3    H143792   5.535   5.292   1.967  1.7497 -1.4280 -0.7931
 7459TIP3    H243793   5.562   5.402   1.867 -1.2144 -0.8368 -1.0209
 7460TIP3   OH243794   0.910   1.770   5.042 -0.0876  0.5156 -0.2246
 7460TIP3    H143795   0.974   1.777   5.112 -0.2059  0.3301 -0.0961
 7460TIP3    H243796   0.860   1.851   5.046 -0.7751  0.0719  0.5802
 7461TIP3   OH243797   2.576   6.243  11.445  0.0455 -0.5568  0.0695
 7461TIP3    H143798   2.509   6.198  11.496  0.4586 -0.4616  0.7120
 7461TIP3    H243799   2.658   6.219  11.488  0.2849  0.7403  0.3782
 7462TIP3   OH243800   6.537   2.989   4.254  0.6773  0.0421  0.1677
 7462TIP3    H143801   6.552   2.937   4.333  0.5164 -0.2096  0.0328
 7462TIP3    H243802   6.559   3.079   4.280  1.0491 -0.1082  0.3724
 7463TIP3   OH243803   6.445   4.910   3.832  0.1921  0.0734  0.3036
 7463TIP3    H143804   6.364   4.891   3.785 -0.7951 -1.4523  2.4674
 7463TIP3    H243805   6.449   5.005   3.836 -1.6785  0.1788  0.4133
 7464TIP3   OH243806   2.188   6.556  11.636 -0.4160 -0.0621  0.1662
 7464TIP3    H143807   2.234   6.574  11.717  1.5001  0.6221 -1.0158
 7464TIP3    H243808   2.256   6.529  11.575 -1.7476 -0.1587 -1.3435
 7465TIP3   OH243809   2.724   3.481   3.413  0.5558  0.0669 -0.1052
 7465TIP3    H143810   2.704   3.461   3.322 -1.7972  0.6789  0.2132
 7465TIP3    H243811   2.662   3.429   3.464 -1.0443  2.7902  0.9406
 7466TIP3   OH243812   2.631   1.719  12.825  0.3982  0.2834  0.9464
 7466TIP3    H143813   2.600   1.723  12.915 -0.3049 -0.7837  0.7701
 7466TIP3    H243814   2.605   1.802  12.787  1.0741  0.9229  1.8273
 7467TIP3   OH243815   5.920   0.492   6.145 -0.8361  0.2249 -0.4102
 7467TIP3    H143816   5.914   0.400   6.169  0.7771  0.4570  1.1371
 7467TIP3    H243817   5.830   0.523   6.146 -1.2664 -0.9517  0.7637
 7468TIP3   OH243818   6.206   3.043  13.572  0.4934 -0.2059 -0.1268
 7468TIP3    H143819   6.283   3.086  13.535 -0.8898  0.8222 -2.0015
 7468TIP3    H243820   6.136   3.108  13.565 -0.6111 -1.1512  1.3704
 7469TIP3   OH243821   5.360   1.003   0.416  0.0678 -0.3639 -0.0501
 7469TIP3    H143822   5.320   0.970   0.496 -0.2208  2.7139  1.1938
 7469TIP3    H243823   5.415   1.076   0.444 -0.7300  1.4160 -2.6965
 7470TIP3   OH243824   2.487   0.078   5.712  0.2159 -0.2599  0.5136
 7470TIP3    H143825   2.525   0.002   5.756  1.8685 -0.1093 -0.5519
 7470TIP3    H243826   2.491   0.056   5.619 -1.3544  0.2457  0.2930
 7471TIP3   OH243827   6.212   0.996   2.501 -0.0470 -0.2134  0.7497
 7471TIP3    H143828   6.170   1.005   2.415  0.0534 -0.5879  0.6620
 7471TIP3    H243829   6.296   0.955   2.483  0.1668  0.1179  0.9802
 7472TIP3   OH243830   0.292   1.576   4.095 -0.0585 -0.3461  0.3074
 7472TIP3    H143831   0.228   1.600   4.162 -1.1783 -0.4418 -0.7019
 7472TIP3    H243832   0.290   1.480   4.093  0.8091 -0.3895  0.9077
 7473TIP3   OH243833   4.560   6.779   4.709 -0.5068 -0.4736  0.4635
 7473TIP3    H143834   4.603   6.723   4.644  0.1796 -1.1533  1.4902
 7473TIP3    H243835   4.563   6.729   4.790 -2.1916 -0.0207  0.8350
 7474TIP3   OH243836   5.970   5.735   0.141 -0.4084  0.0315  0.3596
 7474TIP3    H143837   6.036   5.775   0.085 -0.7098  1.0870  0.7319
 7474TIP3    H243838   5.887   5.774   0.112 -0.8739 -1.1880 -0.0249
 7475TIP3   OH243839   3.903   1.273  10.812 -0.8282  0.0900 -0.3823
 7475TIP3    H143840   3.874   1.219  10.886 -0.8079  3.0514  2.0014
 7475TIP3    H243841   3.824   1.288  10.761 -1.4849  0.2982  0.6666
 7476TIP3   OH243842   3.926   2.852  16.613 -0.3445 -0.0955  0.4158
 7476TIP3    H143843   4.015   2.872  16.639 -0.4973 -0.4940  1.2868
 7476TIP3    H243844   3.890   2.802  16.687 -1.0276 -0.6318 -0.2617
 7477TIP3   OH243845   6.582   1.099   2.890 -0.0113  0.2069 -0.2313
 7477TIP3    H143846   6.506   1.046   2.866  1.0731 -0.5461 -2.2220
 7477TIP3    H243847   6.650   1.036   2.913  0.7800  0.7601 -0.9886
 7478TIP3   OH243848   4.513   1.563   3.494 -0.7622  0.2868  0.6790
 7478TIP3    H143849   4.602   1.537   3.519 -0.8020 -1.7960 -1.0323
 7478TIP3    H243850   4.522   1.652   3.463  0.9301 -0.1771 -0.2892
 7479TIP3   OH243851   1.708   1.350  16.940 -0.5408  0.1958 -0.2611
 7479TIP3    H143852   1.614   1.354  16.957 -0.3037  0.4487  1.0540
 7479TIP3    H243853   1.735   1.265  16.973 -0.3380  0.0115 -0.8779
 7480TIP3   OH243854   1.643   0.380  13.947  0.4533  0.2459 -0.2610
 7480TIP3    H143855   1.658   0.290  13.977  0.1795  0.0518 -0.6967
 7480TIP3    H243856   1.641   0.432  14.028 -2.4406 -0.5737  0.2886
 7481TIP3   OH243857   0.990   3.147   2.770 -0.0951  0.0274  0.5083
 7481TIP3    H143858   1.003   3.195   2.852 -1.8842 -0.5554  1.1917
 7481TIP3    H243859   0.917   3.088   2.789 -1.1707  0.5267 -1.7905
 7482TIP3   OH243860   5.997   4.411  16.581 -0.3845  0.1137  0.4351
 7482TIP3    H143861   5.974   4.406  16.488 -2.3786  1.4972  0.7871
 7482TIP3    H243862   5.973   4.325  16.616 -0.6414 -0.0503 -0.1315
 7483TIP3   OH243863   1.531   2.578  11.009 -0.0305  0.2934 -0.3199
 7483TIP3    H143864   1.541   2.484  10.992 -2.7191 -0.2893  0.8640
 7483TIP3    H243865   1.449   2.586  11.057 -0.9994  3.4657 -2.1620
 7484TIP3   OH243866   5.893   3.708   0.468 -0.1350  0.0547 -0.5522
 7484TIP3    H143867   5.845   3.758   0.535 -2.0853 -3.0170  0.5748
 7484TIP3    H243868   5.826   3.686   0.403  0.9903  0.0545 -1.7518
 7485TIP3   OH243869   3.333   1.565   2.065 -0.4734  0.2272  0.1915
 7485TIP3    H143870   3.280   1.619   2.007  0.1282 -0.3097 -0.8971
 7485TIP3    H243871   3.279   1.487   2.082  0.3549 -0.8888 -1.8959
 7486TIP3   OH243872   5.475   4.997   1.739  0.0139 -0.2674 -0.2555
 7486TIP3    H143873   5.441   5.076   1.698 -0.3997 -0.3547 -0.0800
 7486TIP3    H243874   5.401   4.960   1.787 -0.1195 -1.3442 -1.2224
 7487TIP3   OH243875   0.936   3.161  12.954 -0.4071 -0.0655 -0.5156
 7487TIP3    H143876   0.939   3.082  12.902  1.4676 -0.1821 -0.2834
 7487TIP3    H243877   0.927   3.232  12.890  0.7779 -0.2831 -0.9484
 7488TIP3   OH243878   1.021   2.991   1.654 -0.0813  0.2984  0.2533
 7488TIP3    H143879   0.962   3.065   1.641 -0.4959 -0.3941 -2.4707
 7488TIP3    H243880   1.085   3.021   1.718 -0.2586  2.9759 -0.7192
 7489TIP3   OH243881   5.671   4.004   5.235 -0.3591 -0.1551  0.8578
 7489TIP3    H143882   5.716   3.942   5.177 -1.2731 -1.2116  1.2499
 7489TIP3    H243883   5.642   3.951   5.309 -2.3365  0.4498  0.5761
 7490TIP3   OH243884   5.233   0.856  13.137 -0.6289  0.0512 -0.0513
 7490TIP3    H143885   5.270   0.800  13.069  0.1588  0.6031 -0.0936
 7490TIP3    H243886   5.261   0.944  13.113  1.2465  0.0635  1.9678
 7491TIP3   OH243887   1.545   4.526  13.563  0.7643  0.3325  0.1057
 7491TIP3    H143888   1.618   4.499  13.508  0.3128 -0.2194 -0.2343
 7491TIP3    H243889   1.504   4.444  13.591 -0.3393  0.6413 -0.5575
 7492TIP3   OH243890   6.191   2.485  13.196 -0.3236 -0.2767  0.4627
 7492TIP3    H143891   6.173   2.517  13.285  0.7055 -0.0102  0.5825
 7492TIP3    H243892   6.169   2.559  13.139 -2.5742 -0.9793  0.3263
 7493TIP3   OH243893   1.122   5.733  14.935 -0.1903 -0.0866 -0.0338
 7493TIP3    H143894   1.039   5.754  14.979 -0.2031 -1.1220  0.4573
 7493TIP3    H243895   1.168   5.817  14.931 -1.1996  0.4838 -0.2048
 7494TIP3   OH243896   2.766   6.193   5.015 -0.3610  0.3122  0.1531
 7494TIP3    H143897   2.821   6.123   4.978  2.0352  0.3596  3.2151
 7494TIP3    H243898   2.810   6.274   4.989  0.3459  0.4008  1.5447
 7495TIP3   OH243899   3.072   0.075   0.512  0.7201  0.1334  0.5995
 7495TIP3    H143900   3.105   0.011   0.450  0.7191 -0.2792  1.0231
 7495TIP3    H243901   3.148   0.100   0.564  1.0277  1.5043 -0.4391
 7496TIP3   OH243902   3.595   6.436  14.398 -0.4864 -0.0694  0.0914
 7496TIP3    H143903   3.595   6.524  14.360  2.7862  0.5048  1.1019
 7496TIP3    H243904   3.656   6.442  14.472 -1.3681 -2.8332  1.1585
 7497TIP3   OH243905   1.704   4.111   4.184  0.0707 -0.1720  0.2933
 7497TIP3    H143906   1.750   4.183   4.141 -0.3082 -0.8674 -1.3403
 7497TIP3    H243907   1.660   4.152   4.258  0.5604  1.1164 -0.1000
 7498TIP3   OH243908   5.813   4.553   3.282 -0.0792 -0.3958  0.6132
 7498TIP3    H143909   5.840   4.518   3.197 -0.1937 -0.8085  0.7446
 7498TIP3    H243910   5.747   4.619   3.262 -0.2403 -0.6258  0.3958
 7499TIP3   OH243911   0.875   6.266  12.486 -0.5398 -0.0253 -0.1109
 7499TIP3    H143912   0.828   6.350  12.490  1.2920  1.0205  1.8496
 7499TIP3    H243913   0.910   6.262  12.397  1.5419  2.6696  0.4617
 7500TIP3   OH243914   4.203   5.942  10.978 -0.3466  0.2754  0.2834
 7500TIP3    H143915   4.121   5.978  10.946 -0.5148 -1.0621 -0.9063
 7500TIP3    H243916   4.244   5.904  10.901 -0.4425 -2.4922  1.4757
 7501TIP3   OH243917   6.280   6.300   0.985  0.3002  0.3404  0.5284
 7501TIP3    H143918   6.350   6.327   1.045 -0.3180 -0.7545  1.7980
 7501TIP3    H243919   6.326   6.280   0.903  1.5253 -0.5124  1.3847
 7502TIP3   OH243920   4.226   0.158   1.912  0.2660 -0.0123 -0.0182
 7502TIP3    H143921   4.263   0.073   1.937  0.4136  0.7604  2.6746
 7502TIP3    H243922   4.297   0.220   1.923 -0.6551  0.8900  1.2118
 7503TIP3   OH243923   2.369   3.090  17.155 -0.4595 -0.0721 -0.2254
 7503TIP3    H143924   2.320   3.021  17.200  0.9049 -1.2173 -0.4090
 7503TIP3    H243925   2.388   3.154  17.224 -0.1799 -0.7883  0.3811
 7504TIP3   OH243926   6.418   1.597  10.772 -0.2474 -0.3898 -0.3029
 7504TIP3    H143927   6.395   1.535  10.841 -0.6562 -1.2420 -1.1852
 7504TIP3    H243928   6.429   1.543  10.694  0.4069  0.5323 -0.8681
 7505TIP3   OH243929   3.615   6.785   5.489  0.0519  0.2796 -0.1719
 7505TIP3    H143930   3.632   6.877   5.472 -0.2992  0.8890  2.3886
 7505TIP3    H243931   3.571   6.783   5.574  1.4661 -2.3264  0.6417
 7506TIP3   OH243932   5.130   6.540  12.993  0.3108 -0.2544  0.5538
 7506TIP3    H143933   5.162   6.630  12.986 -2.4870  0.9604  1.7888
 7506TIP3    H243934   5.034   6.549  12.998 -0.2799 -3.4722 -1.5903
 7507TIP3   OH243935   0.250   4.292   0.969  0.2740  0.3089  0.3668
 7507TIP3    H143936   0.274   4.366   1.025  1.4587 -1.1169  1.8493
 7507TIP3    H243937   0.156   4.304   0.954 -0.4649  0.0740  3.8705
 7508TIP3   OH243938   5.634   2.793   2.291  0.1403 -0.0761 -0.4662
 7508TIP3    H143939   5.706   2.827   2.346  0.8322 -1.8568 -0.1981
 7508TIP3    H243940   5.674   2.782   2.205 -0.5137  1.2039 -0.9605
 7509TIP3   OH243941   2.244   1.240  12.828 -0.1294  0.2247  0.3414
 7509TIP3    H143942   2.251   1.238  12.923  0.9244 -0.6018  0.2614
 7509TIP3    H243943   2.217   1.330  12.808  0.4830  0.6455  1.3676
 7510TIP3   OH243944   1.001   0.159  15.082 -0.2144 -0.0942  0.6708
 7510TIP3    H143945   0.959   0.193  15.002  0.0818  0.9782  0.9530
 7510TIP3    H243946   1.094   0.159  15.062 -0.0462  1.1355  1.3391
 7511TIP3   OH243947   2.686   1.281  12.756 -0.3556  0.1797 -0.0849
 7511TIP3    H143948   2.778   1.288  12.733 -0.1372  1.9720  1.0534
 7511TIP3    H243949   2.645   1.357  12.715 -0.8253  0.7602  1.3601
 7512TIP3   OH243950   4.855   1.991   1.892 -0.4525 -0.5173 -0.0568
 7512TIP3    H143951   4.944   2.005   1.924  0.0968 -1.2710 -1.1678
 7512TIP3    H243952   4.842   1.896   1.896 -0.9009 -0.4921 -0.6374
 7513TIP3   OH243953   2.314   2.752  16.234 -0.3639 -0.7071 -0.5164
 7513TIP3    H143954   2.394   2.784  16.191 -0.1569  1.0730  1.0445
 7513TIP3    H243955   2.308   2.660  16.209  2.0820 -0.8451 -0.8222
 7514TIP3   OH243956   5.674   6.672   1.674  0.1098  0.0794  0.2118
 7514TIP3    H143957   5.684   6.760   1.710 -1.2454  0.1908  0.3627
 7514TIP3    H243958   5.580   6.661   1.663  0.1404 -1.8412  1.4363
 7515TIP3   OH243959   0.761   3.024  16.140 -0.2167 -0.3065 -0.1981
 7515TIP3    H143960   0.824   2.968  16.186 -0.8002  0.0308  1.0365
 7515TIP3    H243961   0.707   3.062  16.209 -0.9414  0.4389 -1.1474
 7516TIP3   OH243962   1.070   2.761   2.089  0.0281 -0.0625 -1.0912
 7516TIP3    H143963   1.039   2.695   2.027 -0.0781 -0.1913 -0.9045
 7516TIP3    H243964   0.992   2.784   2.140  0.2973 -0.6313 -0.3972
 7517TIP3   OH243965   5.397   3.649  15.386 -0.0928  0.3692  0.1842
 7517TIP3    H143966   5.407   3.570  15.333  0.4453  0.3793  0.2602
 7517TIP3    H243967   5.324   3.697  15.346  1.6714  1.4726 -1.9406
 7518TIP3   OH243968   2.036   4.005  11.925  0.4584 -0.1921  0.7578
 7518TIP3    H143969   2.122   3.971  11.900  1.2825  1.9141  0.5578
 7518TIP3    H243970   1.978   3.929  11.919  1.9712 -1.3066 -0.7424
 7519TIP3   OH243971   3.581   3.414  11.618  0.1050  0.0554  0.1801
 7519TIP3    H143972   3.619   3.367  11.692 -0.5127 -1.3349 -0.3329
 7519TIP3    H243973   3.521   3.477  11.658 -1.2661 -1.5999  0.9086
 7520TIP3   OH243974   3.439   6.250  10.303 -0.3210  0.2140 -0.1392
 7520TIP3    H143975   3.479   6.198  10.234  0.8065  0.1681  0.5188
 7520TIP3    H243976   3.456   6.340  10.279 -3.7366  0.4667 -2.1638
 7521TIP3   OH243977   3.579   2.806  16.546  0.1882  0.3785  0.0816
 7521TIP3    H143978   3.632   2.809  16.466  0.3528  0.9752  0.2128
 7521TIP3    H243979   3.592   2.891  16.587  1.1771 -0.3726  1.4384
 7522TIP3   OH243980   6.197   4.527  12.028 -0.3286  0.0604 -0.0322
 7522TIP3    H143981   6.128   4.592  12.016 -0.4405 -0.0329  0.1107
 7522TIP3    H243982   6.251   4.535  11.949 -0.7342 -0.1538 -0.3298
 7523TIP3   OH243983   4.894   2.323  16.189  0.2566 -0.0601 -0.0053
 7523TIP3    H143984   4.950   2.290  16.259 -0.8964 -2.1909 -0.0067
 7523TIP3    H243985   4.854   2.402  16.225  0.2255 -0.7264  1.4756
 7524TIP3   OH243986   1.065   1.980  11.258  0.0426 -0.3737  0.1933
 7524TIP3    H143987   1.094   2.071  11.269  1.3964 -0.6547 -0.7968
 7524TIP3    H243988   0.971   1.986  11.245 -0.1704  0.7290  1.9196
 7525TIP3   OH243989   4.949   4.984   0.538 -0.1548  0.0297  0.0388
 7525TIP3    H143990   5.007   4.929   0.591  0.6862  0.9046  0.0560
 7525TIP3    H243991   5.000   5.004   0.460  1.0978  3.6991  1.5615
 7526TIP3   OH243992   1.305   3.572  11.813 -0.0445 -0.5043  0.3141
 7526TIP3    H143993   1.358   3.549  11.737 -0.8261 -0.0695 -0.3706
 7526TIP3    H243994   1.221   3.600  11.777 -0.5762 -0.6967  1.3578
 7527TIP3   OH243995   4.849   1.295  15.400 -0.0618 -0.6406  1.0160
 7527TIP3    H143996   4.812   1.234  15.335  1.8764 -0.9505  0.1286
 7527TIP3    H243997   4.908   1.351  15.349 -1.1361  1.4752  1.9618
 7528TIP3   OH243998   4.318   5.143   4.398  0.0788  0.0384 -0.0276
 7528TIP3    H143999   4.376   5.173   4.467  1.0265 -0.4845 -0.5774
 7528TIP3    H244000   4.231   5.173   4.425  0.7751  2.1532  0.0739
 7529TIP3   OH244001   4.907   5.323   0.531  0.3023 -0.5402  0.2261
 7529TIP3    H144002   4.848   5.302   0.603  1.5977 -0.3260  1.3904
 7529TIP3    H244003   4.995   5.317   0.569  1.0423 -0.7073 -1.4119
 7530TIP3   OH244004   5.088   0.786   4.284 -0.4058 -0.3628 -0.1529
 7530TIP3    H144005   5.097   0.807   4.191 -1.1128 -0.4584 -0.2524
 7530TIP3    H244006   5.012   0.727   4.288 -0.4120 -0.3214  0.4889
 7531TIP3   OH244007   2.900   2.237   5.550  0.0783 -0.1115  0.3292
 7531TIP3    H144008   2.823   2.280   5.512 -0.1348 -2.3588 -2.0885
 7531TIP3    H244009   2.866   2.157   5.590  1.0085 -0.5208  0.3293
 7532TIP3   OH244010   0.124   2.550  14.798 -0.0275 -0.0631  0.3033
 7532TIP3    H144011   0.158   2.626  14.845  0.5026 -0.1539  0.0725
 7532TIP3    H244012   0.036   2.538  14.833 -0.1764  0.7533  0.2316
 7533TIP3   OH244013   0.132   1.038   5.113  0.2044 -0.1209 -0.4341
 7533TIP3    H144014   0.145   0.943   5.110 -0.1005 -0.1403 -1.7925
 7533TIP3    H244015   0.137   1.060   5.206  1.6371 -1.2660 -0.2137
 7534TIP3   OH244016   2.735   1.787  16.826 -0.2380  0.0964  0.3071
 7534TIP3    H144017   2.702   1.704  16.859  1.8483 -1.9131 -2.1889
 7534TIP3    H244018   2.799   1.763  16.759  1.0575  3.7383 -0.0253
 7535TIP3   OH244019   3.325   4.702  11.943 -0.2443 -0.3601 -0.5204
 7535TIP3    H144020   3.287   4.722  12.029  1.3597 -0.9550  0.3766
 7535TIP3    H244021   3.257   4.725  11.880 -0.7214  2.0715  0.7736
 7536TIP3   OH244022   0.765   5.146   0.569 -0.1136 -0.6560  0.3530
 7536TIP3    H144023   0.735   5.062   0.602 -0.9442 -1.0143 -1.2346
 7536TIP3    H244024   0.692   5.206   0.586  0.7494 -0.0406  2.1375
 7537TIP3   OH244025   1.128   0.541  11.951  0.1699 -0.2018 -0.1089
 7537TIP3    H144026   1.036   0.530  11.926 -0.2048  0.6815  0.7897
 7537TIP3    H244027   1.132   0.631  11.985  1.2337 -0.4333  0.4057
 7538TIP3   OH244028   5.293   5.318  16.551 -0.1969  0.5034 -0.1931
 7538TIP3    H144029   5.289   5.258  16.477 -0.7882  0.3415 -0.0362
 7538TIP3    H244030   5.332   5.267  16.622 -0.1447  0.4902 -0.2306
 7539TIP3   OH244031   0.015   6.755   5.057  0.2780  0.4537 -0.2154
 7539TIP3    H144032   0.040   6.798   5.139  0.4262  1.5903 -0.8253
 7539TIP3    H244033  -0.053   6.693   5.081  0.9283  0.1406  0.8908
 7540TIP3   OH244034   4.281   4.468  16.459  0.2331 -0.1749  0.0647
 7540TIP3    H144035   4.257   4.498  16.371 -0.0910  1.6526  0.7107
 7540TIP3    H244036   4.329   4.542  16.496  1.7237 -1.5191  0.8997
 7541TIP3   OH244037   5.914   0.639  12.772  0.5199 -0.0426 -0.3784
 7541TIP3    H144038   5.873   0.713  12.817 -0.7800  0.0556 -1.6667
 7541TIP3    H244039   6.002   0.635  12.809 -0.2058  0.5432  1.5497
 7542TIP3   OH244040   4.112   3.274  16.576 -0.6406  0.0176 -0.6150
 7542TIP3    H144041   4.165   3.243  16.650 -2.2360 -0.8456  0.2299
 7542TIP3    H244042   4.074   3.195  16.539 -0.2150  0.4900 -2.1245
 7543TIP3   OH244043   2.661   0.346  11.504  0.0016 -0.1377 -0.1408
 7543TIP3    H144044   2.732   0.384  11.451 -0.0694 -0.4962 -0.4948
 7543TIP3    H244045   2.702   0.272  11.548 -0.3121 -0.7321 -0.8411
 7544TIP3   OH244046   6.405   3.688   1.775  0.0571  0.2050  0.3400
 7544TIP3    H144047   6.392   3.767   1.827  1.4040 -0.7228  2.2032
 7544TIP3    H244048   6.316   3.657   1.756 -0.5264  2.7588 -1.4906
 7545TIP3   OH244049   5.827   0.230  17.177  0.0938 -0.3292  0.5941
 7545TIP3    H144050   5.867   0.143  17.176  0.3587 -0.2871 -2.0404
 7545TIP3    H244051   5.739   0.217  17.141 -0.2712  0.3411  1.2189
 7546TIP3   OH244052   1.472   5.327   4.502  0.1371  0.1920 -0.0157
 7546TIP3    H144053   1.558   5.339   4.463  0.4971  0.3812  0.8210
 7546TIP3    H244054   1.462   5.400   4.563 -1.1582  0.9147 -1.0382
 7547TIP3   OH244055   4.369   2.717  15.663  0.5070 -0.3350  0.5720
 7547TIP3    H144056   4.406   2.698  15.577 -0.8303  0.2296 -0.1572
 7547TIP3    H244057   4.306   2.647  15.678  0.4114 -0.1832  0.8975
 7548TIP3   OH244058   2.705   5.368  11.677  0.0585  0.2956  0.5146
 7548TIP3    H144059   2.756   5.287  11.672  1.6412  1.2755  0.0259
 7548TIP3    H244060   2.710   5.394  11.769  1.3182  0.8770  0.3131
 7549TIP3   OH244061   3.020   3.207  11.020  0.3062  0.0691  0.9806
 7549TIP3    H144062   3.070   3.269  10.967  0.5329 -0.0384  1.0689
 7549TIP3    H244063   3.004   3.133  10.961 -1.3884  0.8846  0.3303
 7550TIP3   OH244064   1.712   0.186   1.330 -0.0702  0.5983  0.1766
 7550TIP3    H144065   1.776   0.245   1.290  0.8451 -1.6644 -1.9739
 7550TIP3    H244066   1.635   0.192   1.274 -0.1181  0.1041  0.1834
 7551TIP3   OH244067   4.678   6.173  14.375 -0.4609  0.0752  0.0609
 7551TIP3    H144068   4.734   6.133  14.309 -2.9061 -0.5472 -1.8019
 7551TIP3    H244069   4.674   6.265  14.352 -0.0989  0.1454  0.2787
 7552TIP3   OH244070   1.023   4.406  13.155  0.1220 -0.4313 -0.0781
 7552TIP3    H144071   0.935   4.383  13.184  1.2514 -1.5714  2.7996
 7552TIP3    H244072   1.050   4.332  13.099 -1.0925  0.5012 -2.0131
 7553TIP3   OH244073   0.324   6.364   2.554 -0.1327 -0.3578  0.1748
 7553TIP3    H144074   0.378   6.429   2.508  2.2641 -2.2732  0.0343
 7553TIP3    H244075   0.333   6.387   2.647  0.4811 -0.3011  0.1089
 7554TIP3   OH244076   2.868   1.514  16.845  0.2944  0.4695 -0.0928
 7554TIP3    H144077   2.876   1.531  16.938  1.3685  2.6820 -0.5202
 7554TIP3    H244078   2.903   1.426  16.833  2.1640  0.9722  1.3417
 7555TIP3   OH244079   3.559   6.088   0.277 -0.2319 -0.0223  0.1968
 7555TIP3    H144080   3.560   6.145   0.354 -2.1271 -2.8263  2.4930
 7555TIP3    H244081   3.484   6.119   0.225 -0.0955  0.7207  0.4310
 7556TIP3   OH244082   4.257   4.940  13.708  0.5483  0.3321 -0.3400
 7556TIP3    H144083   4.169   4.976  13.722 -0.3978 -1.3761 -1.4988
 7556TIP3    H244084   4.303   5.007  13.659  0.3601  1.8165  1.4290
 7557TIP3   OH244085   1.863   5.558   0.741 -0.0713 -0.2695 -0.1365
 7557TIP3    H144086   1.828   5.614   0.672  0.3460  0.5137  0.2716
 7557TIP3    H244087   1.950   5.533   0.711 -0.7479 -1.7821 -0.9090
 7558TIP3   OH244088   4.469   0.012  15.321 -0.9736 -0.4036 -0.5213
 7558TIP3    H144089   4.535   0.074  15.290 -1.7480  1.0258  0.5615
 7558TIP3    H244090   4.491  -0.070  15.277  2.5287 -0.4755  1.0322
 7559TIP3   OH244091   3.978   3.229  13.676  0.3708  0.5867  0.4155
 7559TIP3    H144092   3.955   3.245  13.585 -1.0419 -1.5091  0.3423
 7559TIP3    H244093   4.040   3.156  13.673  1.4306  1.4241  1.0809
 7560TIP3   OH244094   5.381   2.759   4.025  0.3196 -0.0708 -0.7304
 7560TIP3    H144095   5.317   2.720   3.966 -0.5454 -0.3434  0.3533
 7560TIP3    H244096   5.330   2.819   4.080  0.4416 -2.1912  1.9092
 7561TIP3   OH244097   5.747   1.334   1.601  0.0640 -0.3791 -0.3800
 7561TIP3    H144098   5.776   1.421   1.629  0.2002 -0.8000  0.8746
 7561TIP3    H244099   5.827   1.290   1.571 -0.0018 -0.0893 -0.9919
 7562TIP3   OH244100   1.983   5.524  12.174  0.4432 -0.5015  0.4744
 7562TIP3    H144101   1.903   5.500  12.128 -1.1856 -1.0835  3.3910
 7562TIP3    H244102   1.987   5.620  12.166  0.9280 -0.6435 -1.8063
 7563TIP3   OH244103   5.726   6.706  14.743 -0.4908 -0.0068  0.3820
 7563TIP3    H144104   5.689   6.617  14.735  0.4978 -0.3983  0.0178
 7563TIP3    H244105   5.674   6.759  14.684 -1.5988 -0.1645  1.1745
 7564TIP3   OH244106   1.607   4.695  16.406  0.1028 -0.0542  0.5745
 7564TIP3    H144107   1.685   4.746  16.429  0.0035 -0.8006  2.8544
 7564TIP3    H244108   1.546   4.713  16.477 -1.1617 -0.8391 -0.2882
 7565TIP3   OH244109   2.817   5.803  13.104  0.5519 -0.6202  0.1241
 7565TIP3    H144110   2.861   5.883  13.131  0.9345 -0.6268 -0.4692
 7565TIP3    H244111   2.755   5.831  13.037 -1.3075 -0.4070  1.8490
 7566TIP3   OH244112   6.377   3.625   5.644  0.1346  0.5616  0.0844
 7566TIP3    H144113   6.306   3.597   5.586 -0.6776  1.3645  0.6514
 7566TIP3    H244114   6.435   3.549   5.650 -0.5923 -0.0604 -0.5199
 7567TIP3   OH244115   4.178   4.100  10.380 -0.2396 -0.0845 -0.1129
 7567TIP3    H144116   4.245   4.157  10.343  0.4235  0.2239  1.4685
 7567TIP3    H244117   4.225   4.020  10.404 -0.0159  0.7132  2.4422
 7568TIP3   OH244118   0.184   2.814   2.418  0.7920  0.1116  0.3280
 7568TIP3    H144119   0.276   2.831   2.399  0.5267 -0.1499 -1.3857
 7568TIP3    H244120   0.163   2.872   2.490  1.7547  1.7984 -0.6820
 7569TIP3   OH244121   3.844   1.070   3.391  0.1056  0.3482 -0.2416
 7569TIP3    H144122   3.846   1.160   3.424 -0.9831  0.4084 -0.2976
 7569TIP3    H244123   3.842   1.016   3.470  0.9130  0.3541 -0.2061
 7570TIP3   OH244124   4.392   0.261   3.879 -0.4417 -0.3631 -0.3687
 7570TIP3    H144125   4.375   0.352   3.903 -0.8179  0.0156 -1.9446
 7570TIP3    H244126   4.341   0.210   3.942 -0.2620  0.5051  0.5120
 7571TIP3   OH244127   4.641   6.573   3.780 -0.6957  0.1407  0.3194
 7571TIP3    H144128   4.553   6.597   3.811 -1.2412  1.4778 -1.9747
 7571TIP3    H244129   4.626   6.539   3.692  1.1022  0.5881 -0.2020
 7572TIP3   OH244130   1.076   3.687   5.841  0.4686  0.0172  0.5568
 7572TIP3    H144131   1.128   3.725   5.911 -0.0090  1.8941 -0.0351
 7572TIP3    H244132   0.985   3.704   5.867  0.2396 -0.7007  0.2444
 7573TIP3   OH244133   3.835   2.038  16.522  0.2977 -0.1126 -0.6489
 7573TIP3    H144134   3.783   1.958  16.531 -0.8820  0.7839  1.4391
 7573TIP3    H244135   3.920   2.016  16.560  0.5113 -0.7860 -1.4880
 7574TIP3   OH244136   0.749   4.780   0.989 -0.1756  0.4176  0.2324
 7574TIP3    H144137   0.744   4.859   1.043  1.5591 -0.0332  1.1366
 7574TIP3    H244138   0.828   4.791   0.937  0.0900 -0.7106  0.3707
 7575TIP3   OH244139   3.747   6.317  16.743 -0.6031 -0.8287  0.3788
 7575TIP3    H144140   3.818   6.264  16.780  0.0912  0.7494  1.3644
 7575TIP3    H244141   3.681   6.321  16.812 -0.1548  0.5007  0.7523
 7576TIP3   OH244142   3.655   6.608  17.052  0.4575  0.3080  0.3454
 7576TIP3    H144143   3.586   6.660  17.011 -0.2790 -0.4038  0.6628
 7576TIP3    H244144   3.729   6.668  17.058 -0.0093  0.9751 -0.3345
 7577TIP3   OH244145   5.732   0.871  13.448  0.0395  0.8183  0.8269
 7577TIP3    H144146   5.648   0.891  13.405 -0.3143 -0.5097  0.8597
 7577TIP3    H244147   5.723   0.909  13.535 -0.2904  1.2186  0.6248
 7578TIP3   OH244148   3.685   3.285   4.850  0.3386 -0.6579 -0.3871
 7578TIP3    H144149   3.660   3.204   4.896  0.3164 -0.6267 -0.3435
 7578TIP3    H244150   3.780   3.279   4.842  0.2634 -1.0536 -1.0741
 7579TIP3   OH244151   1.617   0.481   2.225 -0.0991  0.0463 -0.0236
 7579TIP3    H144152   1.631   0.397   2.268  2.7195  0.1518 -0.4980
 7579TIP3    H244153   1.582   0.458   2.139 -3.4258 -0.2989  1.2924
 7580TIP3   OH244154   1.478   3.507  12.324 -0.0906 -0.3291  0.4076
 7580TIP3    H144155   1.414   3.454  12.370  0.8103 -0.9655  0.9528
 7580TIP3    H244156   1.476   3.475  12.234  0.6136 -1.4805  0.7836
 7581TIP3   OH244157   2.136   6.685   2.264 -0.5442 -0.1057  0.2292
 7581TIP3    H144158   2.226   6.664   2.288  0.2020  0.2056 -2.0617
 7581TIP3    H244159   2.121   6.772   2.303  1.1361  1.0700 -1.5399
 7582TIP3   OH244160   4.288   0.409  13.516  0.2973 -0.2176 -0.2630
 7582TIP3    H144161   4.235   0.347  13.567 -1.0340  0.9939 -0.1121
 7582TIP3    H244162   4.350   0.445  13.578 -1.6834  1.6697  0.7233
 7583TIP3   OH244163   4.587   5.693   1.329 -0.3241  0.1394 -0.3826
 7583TIP3    H144164   4.642   5.768   1.308 -0.4863  0.5246  0.5348
 7583TIP3    H244165   4.644   5.617   1.318  0.6512  0.5769  1.3395
 7584TIP3   OH244166   6.721   4.258   3.982 -0.3515 -0.1018 -0.2895
 7584TIP3    H144167   6.666   4.279   3.907  0.5627  1.2750 -0.6198
 7584TIP3    H244168   6.659   4.236   4.052 -1.2288 -0.7727 -1.2423
 7585TIP3   OH244169   4.990   5.665  12.680  0.0437  0.1440 -0.1078
 7585TIP3    H144170   5.071   5.621  12.705 -0.3076 -1.5223 -1.6283
 7585TIP3    H244171   4.973   5.635  12.590 -2.6041 -0.1457  0.3908
 7586TIP3   OH244172   5.565   6.318   3.662 -0.1117 -0.4761  0.7711
 7586TIP3    H144173   5.494   6.373   3.697 -0.8172 -1.3312  0.7232
 7586TIP3    H244174   5.521   6.238   3.632  0.9764 -1.4045  1.5563
 7587TIP3   OH244175   0.036   6.331   3.345 -0.3632  0.4133 -0.6923
 7587TIP3    H144176   0.110   6.380   3.383  0.5610 -0.7453 -0.9513
 7587TIP3    H244177  -0.040   6.362   3.394  0.6026 -0.0607  1.2067
 7588TIP3   OH244178   5.129   0.348   3.569 -0.3510 -0.1672 -0.2494
 7588TIP3    H144179   5.210   0.310   3.536 -0.3221  0.0059 -0.3802
 7588TIP3    H244180   5.082   0.275   3.609 -0.1737 -0.2853 -0.2586
 7589TIP3   OH244181   6.520   5.545   5.828 -0.2205  0.4389  0.0678
 7589TIP3    H144182   6.529   5.533   5.733 -0.8900 -0.2472  0.0745
 7589TIP3    H244183   6.595   5.500   5.865  0.2296  1.0004 -0.1445
 7590TIP3   OH244184   1.201   5.083   2.028 -0.6276  0.6064  0.0161
 7590TIP3    H144185   1.110   5.059   2.010 -0.5221  1.0669 -1.2431
 7590TIP3    H244186   1.236   5.010   2.078 -2.0079  0.9472  1.5472
 7591TIP3   OH244187   4.438   6.683   3.906  0.3206 -0.0037 -0.3432
 7591TIP3    H144188   4.408   6.713   3.993  1.6992  0.9587 -0.1554
 7591TIP3    H244189   4.359   6.652   3.863 -0.9814  2.3343  0.1411
 7592TIP3   OH244190   0.021   5.940   3.581  0.5034 -0.3876 -0.4819
 7592TIP3    H144191  -0.062   5.892   3.577 -0.0833  0.3102  1.6675
 7592TIP3    H244192   0.004   6.011   3.644  2.5002  0.2635 -0.6038
 7593TIP3   OH244193   4.271   3.793   1.738  0.4892 -0.1803 -0.1697
 7593TIP3    H144194   4.345   3.782   1.798  0.5418  0.3996 -0.1224
 7593TIP3    H244195   4.221   3.712   1.746  2.3482 -1.5609 -1.9173
 7594TIP3   OH244196   4.367   2.417  16.980 -0.0715 -0.4496  0.0274
 7594TIP3    H144197   4.347   2.417  17.074  1.1799 -0.5016  0.3074
 7594TIP3    H244198   4.282   2.406  16.938 -0.9130  1.3949  1.0963
 7595TIP3   OH244199   2.944   3.778   1.144  0.1289  0.2116 -0.1399
 7595TIP3    H144200   2.907   3.756   1.059 -0.0662 -1.6185  0.3724
 7595TIP3    H244201   3.038   3.770   1.133  0.0460 -1.8112  0.2102
 7596TIP3   OH244202   4.503   4.691  13.065  0.0411 -0.5827 -0.1911
 7596TIP3    H144203   4.438   4.759  13.052 -0.0089 -0.0705  2.2121
 7596TIP3    H244204   4.473   4.643  13.143  3.4071  0.9740  2.3388
 7597TIP3   OH244205   2.122   5.766   2.581  0.0017  0.6477  0.1688
 7597TIP3    H144206   2.191   5.782   2.645 -1.0642  0.6965  1.3331
 7597TIP3    H244207   2.087   5.680   2.604 -0.2825  0.5803 -0.4777
 7598TIP3   OH244208   4.455   6.038  14.502  0.5040 -0.2302 -0.1847
 7598TIP3    H144209   4.454   6.011  14.594 -0.5768  2.5260  0.6827
 7598TIP3    H244210   4.547   6.028  14.476  0.7247 -1.6121  0.9656
 7599TIP3   OH244211   6.484   4.899   6.005 -0.2297  0.9111  0.0978
 7599TIP3    H144212   6.477   4.894   6.100  1.5322  0.4952  0.2244
 7599TIP3    H244213   6.395   4.884   5.974 -0.2699 -2.7963  1.5245
 7600TIP3   OH244214   0.374   3.665   5.518  0.4703  0.9334 -0.0614
 7600TIP3    H144215   0.303   3.724   5.540  0.7879  0.7818  1.4470
 7600TIP3    H244216   0.344   3.579   5.548  0.4377  0.4738 -1.3179
 7601TIP3   OH244217   6.129   6.026   4.483 -0.2355  0.2585 -0.1419
 7601TIP3    H144218   6.147   5.936   4.509 -0.3982 -0.1091 -1.2654
 7601TIP3    H244219   6.035   6.036   4.496  0.1225  1.0294  2.2296
 7602TIP3   OH244220   3.792   3.782   2.288  0.5090  0.3830  0.2098
 7602TIP3    H144221   3.702   3.811   2.302  0.8761  1.8584 -0.2943
 7602TIP3    H244222   3.833   3.853   2.238  1.4542 -1.0693 -1.1756
 7603TIP3   OH244223   5.604   4.525   4.156  0.0577 -0.1478 -0.1521
 7603TIP3    H144224   5.635   4.448   4.202 -1.4534 -1.2190 -0.8500
 7603TIP3    H244225   5.592   4.496   4.066  0.0427  1.0707 -0.5643
 7604TIP3   OH244226   0.646   2.503   0.868 -0.7304  0.1996 -0.0990
 7604TIP3    H144227   0.658   2.469   0.957 -0.5377  2.6930  0.9101
 7604TIP3    H244228   0.735   2.513   0.835 -0.7533  0.3685 -0.1106
 7605TIP3   OH244229   2.291   2.159   4.150  0.0035  0.4796  0.4018
 7605TIP3    H144230   2.334   2.121   4.073  1.4419  0.9936  0.9080
 7605TIP3    H244231   2.345   2.235   4.172  0.8840 -0.7762  3.1143
 7606TIP3   OH244232   1.497   3.947  11.077 -0.5594  0.0138  0.0894
 7606TIP3    H144233   1.557   3.897  11.132  1.7507  1.0980 -1.2734
 7606TIP3    H244234   1.518   3.918  10.988 -1.3914  1.1335 -0.4898
 7607TIP3   OH244235   3.672   1.246  15.683 -0.6941 -0.1094 -0.3108
 7607TIP3    H144236   3.766   1.261  15.689 -1.0174  1.8959  0.3027
 7607TIP3    H244237   3.655   1.176  15.747  0.0851  1.1206  1.3208
 7608TIP3   OH244238   1.924   4.623   2.050  0.1992 -0.6642  0.0652
 7608TIP3    H144239   1.834   4.619   2.080  0.0701  3.2651  0.7000
 7608TIP3    H244240   1.974   4.579   2.119 -0.9923 -0.5752  1.0251
 7609TIP3   OH244241   5.177   4.615  16.775 -0.1434  0.4275 -0.1380
 7609TIP3    H144242   5.192   4.694  16.828  0.4450  0.1174  0.1727
 7609TIP3    H244243   5.085   4.620  16.750 -0.2786  0.8840  0.4228
 7610TIP3   OH244244   1.573   0.193   0.748 -0.4745 -0.0914 -0.5228
 7610TIP3    H144245   1.644   0.242   0.790 -1.8720  1.2267  0.3874
 7610TIP3    H244246   1.552   0.124   0.811 -0.7616  0.2285 -0.2635
 7611TIP3   OH244247   6.013   0.127  13.735  0.1051 -0.4889 -0.5505
 7611TIP3    H144248   5.964   0.178  13.800  0.6238 -0.3048 -0.2908
 7611TIP3    H244249   5.963   0.135  13.654  0.6616  1.2447 -0.7576
 7612TIP3   OH244250   4.985   5.452   1.915  0.1306  0.2355  0.3878
 7612TIP3    H144251   5.068   5.404   1.911 -0.5679 -1.1821  1.7167
 7612TIP3    H244252   4.934   5.418   1.841  0.5026  0.6511 -0.0608
 7613TIP3   OH244253   1.299   3.267  14.975 -0.1322  0.3900  0.0470
 7613TIP3    H144254   1.334   3.302  14.894  0.6181  1.4286  0.7950
 7613TIP3    H244255   1.268   3.344  15.023  0.9961 -0.0156  1.4686
 7614TIP3   OH244256   2.588   2.646   2.596 -0.0757  0.3976  0.1098
 7614TIP3    H144257   2.563   2.732   2.630  1.9792  0.9449  0.3679
 7614TIP3    H244258   2.529   2.632   2.521 -1.2124  1.4906  0.7548
 7615TIP3   OH244259   3.809   2.658  14.417 -0.0605 -0.1425  0.4887
 7615TIP3    H144260   3.822   2.748  14.446  1.2925  0.0326 -0.5778
 7615TIP3    H244261   3.879   2.609  14.460  2.1654  0.1670 -2.4614
 7616TIP3   OH244262   6.231   3.756   1.119 -0.7902 -0.4625  0.0891
 7616TIP3    H144263   6.312   3.808   1.117 -0.5975 -0.6795  1.2145
 7616TIP3    H244264   6.212   3.737   1.027 -0.8260  1.5083 -0.3508
 7617TIP3   OH244265   6.468   0.403  10.719 -0.1188  0.1994 -0.1950
 7617TIP3    H144266   6.385   0.449  10.729  0.5959  1.2446  1.2127
 7617TIP3    H244267   6.517   0.423  10.798  1.2006 -1.0089 -0.6513
 7618TIP3   OH244268   3.993   0.679   3.122  0.5779  0.0463 -0.4417
 7618TIP3    H144269   3.934   0.720   3.058  0.5091  1.2150  0.3521
 7618TIP3    H244270   4.070   0.656   3.070  0.6096  1.1639 -0.9321
 7619TIP3   OH244271   6.361   1.294  15.343 -0.3136 -0.7090 -0.0907
 7619TIP3    H144272   6.270   1.323  15.345 -0.2315 -0.2241 -1.7936
 7619TIP3    H244273   6.355   1.198  15.341 -0.8770 -0.6753 -1.5910
 7620TIP3   OH244274   6.275   3.828   4.232  0.3270 -0.1022  0.0977
 7620TIP3    H144275   6.320   3.892   4.177 -0.6821 -0.5323 -1.2877
 7620TIP3    H244276   6.227   3.880   4.295 -0.0490  0.5058 -0.6703
 7621TIP3   OH244277   1.415   3.709   3.445 -0.1739  0.4207  0.5765
 7621TIP3    H144278   1.416   3.691   3.351  0.7545  0.2156  0.6094
 7621TIP3    H244279   1.397   3.624   3.485  1.2583  0.1063  0.6279
 7622TIP3   OH244280   4.530   4.297  12.072 -0.6048  0.0263  0.2352
 7622TIP3    H144281   4.501   4.217  12.028 -1.8714 -1.1317  2.9494
 7622TIP3    H244282   4.623   4.303  12.050 -0.7050 -1.6230 -0.8512
 7623TIP3   OH244283   4.699   1.475  15.550 -0.0124  0.2503 -0.1707
 7623TIP3    H144284   4.765   1.517  15.605  0.4169 -0.8434  0.1823
 7623TIP3    H244285   4.744   1.399  15.513 -1.3950 -1.2265  1.0230
 7624TIP3   OH244286   2.077   4.857   1.132 -0.4086 -0.2159  0.5796
 7624TIP3    H144287   2.093   4.945   1.099  0.0238 -0.0989  1.0812
 7624TIP3    H244288   2.141   4.846   1.203 -1.6877 -0.2183  1.7798
 7625TIP3   OH244289   4.894   4.030  13.747  0.3272 -0.3550  0.1280
 7625TIP3    H144290   4.860   4.097  13.689  1.6936  0.3529  0.1129
 7625TIP3    H244291   4.906   3.953  13.691 -0.3139 -0.3162 -0.0654
 7626TIP3   OH244292   2.390   4.562  15.959  0.3918  0.2001  0.0481
 7626TIP3    H144293   2.442   4.643  15.957  0.4622  0.1497 -0.7443
 7626TIP3    H244294   2.328   4.575  16.030 -0.0519  1.2528 -0.5072
 7627TIP3   OH244295   2.510   4.198   0.369  0.1162  0.2347  0.3143
 7627TIP3    H144296   2.595   4.173   0.406  0.3255  1.0065  0.3774
 7627TIP3    H244297   2.468   4.250   0.437  0.4877  1.6229 -0.4922
 7628TIP3   OH244298   6.255   0.323  14.468  0.1057  0.0865 -0.0803
 7628TIP3    H144299   6.220   0.342  14.555  0.4166 -2.7603  0.7779
 7628TIP3    H244300   6.229   0.233  14.451  1.9900 -0.1764 -1.9766
 7629TIP3   OH244301   4.960   4.858  15.827  0.5060  0.1137  0.5808
 7629TIP3    H144302   4.953   4.921  15.755  0.6623 -0.0347  0.4360
 7629TIP3    H244303   4.901   4.892  15.894 -0.7051 -0.4900 -0.1496
 7630TIP3   OH244304   0.034   5.515   1.770  0.1739  0.0274  0.2821
 7630TIP3    H144305  -0.036   5.456   1.796  0.8040 -0.5141  0.7872
 7630TIP3    H244306   0.006   5.601   1.799 -0.4821 -0.1140  0.0746
 7631TIP3   OH244307   0.664   3.467   3.862 -0.0480 -0.2963 -0.6986
 7631TIP3    H144308   0.626   3.380   3.870  0.0514 -0.2554  0.2972
 7631TIP3    H244309   0.753   3.458   3.895 -0.6554  0.5898  1.3450
 7632TIP3   OH244310   2.429   0.046  14.379  0.2940 -0.1860  0.0689
 7632TIP3    H144311   2.517   0.083  14.375  0.6575 -0.7735  1.7137
 7632TIP3    H244312   2.419   0.020  14.470 -1.9378  0.6901  0.1208
 7633TIP3   OH244313   6.053   0.914   2.706  0.4226 -0.3720 -0.3812
 7633TIP3    H144314   6.097   0.937   2.624  1.0235  0.1013  0.0579
 7633TIP3    H244315   6.001   0.990   2.728 -0.5470 -0.8875 -0.8346
 7634TIP3   OH244316   6.493   0.902  14.011  0.1523  0.2604 -1.2418
 7634TIP3    H144317   6.525   0.989  14.036  0.1279 -0.5217  1.9217
 7634TIP3    H244318   6.409   0.918  13.969  0.9760  1.8516 -2.3677
 7635TIP3   OH244319   4.564   2.406  13.685 -0.5450  0.1064 -0.6968
 7635TIP3    H144320   4.477   2.444  13.699 -0.6727 -0.3318 -0.2698
 7635TIP3    H244321   4.572   2.400  13.589 -0.0409  2.2689 -0.8310
 7636TIP3   OH244322   2.848   5.979   4.012  0.4579 -1.1526  0.3694
 7636TIP3    H144323   2.813   6.066   3.993 -1.7615 -1.9219  0.6519
 7636TIP3    H244324   2.928   5.973   3.960 -0.5458  0.2101 -1.4346
 7637TIP3   OH244325   2.550   5.202   3.306  0.3789  0.1071 -0.1882
 7637TIP3    H144326   2.606   5.270   3.342  0.8025 -0.0980 -0.4494
 7637TIP3    H244327   2.465   5.215   3.348  0.7420  0.1485  0.5373
 7638TIP3   OH244328   3.922   3.789   3.244  0.5090 -0.1161 -0.2178
 7638TIP3    H144329   3.940   3.747   3.160 -0.4342  1.6518 -1.3701
 7638TIP3    H244330   3.827   3.801   3.245  0.6697  1.2857  0.3737
 7639TIP3   OH244331   5.711   3.999  14.680 -0.0580  0.2910  0.5063
 7639TIP3    H144332   5.760   3.924  14.715  0.1036 -0.6402 -1.6132
 7639TIP3    H244333   5.755   4.076  14.718  0.5998 -0.6284  1.6704
 7640TIP3   OH244334   6.033   4.513   3.466 -0.4920 -0.0755  0.0821
 7640TIP3    H144335   5.951   4.527   3.419 -1.1780 -0.3187  1.1660
 7640TIP3    H244336   6.096   4.491   3.398 -1.2804  0.2967 -0.7919
 7641TIP3   OH244337   3.137   5.260  13.251 -0.1316  0.0764 -0.3812
 7641TIP3    H144338   3.179   5.262  13.337 -1.1552 -0.3867  0.1575
 7641TIP3    H244339   3.198   5.213  13.195  0.6251  0.5336  0.0493
 7642TIP3   OH244340   2.503   5.125  15.461  0.2332  0.3144 -0.6290
 7642TIP3    H144341   2.573   5.191  15.461 -0.4364  1.0703 -1.6692
 7642TIP3    H244342   2.525   5.067  15.388  1.1567 -1.0282  0.6700
 7643TIP3   OH244343   2.222   2.128   5.236 -0.8680 -0.0390  0.2026
 7643TIP3    H144344   2.147   2.184   5.222 -1.4106 -0.6094  0.7521
 7643TIP3    H244345   2.192   2.063   5.300 -0.1723 -0.7763 -0.1949
 7644TIP3   OH244346   0.278   5.271   0.595  0.2535 -0.4084 -0.2832
 7644TIP3    H144347   0.200   5.269   0.650  0.8933  1.6864  0.7925
 7644TIP3    H244348   0.294   5.364   0.579  1.8437 -0.8519 -1.4985
 7645TIP3   OH244349   5.733   5.774   1.994 -0.0703  0.3474 -0.0083
 7645TIP3    H144350   5.712   5.840   2.060  0.2538 -3.3670  4.3257
 7645TIP3    H244351   5.828   5.765   1.998  0.0033  0.2546 -1.3292
 7646TIP3   OH244352   6.548   3.206  15.300 -0.0538  0.2418  0.1967
 7646TIP3    H144353   6.479   3.260  15.339 -0.4985  0.4673 -0.8617
 7646TIP3    H244354   6.628   3.235  15.343 -0.3360  1.4962 -0.0759
 7647TIP3   OH244355   2.514   0.421   2.570 -0.0101 -0.0991 -0.0530
 7647TIP3    H144356   2.541   0.405   2.660 -0.8807  0.0363  0.2482
 7647TIP3    H244357   2.476   0.509   2.572  0.0791 -0.0451 -0.5750
 7648TIP3   OH244358   0.218   4.056  15.884  0.3165 -0.2230  0.2842
 7648TIP3    H144359   0.236   4.124  15.819  0.6096 -1.5893 -1.1454
 7648TIP3    H244360   0.160   4.097  15.947  0.6362  1.3969 -0.4334
 7649TIP3   OH244361   1.258   4.204   5.126  0.9539  0.4626  0.1719
 7649TIP3    H144362   1.276   4.115   5.154  1.2158  0.2244 -0.7393
 7649TIP3    H244363   1.323   4.257   5.172  0.8229  0.1827  0.6829
 7650TIP3   OH244364   2.709   3.533  12.966 -0.3678 -0.0078 -0.3328
 7650TIP3    H144365   2.614   3.538  12.954 -0.2420  0.2607 -1.3914
 7650TIP3    H244366   2.743   3.522  12.877  0.5746 -0.4997  0.0702
 7651TIP3   OH244367   3.103   6.293  11.013  0.3603  0.5955 -0.0446
 7651TIP3    H144368   3.092   6.325  11.103  0.3033 -2.9649  1.3870
 7651TIP3    H244369   3.198   6.297  10.998  0.4875  0.1999  0.6181
 7652TIP3   OH244370   1.131   2.611   0.840 -0.1034 -0.0592  0.1762
 7652TIP3    H144371   1.207   2.604   0.897 -0.9204 -1.5161  1.1502
 7652TIP3    H244372   1.091   2.524   0.843 -1.6988  0.6217 -0.4730
 7653TIP3   OH244373   0.941   2.057  16.914 -0.2243 -0.1063 -0.6558
 7653TIP3    H144374   1.006   2.014  16.970 -0.2568  1.4417  0.6397
 7653TIP3    H244375   0.952   2.016  16.828  1.9141 -0.4421 -0.2707
 7654TIP3   OH244376   3.561   0.615  11.451 -0.0918  0.0273 -0.4269
 7654TIP3    H144377   3.582   0.701  11.488 -1.6556 -0.8653  3.0011
 7654TIP3    H244378   3.642   0.564  11.461 -0.6758 -0.4641  3.0859
 7655TIP3   OH244379   0.733   0.027   1.133 -0.1072  0.3442  0.3761
 7655TIP3    H144380   0.715  -0.045   1.073  1.5075  0.2771 -0.0860
 7655TIP3    H244381   0.777  -0.015   1.208 -0.0764  0.7067  0.5612
 7656TIP3   OH244382   3.293   6.007  13.704 -0.2032 -0.4277  0.0563
 7656TIP3    H144383   3.256   6.094  13.691 -1.7536 -0.8516  1.2685
 7656TIP3    H244384   3.257   5.954  13.633 -1.6429 -0.7279  0.9697
 7657TIP3   OH244385   3.783   4.782   3.206  0.2825  0.0471 -0.5517
 7657TIP3    H144386   3.825   4.699   3.183  2.7343  1.0101  0.0637
 7657TIP3    H244387   3.727   4.761   3.280  1.0349 -1.0283 -0.2665
 7658TIP3   OH244388   3.115   4.919   0.432  0.1542 -0.0094  0.1253
 7658TIP3    H144389   3.182   4.977   0.469  1.1887 -1.0467 -0.0818
 7658TIP3    H244390   3.090   4.863   0.505  0.4861 -0.4992 -0.1317
 7659TIP3   OH244391   3.497   6.410   4.385  0.2629  0.0229 -0.0669
 7659TIP3    H144392   3.547   6.478   4.429 -4.1796  3.4091  0.4138
 7659TIP3    H244393   3.512   6.426   4.292  2.0984 -0.8757  0.0286
 7660TIP3   OH244394   5.413   2.145  11.354 -0.1308 -0.4956  0.2037
 7660TIP3    H144395   5.480   2.115  11.416 -1.9496 -0.8725  2.1269
 7660TIP3    H244396   5.459   2.155  11.271  1.3664 -5.5539  0.1157
 7661TIP3   OH244397   2.061   4.646   0.375 -0.4067 -0.2434  0.0081
 7661TIP3    H144398   2.134   4.604   0.421  0.9472  1.8071 -0.1063
 7661TIP3    H244399   2.039   4.585   0.304  1.0413 -1.0453  0.2032
 7662TIP3   OH244400   5.489   2.603  16.341 -0.3641 -0.0968 -0.4669
 7662TIP3    H144401   5.518   2.512  16.329 -0.6210 -0.4995  1.6434
 7662TIP3    H244402   5.570   2.654  16.340 -0.0869 -0.5216 -0.2351
 7663TIP3   OH244403   5.955   4.285   4.817 -0.0059 -0.4270 -0.7894
 7663TIP3    H144404   5.930   4.373   4.848  0.4203 -0.9521  1.1693
 7663TIP3    H244405   5.874   4.249   4.780 -0.9412 -0.2475  0.9697
 7664TIP3   OH244406   5.757   1.669  15.290  0.3901 -0.1674  0.1718
 7664TIP3    H144407   5.718   1.615  15.359  0.1438 -1.5611 -1.0084
 7664TIP3    H244408   5.720   1.756  15.304 -0.8353 -0.7744  0.8663
 7665TIP3   OH244409   5.257   2.281   3.830 -0.2406 -0.4635 -0.3560
 7665TIP3    H144410   5.217   2.194   3.826  1.4738 -1.3118  0.0577
 7665TIP3    H244411   5.327   2.272   3.895  0.4520  1.0313 -0.8543
 7666TIP3   OH244412   6.180   1.533  11.824 -0.4489  0.3875  0.5543
 7666TIP3    H144413   6.224   1.602  11.774  3.2019 -1.8522  0.3077
 7666TIP3    H244414   6.177   1.458  11.765  2.0305 -1.6685  2.7678
 7667TIP3   OH244415   0.202   5.203  17.049  0.2305  0.2268 -0.1869
 7667TIP3    H144416   0.265   5.132  17.065 -0.7610 -0.4980  0.6287
 7667TIP3    H244417   0.254   5.283  17.060  0.9984 -0.3491  0.6001
 7668TIP3   OH244418   4.326   3.864   2.129 -0.0319 -0.1277  0.1350
 7668TIP3    H144419   4.323   3.797   2.197 -2.5360 -1.3157 -1.0409
 7668TIP3    H244420   4.360   3.819   2.052 -2.2044 -0.2765 -0.8049
 7669TIP3   OH244421   5.205   2.890   4.505  0.6311  0.3962  0.4128
 7669TIP3    H144422   5.265   2.895   4.580  1.0233 -0.4308  0.1758
 7669TIP3    H244423   5.248   2.829   4.445  1.8695  3.2923 -1.9129
 7670TIP3   OH244424   4.290   6.370  13.101  1.0743  0.5895  0.1330
 7670TIP3    H144425   4.291   6.434  13.172  1.1463  1.4045 -0.5829
 7670TIP3    H244426   4.305   6.422  13.022 -0.0955 -0.1512 -0.6005
 7671TIP3   OH244427   5.418   6.087  11.209 -0.4124 -0.4156 -0.3205
 7671TIP3    H144428   5.404   6.180  11.195 -0.9941 -0.5098 -0.3835
 7671TIP3    H244429   5.511   6.074  11.191 -0.6518 -0.1229 -1.9053
 7672TIP3   OH244430   3.422   3.711   3.202 -0.7157 -0.1267 -0.3872
 7672TIP3    H144431   3.356   3.720   3.270 -0.0395  0.3520  0.2252
 7672TIP3    H244432   3.487   3.651   3.239 -0.2604  0.2661 -0.5323
 7673TIP3   OH244433   3.574   4.603   3.637 -0.7244 -0.4328  0.3037
 7673TIP3    H144434   3.524   4.569   3.563 -0.3014 -0.8843  0.2216
 7673TIP3    H244435   3.530   4.684   3.660 -0.4549  0.0666 -0.8805
 7674TIP3   OH244436   1.609   0.680   0.335 -0.3018  0.3377 -0.2690
 7674TIP3    H144437   1.514   0.683   0.347 -0.2552 -0.7059  0.4299
 7674TIP3    H244438   1.622   0.615   0.266  0.0310 -1.4252  1.3991
 7675TIP3   OH244439   3.677   2.572  11.489 -0.0575  0.0748  0.7364
 7675TIP3    H144440   3.611   2.618  11.436  0.7745  0.0060 -0.3953
 7675TIP3    H244441   3.740   2.539  11.425  2.2153  1.9075  1.9009
 7676TIP3   OH244442   3.012   1.641  13.770  0.2294  0.5202  0.1445
 7676TIP3    H144443   2.987   1.590  13.847 -1.4207  0.9476 -0.0629
 7676TIP3    H244444   3.046   1.576  13.708 -0.7341 -0.1891  0.3290
 7677TIP3   OH244445   3.537   5.694  12.420 -0.1776  0.4540 -0.0942
 7677TIP3    H144446   3.543   5.782  12.457  1.4582 -0.0527  0.9414
 7677TIP3    H244447   3.483   5.645  12.482 -1.2140  0.7279 -0.7469
 7678TIP3   OH244448   1.729   0.873   5.336  0.5082  0.3677 -0.4856
 7678TIP3    H144449   1.748   0.931   5.262 -0.6455 -0.0494 -1.1575
 7678TIP3    H244450   1.737   0.928   5.413  1.8562  0.7882 -0.9072
 7679TIP3   OH244451   4.822   4.772   5.421  0.4303 -0.6147 -0.3947
 7679TIP3    H144452   4.855   4.684   5.438  2.8603  0.3962  0.6373
 7679TIP3    H244453   4.808   4.774   5.326  2.5947 -1.4504 -0.8031
 7680TIP3   OH244454   4.703   3.345   0.639  0.1181 -0.0039 -0.7464
 7680TIP3    H144455   4.748   3.261   0.633  0.0182 -0.0844 -0.4245
 7680TIP3    H244456   4.659   3.356   0.555 -1.4968 -1.2109 -0.1187
 7681TIP3   OH244457   4.789   5.600  16.179  0.2687 -0.1082  0.1603
 7681TIP3    H144458   4.829   5.589  16.092 -2.6586 -4.3860 -0.9585
 7681TIP3    H244459   4.713   5.656  16.163  0.4735  0.2019  0.2652
 7682TIP3   OH244460   3.249   5.255   1.094  0.0840 -0.6778 -0.5255
 7682TIP3    H144461   3.165   5.210   1.098 -0.3661  0.1665 -0.3736
 7682TIP3    H244462   3.263   5.273   1.001  0.9048 -2.2895 -0.7486
 7683TIP3   OH244463   3.514   2.850  12.602 -0.9658  0.4036  0.0780
 7683TIP3    H144464   3.532   2.842  12.508 -2.6048  0.3981 -0.2662
 7683TIP3    H244465   3.593   2.816  12.645 -0.8257 -1.1018 -1.2914
 7684TIP3   OH244466   4.954   2.210   3.850  0.5157 -0.1463  0.2071
 7684TIP3    H144467   5.005   2.132   3.829 -0.6435 -0.8608 -0.0445
 7684TIP3    H244468   4.957   2.263   3.770  1.6076  0.2572  0.5006
 7685TIP3   OH244469   3.081   3.994   5.361  0.4638 -0.1578  0.1200
 7685TIP3    H144470   3.013   4.047   5.320  0.7694 -2.9919 -4.8441
 7685TIP3    H244471   3.161   4.045   5.349 -0.0065  0.9368  1.3404
 7686TIP3   OH244472   2.854   5.345   1.213  0.3702 -0.2757 -0.4031
 7686TIP3    H144473   2.881   5.410   1.278  0.4917  2.4327 -2.9495
 7686TIP3    H244474   2.771   5.378   1.179 -1.6057 -3.5493  0.7519
 7687TIP3   OH244475   2.366   6.417   1.648  0.4124 -0.2518  0.4833
 7687TIP3    H144476   2.359   6.511   1.633 -1.4214 -0.4790 -0.4671
 7687TIP3    H244477   2.338   6.405   1.739 -0.7829  0.0247  0.1745
 7688TIP3   OH244478   1.453   0.527  12.147  0.1532 -0.5128  0.2207
 7688TIP3    H144479   1.407   0.475  12.212 -0.0339 -0.2097  0.3312
 7688TIP3    H244480   1.443   0.477  12.065 -1.5700  0.2243 -0.0620
 7689TIP3   OH244481   1.944   4.651  16.332 -0.9472 -0.7831  0.4366
 7689TIP3    H144482   1.900   4.715  16.276 -0.8069 -0.2488  0.9284
 7689TIP3    H244483   2.015   4.617  16.277 -0.6093 -0.0289  0.3909
 7690TIP3   OH244484   0.501   1.795  10.784 -0.0410  0.9426  0.0382
 7690TIP3    H144485   0.426   1.737  10.775  2.0135 -1.5259 -3.4753
 7690TIP3    H244486   0.487   1.862  10.717 -0.8200  2.8437  1.9581
 7691TIP3   OH244487   4.488   2.546   0.569  0.1332 -0.1768  0.2238
 7691TIP3    H144488   4.446   2.538   0.484  0.0328  0.1206  0.2430
 7691TIP3    H244489   4.421   2.583   0.626 -0.2747 -1.7388  0.8097
 7692TIP3   OH244490   6.414   3.531  10.400  1.0616 -0.3578 -0.5641
 7692TIP3    H144491   6.490   3.479  10.374  1.2144 -0.2461 -0.3443
 7692TIP3    H244492   6.352   3.467  10.434  0.6615 -0.5664 -1.6483
 7693TIP3   OH244493   5.170   6.060   5.787  0.2028  0.7681  0.3144
 7693TIP3    H144494   5.090   6.027   5.746  0.3548  0.2668  0.4086
 7693TIP3    H244495   5.153   6.055   5.881  0.6742 -0.2132  0.3615
 7694TIP3   OH244496   3.128   3.849  13.710 -0.7724  0.2913 -0.3192
 7694TIP3    H144497   3.032   3.846  13.713 -0.7697  0.2139 -0.3090
 7694TIP3    H244498   3.156   3.783  13.774 -0.7107  1.5705  1.0155
 7695TIP3   OH244499   3.336   3.549   5.617  0.4821 -0.2527  0.1133
 7695TIP3    H144500   3.260   3.523   5.565  1.2550  0.8648 -1.6814
 7695TIP3    H244501   3.352   3.475   5.676  1.7567 -3.3752 -3.7510
 7696TIP3   OH244502   4.258   5.534  14.562 -0.4638  0.2192 -0.1827
 7696TIP3    H144503   4.185   5.519  14.501 -0.5563  2.1123 -0.5979
 7696TIP3    H244504   4.224   5.599  14.624  0.9258  1.2982 -0.5178
 7697TIP3   OH244505   2.771   1.333   4.021  0.1845 -0.1863 -0.1627
 7697TIP3    H144506   2.800   1.364   4.107 -1.0048 -1.0512  0.5889
 7697TIP3    H244507   2.706   1.398   3.994  2.8000  1.8961 -1.9635
 7698TIP3   OH244508   6.671   3.199  16.209  0.1930  0.0968  0.1754
 7698TIP3    H144509   6.608   3.126  16.214  0.1076  0.2125  0.8532
 7698TIP3    H244510   6.742   3.173  16.268  0.1561  0.5643  0.4294
 7699TIP3   OH244511   5.776   1.399  15.678 -0.3326 -0.5888 -0.3448
 7699TIP3    H144512   5.769   1.309  15.646  0.4062 -0.9983  0.5800
 7699TIP3    H244513   5.709   1.406  15.746  0.4940 -0.8791  0.5176
 7700TIP3   OH244514   3.777   1.369   0.417 -0.0011  0.5048  0.0065
 7700TIP3    H144515   3.837   1.396   0.347 -0.1147  1.3500  0.2288
 7700TIP3    H244516   3.787   1.274   0.421  0.4132  0.5041 -0.7876
 7701TIP3   OH244517   2.781   1.245   5.702  0.1612 -0.3047  0.4439
 7701TIP3    H144518   2.807   1.200   5.621 -0.9543  2.1397 -1.4050
 7701TIP3    H244519   2.685   1.246   5.698  0.1261  2.6201  0.0649
 7702TIP3   OH244520   1.907   1.314   5.320 -0.3380  0.1294 -0.0596
 7702TIP3    H144521   1.945   1.321   5.407  2.4756 -1.7705 -1.0101
 7702TIP3    H244522   1.917   1.401   5.282  1.0454  0.2541  0.5353
 7703TIP3   OH244523   2.499   5.667   1.607 -0.4909 -0.1127 -0.2950
 7703TIP3    H144524   2.507   5.599   1.674  0.3146 -0.3380 -0.6159
 7703TIP3    H244525   2.452   5.624   1.536  1.2891 -0.8094 -1.1014
 7704TIP3   OH244526   1.141   3.272   6.222  0.1719 -0.3724 -0.3533
 7704TIP3    H144527   1.076   3.273   6.293  0.9015 -1.2349  0.3382
 7704TIP3    H244528   1.098   3.223   6.152  0.0175 -0.8214  0.0478
 7705TIP3   OH244529   2.049   1.230  15.016 -0.5348 -0.0567  0.0618
 7705TIP3    H144530   2.013   1.185  14.940 -0.7531 -0.0444  0.1578
 7705TIP3    H244531   2.143   1.212  15.013 -0.7993 -1.7942  0.9278
 7706TIP3   OH244532   6.350   3.366  15.377  0.0742  0.0139  0.1265
 7706TIP3    H144533   6.262   3.385  15.345 -0.3665 -0.3384  1.0866
 7706TIP3    H244534   6.342   3.369  15.472  1.0017 -0.4495  0.2302
 7707TIP3   OH244535   0.550   4.791   4.030 -0.2789  0.5286  0.2907
 7707TIP3    H144536   0.469   4.806   4.078 -0.7867  0.6597 -0.5896
 7707TIP3    H244537   0.531   4.818   3.940 -0.1248 -1.9330 -0.5867
 7708TIP3   OH244538   1.227   0.119  12.723  0.5665 -0.0689  0.5404
 7708TIP3    H144539   1.279   0.060  12.778  0.3580  0.7844  1.6808
 7708TIP3    H244540   1.292   0.167  12.672  0.8298 -0.1291  0.8136
 7709TIP3   OH244541   1.719   4.697   2.669  0.1981  0.2546 -0.3977
 7709TIP3    H144542   1.747   4.702   2.578  1.0946 -1.9545 -0.3128
 7709TIP3    H244543   1.801   4.704   2.719 -0.3011  1.6216  0.2661
 7710TIP3   OH244544   5.268   4.950  12.628  0.1462  0.7197 -0.2664
 7710TIP3    H144545   5.305   5.009  12.693  1.6131 -0.5613  0.1347
 7710TIP3    H244546   5.342   4.928  12.571 -0.9220  1.1951 -1.9286
 7711TIP3   OH244547   4.192   5.680   5.585 -0.3781 -0.5820 -0.2898
 7711TIP3    H144548   4.241   5.728   5.651  0.3318  0.1345 -1.3229
 7711TIP3    H244549   4.107   5.662   5.627 -0.0297  0.0618  0.7209
 7712TIP3   OH244550   6.465   3.209   5.119 -0.1578  0.2487  0.4401
 7712TIP3    H144551   6.549   3.235   5.080  0.6037 -1.3658  0.8880
 7712TIP3    H244552   6.461   3.257   5.202  0.6299 -0.1189  0.6997
 7713TIP3   OH244553   5.178   6.237  17.193 -0.2731  0.7808 -0.0459
 7713TIP3    H144554   5.127   6.298  17.247  0.2755  1.0966  0.1199
 7713TIP3    H244555   5.115   6.169  17.169 -0.4763  0.4685  1.2499
 7714TIP3   OH244556   2.338   3.929  13.889 -0.2491 -0.3743  0.1261
 7714TIP3    H144557   2.429   3.945  13.864  0.1864 -3.1259 -0.3762
 7714TIP3    H244558   2.296   4.015  13.885  1.6518  0.5573 -2.4443
 7715TIP3   OH244559   5.553   4.906  15.862 -0.4174  0.4803  0.2301
 7715TIP3    H144560   5.551   4.820  15.819  0.3879 -1.0863  3.0606
 7715TIP3    H244561   5.646   4.925  15.873 -0.5870  1.8268 -0.4989
 7716TIP3   OH244562   3.121   4.790  11.774 -0.1365  0.1449 -0.4548
 7716TIP3    H144563   3.058   4.754  11.712 -0.2222 -1.9131  0.7252
 7716TIP3    H244564   3.072   4.856  11.823 -0.7495  0.1041 -1.0021
 7717TIP3   OH244565   2.807   2.929  13.172 -0.1050 -0.3911 -0.9508
 7717TIP3    H144566   2.865   2.889  13.237  2.1720  1.9725 -1.3059
 7717TIP3    H244567   2.852   2.916  13.088  0.9307  2.8534 -1.0558
 7718TIP3   OH244568   2.298   6.693   4.931  0.1427  0.2128  0.9894
 7718TIP3    H144569   2.222   6.721   4.880 -0.5973 -2.7262  0.2981
 7718TIP3    H244570   2.373   6.721   4.879 -0.4969  1.2197  0.5735
 7719TIP3   OH244571   2.182   2.807   0.969 -0.1645 -0.8598  0.3981
 7719TIP3    H144572   2.112   2.821   0.905  0.0544 -2.0957 -0.1435
 7719TIP3    H244573   2.254   2.770   0.918  0.1240 -1.5878  1.3102
 7720TIP3   OH244574   1.260   5.139  15.484  0.2163  0.5524 -0.2737
 7720TIP3    H144575   1.269   5.233  15.500  0.4877  0.7197 -1.3096
 7720TIP3    H244576   1.189   5.133  15.421  0.7923  0.1383 -0.8914
 7721TIP3   OH244577   0.529   0.677   1.453 -0.4186 -0.3640  0.0915
 7721TIP3    H144578   0.593   0.606   1.447 -0.3999 -0.3559  0.1934
 7721TIP3    H244579   0.579   0.756   1.432  0.3315  0.0468  3.0653
 7722TIP3   OH244580   1.431   0.911  11.000 -0.1911 -0.0102  1.0390
 7722TIP3    H144581   1.387   0.845  10.946  1.0156 -0.0993  0.1310
 7722TIP3    H244582   1.450   0.983  10.940  2.1362 -0.5542  1.0270
 7723TIP3   OH244583   1.994   5.863  15.753 -0.2922 -0.0614  0.7899
 7723TIP3    H144584   1.931   5.792  15.767 -0.6866  0.4650  1.7466
 7723TIP3    H244585   2.071   5.820  15.716 -1.4167 -0.6431 -0.9944
 7724TIP3   OH244586   6.739   0.849  14.991 -0.9722 -0.8015  0.1727
 7724TIP3    H144587   6.722   0.823  15.081  0.8275 -0.7022  0.5785
 7724TIP3    H244588   6.684   0.926  14.977 -1.6427 -1.1196  1.0186
 7725TIP3   OH244589   4.383   4.295  11.487 -0.0372 -0.0481 -0.1893
 7725TIP3    H144590   4.303   4.257  11.452 -0.0577 -1.3820  1.1906
 7725TIP3    H244591   4.443   4.221  11.495  0.5570  0.5254  0.8907
 7726TIP3   OH244592   6.726   0.418  16.021 -0.0764  0.7589  0.4301
 7726TIP3    H144593   6.757   0.394  16.108  0.2766  0.1920  0.1577
 7726TIP3    H244594   6.634   0.391  16.020  0.7356 -2.5557 -0.5007
 7727TIP3   OH244595   1.180   0.850   4.765  0.1998 -0.1023 -0.8915
 7727TIP3    H144596   1.193   0.802   4.846 -0.0326 -2.0831 -1.9520
 7727TIP3    H244597   1.159   0.782   4.700 -0.1417  1.4523 -2.4900
 7728TIP3   OH244598   3.275   0.289   4.848 -0.4833  0.1758  0.3754
 7728TIP3    H144599   3.185   0.267   4.821 -0.0546 -2.4627  0.8820
 7728TIP3    H244600   3.271   0.294   4.943  0.1945 -1.6531  0.5336
 7729TIP3   OH244601   3.826   3.345  12.449 -0.2563  0.3731 -1.0199
 7729TIP3    H144602   3.900   3.405  12.460 -0.0464  0.5317 -2.9693
 7729TIP3    H244603   3.866   3.264  12.417 -0.9715  0.8082 -3.1594
 7730TIP3   OH244604   2.871   1.086  13.801 -0.9252  0.2039  0.5122
 7730TIP3    H144605   2.825   1.035  13.735  0.5560 -0.2614 -0.2088
 7730TIP3    H244606   2.845   1.177  13.784 -2.4351 -0.1429  0.8661
 7731TIP3   OH244607   1.169   2.137  13.741  0.6461  0.6462  0.0699
 7731TIP3    H144608   1.168   2.113  13.648  1.3137  1.4902 -0.1624
 7731TIP3    H244609   1.081   2.170  13.758  0.5185  0.4790 -0.2566
 7732TIP3   OH244610   3.333   5.798   2.887  0.7715 -0.3360  0.6407
 7732TIP3    H144611   3.359   5.805   2.979  0.6062  1.0747  0.6002
 7732TIP3    H244612   3.238   5.805   2.888  0.7974  0.1211  0.3384
 7733TIP3   OH244613   0.624   5.513  12.500  0.0781 -0.2482 -0.0445
 7733TIP3    H144614   0.563   5.577  12.462 -0.4206 -1.3607 -1.2155
 7733TIP3    H244615   0.710   5.555  12.494 -0.2166  0.2513 -0.9254
 7734TIP3   OH244616   5.386   4.220  15.641  0.7512 -0.3831 -0.9207
 7734TIP3    H144617   5.365   4.202  15.732  1.7307  0.4784 -0.5068
 7734TIP3    H244618   5.302   4.236  15.599  0.0417 -3.2530 -0.7641
 7735TIP3   OH244619   0.098   5.222   1.611 -0.0255  0.1150  0.1900
 7735TIP3    H144620   0.056   5.223   1.697 -0.5408 -0.8598 -0.0281
 7735TIP3    H244621   0.030   5.251   1.551  0.1766  0.2925  0.0442
 7736TIP3   OH244622   2.053   3.977   4.403  0.0800  0.3685 -0.6221
 7736TIP3    H144623   1.975   3.945   4.357 -0.5280 -1.0189  1.2334
 7736TIP3    H244624   2.018   4.018   4.482  1.2066  0.1974 -0.0203
 7737TIP3   OH244625   3.469   5.402   3.002  0.0495 -0.4033  0.6604
 7737TIP3    H144626   3.388   5.393   2.952  0.5605 -1.3674 -0.0585
 7737TIP3    H244627   3.516   5.320   2.985  1.1633  0.1278  1.0699
 7738TIP3   OH244628   6.170   4.364   5.917  0.1287  0.1081  0.2408
 7738TIP3    H144629   6.253   4.317   5.917 -0.9488 -1.9672 -1.0181
 7738TIP3    H244630   6.140   4.360   6.008  0.6513 -0.5680  0.3855
 7739TIP3   OH244631   6.023   4.732   4.885  0.0683 -0.8821  0.1181
 7739TIP3    H144632   6.084   4.802   4.861 -1.5665  0.8160  0.7121
 7739TIP3    H244633   5.971   4.768   4.956 -0.0261 -3.1875  1.3171
 7740TIP3   OH244634   2.792   1.232   0.557 -0.2828  0.6199  0.1163
 7740TIP3    H144635   2.863   1.195   0.611 -0.4470 -0.1795 -0.1979
 7740TIP3    H244636   2.796   1.326   0.574 -0.7174  0.3498  2.0108
 7741TIP3   OH244637   2.191   4.432   5.383 -0.5015  0.0766  0.6365
 7741TIP3    H144638   2.173   4.465   5.471  0.9450  1.8028  0.3298
 7741TIP3    H244639   2.123   4.471   5.328 -0.3084  0.5131  0.7009
 7742TIP3   OH244640   0.933   1.372   2.625  0.2879 -0.4792 -0.1815
 7742TIP3    H144641   0.869   1.443   2.639  1.5413  0.5779  0.3945
 7742TIP3    H244642   0.945   1.335   2.713 -1.6039 -2.5687 -0.7285
 7743TIP3   OH244643   4.804   4.997   0.222 -0.3910 -0.4956 -0.0275
 7743TIP3    H144644   4.770   4.954   0.300 -1.4890 -0.4364 -0.4533
 7743TIP3    H244645   4.898   4.984   0.226 -0.5039 -1.0644  0.9609
 7744TIP3   OH244646   0.175   2.618   2.218 -0.3986  0.8856 -0.3701
 7744TIP3    H144647   0.145   2.540   2.264  1.9741 -0.3205 -0.7190
 7744TIP3    H244648   0.176   2.686   2.285 -1.4364  0.3608  0.2057
 7745TIP3   OH244649   5.766   3.111   3.692 -0.1612  0.3531  0.1072
 7745TIP3    H144650   5.781   3.051   3.765  0.6079  0.5757  0.1395
 7745TIP3    H244651   5.673   3.135   3.699 -0.3296 -0.3683  0.4378
 7746TIP3   OH244652   6.278   2.744  11.556  0.8289 -0.5358  0.1351
 7746TIP3    H144653   6.284   2.831  11.516 -0.4311 -0.3190  0.3883
 7746TIP3    H244654   6.222   2.757  11.632  1.0654 -1.4757  0.4711
 7747TIP3   OH244655   1.655   4.580   2.141 -0.3454 -0.2878  0.4403
 7747TIP3    H144656   1.593   4.518   2.104 -0.0389  1.1129 -2.6818
 7747TIP3    H244657   1.614   4.665   2.129  0.7052  0.3959  1.5215
 7748TIP3   OH244658   0.643   1.940  13.345  0.0602 -0.0106  0.2771
 7748TIP3    H144659   0.681   2.026  13.331 -0.1541  0.0086 -0.1890
 7748TIP3    H244660   0.557   1.958  13.385  0.2922 -0.0347  0.7977
 7749TIP3   OH244661   6.714   3.834  13.240 -0.0051 -0.0541 -0.1025
 7749TIP3    H144662   6.632   3.791  13.216 -0.3918  1.2384 -1.1639
 7749TIP3    H244663   6.754   3.859  13.157  2.2394 -1.9742  0.3004
 7750TIP3   OH244664   6.379   6.284   2.474 -0.2368  0.2702  0.0652
 7750TIP3    H144665   6.416   6.226   2.407  1.7513  0.6708  0.7469
 7750TIP3    H244666   6.287   6.259   2.479 -0.0519 -0.9165 -1.6122
 7751TIP3   OH244667   4.741   0.064  13.758 -0.3986  0.5674 -0.2854
 7751TIP3    H144668   4.811  -0.001  13.748 -1.2156 -0.5864  1.0009
 7751TIP3    H244669   4.699   0.068  13.673 -1.1216 -1.5862 -0.0890
 7752TIP3   OH244670   2.691   2.067   4.103  0.0742 -0.3724  0.2692
 7752TIP3    H144671   2.637   2.004   4.054 -0.0776 -0.4176  0.4930
 7752TIP3    H244672   2.640   2.085   4.182  0.7446 -1.0260  0.8694
 7753TIP3   OH244673   6.017   0.662  16.750  0.3672  0.1054 -0.8227
 7753TIP3    H144674   5.986   0.595  16.689  0.4912 -0.7972  0.0898
 7753TIP3    H244675   5.938   0.702  16.784  0.2139 -1.0646  0.2551
 7754TIP3   OH244676   3.750   3.799   1.465  0.1087  0.1865  0.1167
 7754TIP3    H144677   3.789   3.768   1.547  2.2129 -0.7208 -1.1326
 7754TIP3    H244678   3.722   3.889   1.484 -3.3028 -1.2699  2.9407
 7755TIP3   OH244679   2.963   2.065  12.349  0.0948 -0.3049  0.6336
 7755TIP3    H144680   3.048   2.080  12.308 -0.3231 -2.7955 -1.4132
 7755TIP3    H244681   2.928   2.153  12.365  1.8061  0.8131 -1.2333
 7756TIP3   OH244682   0.283   2.613   1.812  0.3327  0.2696  0.1333
 7756TIP3    H144683   0.369   2.625   1.773  0.6955 -0.5558  0.6466
 7756TIP3    H244684   0.301   2.587   1.902 -0.4602  0.3571  0.3262
 7757TIP3   OH244685   4.474   0.970  15.221  0.5178  0.1050 -0.2196
 7757TIP3    H144686   4.387   0.935  15.240  0.2355  0.1407 -1.3592
 7757TIP3    H244687   4.485   1.043  15.282 -0.1767 -0.0199  0.0555
 7758TIP3   OH244688   5.947   0.398   2.636 -0.0260  0.0295 -0.3216
 7758TIP3    H144689   5.980   0.309   2.653  0.0989  0.3001  0.9202
 7758TIP3    H244690   5.993   0.453   2.699 -0.4812  0.9100 -0.7427
 7759TIP3   OH244691   3.657   2.280   0.484 -0.4252  0.1683 -0.4470
 7759TIP3    H144692   3.569   2.244   0.497 -0.2556 -0.6831 -1.5079
 7759TIP3    H244693   3.698   2.222   0.419  0.6763  0.9600 -0.5006
 7760TIP3   OH244694   3.301   3.557  12.140 -0.4717  0.3144  0.0924
 7760TIP3    H144695   3.278   3.464  12.138  1.4454 -0.2310  1.1552
 7760TIP3    H244696   3.276   3.586  12.227  1.3492  0.0853  0.7233
 7761TIP3   OH244697   6.539   2.757   3.364  0.2321 -0.3481 -0.1294
 7761TIP3    H144698   6.631   2.753   3.389  0.6354  1.2928 -1.1683
 7761TIP3    H244699   6.491   2.753   3.447  1.2586 -0.6951  0.4551
 7762TIP3   OH244700   1.362   6.235   6.114 -0.4946  0.4031  0.2960
 7762TIP3    H144701   1.317   6.307   6.158 -2.0997 -1.3079  1.5809
 7762TIP3    H244702   1.291   6.182   6.075  0.6678 -0.2322 -1.0621
 7763TIP3   OH244703   1.205   4.281   1.438 -0.0589 -0.6087  0.3211
 7763TIP3    H144704   1.148   4.207   1.417 -0.6729  0.3217 -1.4943
 7763TIP3    H244705   1.225   4.320   1.353 -1.2443  2.3760  1.2864
 7764TIP3   OH244706   4.247   5.484  11.720 -0.0686 -0.4675 -0.2230
 7764TIP3    H144707   4.237   5.470  11.814  0.4927 -1.4214 -0.2888
 7764TIP3    H244708   4.169   5.445  11.681 -1.2554  1.5787 -0.0715
 7765TIP3   OH244709   5.481   3.975   3.739  0.7825 -0.4936  0.0411
 7765TIP3    H144710   5.478   3.887   3.703 -0.1775 -0.3070 -0.3643
 7765TIP3    H244711   5.542   4.022   3.682 -0.8329 -0.1610 -1.5049
 7766TIP3   OH244712   3.066   4.511   4.115 -0.2284  0.4206  0.1926
 7766TIP3    H144713   3.143   4.540   4.162  0.9149  1.1864 -2.0191
 7766TIP3    H244714   3.099   4.447   4.051 -1.7829 -0.9609  0.6861
 7767TIP3   OH244715   4.389   4.090  11.972  0.4184 -0.2745 -0.2458
 7767TIP3    H144716   4.328   4.062  12.041  0.3467  0.6331  0.0762
 7767TIP3    H244717   4.344   4.068  11.891 -1.3467  2.2443 -0.0763
 7768TIP3   OH244718   0.446   1.843  12.309  0.1647  0.3586 -0.0673
 7768TIP3    H144719   0.442   1.924  12.257  0.0568  0.3526 -0.0687
 7768TIP3    H244720   0.519   1.794  12.272 -0.9306 -0.3935 -1.2907
 7769TIP3   OH244721   6.022   0.116   1.744  0.2339  0.2529  0.0973
 7769TIP3    H144722   6.023   0.026   1.709  2.7296 -0.0691  0.8030
 7769TIP3    H244723   5.999   0.170   1.669  2.5533 -0.6822 -1.3967
 7770TIP3   OH244724   0.464   2.748  15.780 -0.2770  0.0756 -0.3229
 7770TIP3    H144725   0.529   2.681  15.802 -2.3735 -1.4099  1.8294
 7770TIP3    H244726   0.498   2.789  15.700  2.6613 -1.3960  0.0339
 7771TIP3   OH244727   1.710   5.394   0.937  0.3059  0.4565  0.1624
 7771TIP3    H144728   1.772   5.430   0.874  1.7428  0.1703  1.3408
 7771TIP3    H244729   1.719   5.451   1.014 -1.1547  0.6026  0.2504
 7772TIP3   OH244730   5.029   4.233  16.240 -0.3286 -0.5259  0.2382
 7772TIP3    H144731   5.029   4.295  16.312 -0.2738  0.2419 -0.4004
 7772TIP3    H244732   4.978   4.158  16.271 -1.9731  0.6132  0.3880
 7773TIP3   OH244733   1.124   5.100  13.155  0.5637 -0.2147  0.2836
 7773TIP3    H144734   1.035   5.117  13.125 -0.0672  1.7566  2.8322
 7773TIP3    H244735   1.117   5.018  13.205  0.0449  0.1261  0.7940
 7774TIP3   OH244736   2.289   0.385   4.630 -0.7877  0.7326  0.2933
 7774TIP3    H144737   2.309   0.440   4.706  0.9808  1.0623 -0.3541
 7774TIP3    H244738   2.286   0.446   4.556  0.9718  0.0492 -0.4005
 7775TIP3   OH244739   6.218   4.271   0.436 -0.4075 -0.1564 -0.3871
 7775TIP3    H144740   6.255   4.204   0.494 -0.4213 -0.3182 -0.5618
 7775TIP3    H244741   6.211   4.227   0.351 -1.1988 -0.2031 -0.3127
 7776TIP3   OH244742   1.163   4.515   6.014 -0.2792  0.1846  0.3380
 7776TIP3    H144743   1.115   4.488   5.936 -0.6293 -1.1010  0.9757
 7776TIP3    H244744   1.110   4.586   6.051 -1.7745 -1.2264  1.0491
 7777TIP3   OH244745   3.625   1.998   5.765 -0.1120  0.0317 -0.1920
 7777TIP3    H144746   3.614   2.058   5.840  1.5840  0.9190 -0.6048
 7777TIP3    H244747   3.697   1.941   5.791 -1.3364 -1.5129 -0.0490
 7778TIP3   OH244748   1.889   6.167   0.645 -0.1073 -0.8262 -0.1034
 7778TIP3    H144749   1.853   6.082   0.671 -0.3970 -1.1902 -1.5854
 7778TIP3    H244750   1.976   6.146   0.611  0.8892 -0.1680  1.9171
 7779TIP3   OH244751   3.375   4.157  12.017 -0.2685 -0.2993  0.0744
 7779TIP3    H144752   3.436   4.229  12.034  0.7441 -1.6093  2.5960
 7779TIP3    H244753   3.388   4.135  11.925  1.0300  1.2532 -0.1609
 7780TIP3   OH244754   0.540   4.335   6.002  0.2686 -0.9283  0.1216
 7780TIP3    H144755   0.574   4.362   5.917  0.4089  1.5594  0.8877
 7780TIP3    H244756   0.616   4.334   6.060 -0.1659 -0.2469  0.7280
 7781TIP3   OH244757   3.834   3.973  13.001  0.1372 -0.2803 -0.1668
 7781TIP3    H144758   3.775   3.969  12.926  0.9017  0.1355 -0.8038
 7781TIP3    H244759   3.839   4.067  13.022  0.3094 -0.3481  0.1003
 7782TIP3   OH244760   5.458   3.271   0.383 -0.2206 -0.2127 -0.2366
 7782TIP3    H144761   5.381   3.217   0.399 -1.1786  1.7120  2.3595
 7782TIP3    H244762   5.423   3.352   0.345  0.8649 -0.2772 -1.4513
 7783TIP3   OH244763   1.434   3.102  13.797  0.1735  0.4339  0.6601
 7783TIP3    H144764   1.448   3.169  13.864  0.6740  1.6462 -0.6114
 7783TIP3    H244765   1.490   3.129  13.724  0.9513 -1.7784  0.3675
 7784TIP3   OH244766   4.187   1.476  14.923  1.2470  0.1799  0.3488
 7784TIP3    H144767   4.239   1.556  14.938 -0.9830  1.6293  0.8937
 7784TIP3    H244768   4.137   1.466  15.004  0.9544 -1.3786 -0.0121
 7785TIP3   OH244769   4.215   2.172  15.079 -0.4783 -0.2015 -0.3086
 7785TIP3    H144770   4.145   2.187  15.016 -1.4138 -2.6765  0.0415
 7785TIP3    H244771   4.171   2.164  15.163  0.3952 -0.2391  0.1605
 7786TIP3   OH244772   1.593   1.634  14.032 -0.2870  0.3117 -0.3595
 7786TIP3    H144773   1.621   1.604  13.945  0.2247 -1.0517  0.2457
 7786TIP3    H244774   1.514   1.583  14.051  0.8024 -0.9871  0.8468
 7787TIP3   OH244775   4.187   4.129   2.145 -0.4008 -0.2529 -0.3723
 7787TIP3    H144776   4.198   4.128   2.050  0.3559  0.3451 -0.2984
 7787TIP3    H244777   4.234   4.051   2.175 -1.6128 -1.0909 -0.5672
 7788TIP3   OH244778   6.108   0.285   2.422 -0.3206 -0.0218  0.2399
 7788TIP3    H144779   6.083   0.297   2.514 -1.4282  2.2360 -0.2678
 7788TIP3    H244780   6.169   0.357   2.405 -0.7948  0.1095 -1.0030
 7789TIP3   OH244781   3.747   4.181  13.740 -0.2585  0.5189  0.0384
 7789TIP3    H144782   3.657   4.211  13.726 -0.7906 -0.5851  0.8764
 7789TIP3    H244783   3.757   4.107  13.679 -0.5283 -0.4535  1.1395
 7790TIP3   OH244784   1.680   4.337   2.620 -0.6047 -0.1483  0.1945
 7790TIP3    H144785   1.702   4.244   2.616 -0.3655 -0.0688 -0.3732
 7790TIP3    H244786   1.747   4.380   2.566  0.8017  0.6334  2.4201
 7791TIP3   OH244787   0.752   4.442   5.538 -0.3317  0.1878 -0.1969
 7791TIP3    H144788   0.768   4.359   5.493 -1.2750  0.0577 -0.3215
 7791TIP3    H244789   0.657   4.450   5.540 -0.3093  0.4234  1.3648
 7792TIP3   OH244790   5.007   2.362  13.836 -0.5013 -0.2084  0.0881
 7792TIP3    H144791   5.023   2.456  13.845 -1.4331  0.2420 -2.2308
 7792TIP3    H244792   5.007   2.329  13.925 -0.3811  2.0369  0.9803
 7793TIP3   OH244793   1.290   5.510  17.071  0.7431 -0.2641 -0.1021
 7793TIP3    H144794   1.340   5.466  17.140 -0.2731  0.0732  0.8798
 7793TIP3    H244795   1.269   5.439  17.009  1.0533 -0.7155  0.2966
 7794TIP3   OH244796   4.661   6.074  10.573  0.4123  0.4153  0.0837
 7794TIP3    H144797   4.646   6.102  10.483 -0.0482  1.2563  0.4090
 7794TIP3    H244798   4.737   6.124  10.602 -0.7849  1.8506  0.8685
 7795TIP3   OH244799   3.263   3.341   4.524 -0.0924 -0.0218  0.0367
 7795TIP3    H144800   3.221   3.414   4.479  1.2005 -0.2262 -1.5894
 7795TIP3    H244801   3.203   3.268   4.513 -1.0891  0.5967  1.1102
 7796TIP3   OH244802   2.511   1.769   3.947  0.4639 -0.4555 -0.4017
 7796TIP3    H144803   2.533   1.829   3.875  0.5133  1.3575  1.0455
 7796TIP3    H244804   2.596   1.742   3.982  0.4471 -1.6974 -1.2765
 7797TIP3   OH244805   0.303   2.245   2.520  0.6988  0.0125 -0.2561
 7797TIP3    H144806   0.242   2.173   2.535  0.9301  0.2449  2.0790
 7797TIP3    H244807   0.388   2.210   2.545  1.4321  0.0187 -2.5148
 7798TIP3   OH244808   0.137   3.177   2.126  0.2291 -0.2004 -0.2650
 7798TIP3    H144809   0.198   3.216   2.188  2.3798 -0.9925 -1.7709
 7798TIP3    H244810   0.139   3.235   2.050 -1.0097 -0.1951 -0.3231
 7799TIP3   OH244811   2.432   1.848   0.730  0.2134 -0.5843  0.4369
 7799TIP3    H144812   2.429   1.943   0.743  0.6191 -0.4845 -0.1538
 7799TIP3    H244813   2.361   1.814   0.785  0.6229 -0.0226  1.3424
 7800TIP3   OH244814   3.630   5.444   6.095 -0.6725  0.5240 -0.2247
 7800TIP3    H144815   3.649   5.500   6.171 -0.6503  0.6952 -0.3541
 7800TIP3    H244816   3.546   5.404   6.115 -0.0855 -0.4143  0.4538
 7801TIP3   OH244817   6.099   4.801   0.443 -0.1850  0.3582 -0.4914
 7801TIP3    H144818   6.030   4.813   0.509 -0.0334  1.8846 -0.5941
 7801TIP3    H244819   6.137   4.716   0.465 -0.9567  0.2755  0.6320
 7802TIP3   OH244820   1.228   5.169   0.021 -0.1654  0.4646 -0.2147
 7802TIP3    H144821   1.246   5.127  -0.063 -0.4602  0.3372 -0.2174
 7802TIP3    H244822   1.304   5.224   0.038  0.0562  0.2137 -0.3936
 7803TIP3   OH244823   1.844   3.048   0.491  0.1938 -0.0125 -0.7832
 7803TIP3    H144824   1.791   2.970   0.506 -1.4310  1.0374 -0.8036
 7803TIP3    H244825   1.799   3.095   0.421  1.6345  0.5333 -1.3920
 7804TIP3   OH244826   0.839   1.614   3.369  0.7391 -0.1997  0.1466
 7804TIP3    H144827   0.752   1.581   3.389  0.5542  0.8894  1.2851
 7804TIP3    H244828   0.848   1.603   3.274 -0.2846 -1.1087  0.1378
 7805TIP3   OH244829   1.375   3.383  13.736  0.4486 -0.0683  0.0519
 7805TIP3    H144830   1.355   3.470  13.702  0.8946  0.1892  0.4270
 7805TIP3    H244831   1.436   3.346  13.672  2.1496  0.8386  1.0722
 7806TIP3   OH244832   6.035   2.046  14.146 -0.2843 -0.5274  0.7298
 7806TIP3    H144833   6.043   2.139  14.127 -1.4676 -0.5181  0.2172
 7806TIP3    H244834   6.032   2.004  14.060  1.6766 -1.1979  0.9443
 7807TIP3   OH244835   4.219   6.747  12.039  0.3223  0.4011  0.2941
 7807TIP3    H144836   4.262   6.728  12.122 -1.1745 -0.4762  0.9099
 7807TIP3    H244837   4.288   6.784  11.984  1.8292 -0.9144  1.2263
 7808TIP3   OH244838   3.743   3.913  14.517 -0.5747 -0.6877  0.2248
 7808TIP3    H144839   3.764   3.895  14.609 -1.0075 -0.4411  0.3807
 7808TIP3    H244840   3.656   3.873  14.505 -0.2881 -1.1796 -0.2286
 7809TIP3   OH244841   3.925   1.573   5.489 -0.2671 -0.4616  0.5764
 7809TIP3    H144842   3.936   1.643   5.424  0.6584 -0.0124  1.2004
 7809TIP3    H244843   3.846   1.596   5.536  0.2894  0.4386  1.0945
 7810TIP3   OH244844   4.671   4.113   5.937 -0.0583  0.2962 -0.3350
 7810TIP3    H144845   4.665   4.022   5.965  1.9788  0.8692  2.2676
 7810TIP3    H244846   4.631   4.163   6.008 -0.9828  1.5194 -1.6387
 7811TIP3   OH244847   2.430   3.357  15.362 -0.4511 -0.5832  0.2136
 7811TIP3    H144848   2.408   3.442  15.401  1.3822 -0.8996  2.1192
 7811TIP3    H244849   2.447   3.300  15.437  0.3180 -2.0878 -1.0493
 7812TIP3   OH244850   3.325   2.029   4.155 -0.3949 -0.5985  0.1585
 7812TIP3    H144851   3.308   2.106   4.102  0.8783  0.0538  0.6661
 7812TIP3    H244852   3.415   2.038   4.183  0.4296 -3.2040 -1.2849
 7813TIP3   OH244853   4.417   2.493  16.707 -0.0784 -0.9788 -0.1861
 7813TIP3    H144854   4.335   2.475  16.662  0.7111 -3.8671 -0.6955
 7813TIP3    H244855   4.400   2.472  16.799  0.4226 -3.1823 -0.5380
 7814TIP3   OH244856   3.641   2.993  13.202  0.0619 -0.0328 -0.1612
 7814TIP3    H144857   3.620   3.016  13.292  1.5596  1.1258 -0.0700
 7814TIP3    H244858   3.732   2.964  13.205  0.6173  1.4054 -1.4855
 7815TIP3   OH244859   1.348   4.329   1.677 -0.5541 -0.5891  0.4939
 7815TIP3    H144860   1.301   4.316   1.595 -0.2328 -1.4952  0.4381
 7815TIP3    H244861   1.394   4.246   1.692  0.8051  0.1583  0.6856
 7816TIP3   OH244862   0.230   0.624  12.450 -0.6021  0.0090 -0.0251
 7816TIP3    H144863   0.231   0.718  12.436 -1.3046  0.1109  0.5304
 7816TIP3    H244864   0.138   0.603  12.467 -0.4675 -0.7871 -0.2214
 7817TIP3   OH244865   6.686   5.580   3.205  0.4882 -0.0963  0.1296
 7817TIP3    H144866   6.627   5.656   3.198 -0.7733 -0.8856  1.6666
 7817TIP3    H244867   6.651   5.517   3.142  0.9941  0.2200 -0.4864
 7818TIP3   OH244868   3.529   3.325   6.013 -0.2159 -0.1403 -0.0408
 7818TIP3    H144869   3.483   3.249   5.979 -1.0654  1.3475 -2.4903
 7818TIP3    H244870   3.480   3.350   6.092  0.2903 -2.2280  1.0199
 7819TIP3   OH244871   2.957   1.532  10.898  0.0869  0.4591  0.0896
 7819TIP3    H144872   3.037   1.491  10.866 -0.2177  0.7722 -1.1377
 7819TIP3    H244873   2.894   1.461  10.904  0.3098  0.2977  0.5819
 7820TIP3   OH244874   3.045   6.228  16.261 -0.5266 -0.5456 -0.2821
 7820TIP3    H144875   3.026   6.319  16.283  0.6557 -0.4064  0.2768
 7820TIP3    H244876   3.043   6.225  16.166 -0.0927  0.1864 -0.3213
 7821TIP3   OH244877   6.421   0.225   4.674  0.6242  0.3170  0.1610
 7821TIP3    H144878   6.442   0.255   4.763 -2.9712  0.2799  1.1781
 7821TIP3    H244879   6.468   0.142   4.666 -1.6879 -1.5861  3.5755
 7822TIP3   OH244880   4.403   3.964  13.275  0.3905 -0.8156 -0.4620
 7822TIP3    H144881   4.367   3.906  13.207 -1.6658  0.6977 -0.7327
 7822TIP3    H244882   4.467   4.018  13.229  1.3643 -1.9450 -0.4798
 7823TIP3   OH244883   6.550   6.694   6.243 -0.0491 -0.3639 -0.3432
 7823TIP3    H144884   6.543   6.647   6.160 -1.8688 -1.9112  0.6183
 7823TIP3    H244885   6.507   6.778   6.227 -1.7333 -1.2305 -0.6237
 7824TIP3   OH244886   3.922   4.912  12.160  0.2588  0.0061  0.1086
 7824TIP3    H144887   3.965   4.930  12.244 -1.1786  2.9624  0.3448
 7824TIP3    H244888   3.846   4.858  12.183  0.0306  0.5541  0.6737
 7825TIP3   OH244889   6.789   5.339   1.236  0.2379 -0.0620 -0.1366
 7825TIP3    H144890   6.741   5.404   1.184 -0.7871 -0.9699 -0.3616
 7825TIP3    H244891   6.760   5.254   1.202 -0.9569 -0.7144  2.2740
 7826TIP3   OH244892   0.511   2.543  12.076  0.4031  0.3842 -0.3327
 7826TIP3    H144893   0.547   2.458  12.099 -1.5584 -0.1221  1.1242
 7826TIP3    H244894   0.468   2.574  12.156  0.3146  2.3488 -1.0754
 7827TIP3   OH244895   1.217   1.131   6.584 -0.1671 -0.0099 -0.4777
 7827TIP3    H144896   1.285   1.193   6.612 -1.9954  1.5138  0.9168
 7827TIP3    H244897   1.255   1.086   6.509  2.4755  0.5340  0.4193
 7828TIP3   OH244898   5.974   5.012   2.655 -0.4705 -0.6239 -0.0693
 7828TIP3    H144899   6.014   4.926   2.665  1.2849  0.1651 -0.0451
 7828TIP3    H244900   6.046   5.074   2.662 -1.6934  0.8745 -0.0487
 7829TIP3   OH244901   0.712   1.896  12.039  0.2728  0.2627  0.2771
 7829TIP3    H144902   0.694   1.970  11.981  1.2003 -0.7513 -1.3947
 7829TIP3    H244903   0.722   1.822  11.979  2.8443 -0.5460  1.6035
 7830TIP3   OH244904   3.885   2.494  14.022  0.5055 -0.4344  0.6770
 7830TIP3    H144905   3.905   2.564  13.960 -2.3175 -0.4154 -0.3692
 7830TIP3    H244906   3.918   2.526  14.106  0.6215  1.4917 -0.0481
 7831TIP3   OH244907   6.685   0.137  10.534  0.1523  0.0872 -0.4015
 7831TIP3    H144908   6.775   0.105  10.547 -0.7844 -3.4334 -1.4321
 7831TIP3    H244909   6.675   0.143  10.439 -1.1452 -1.1389 -0.3685
 7832TIP3   OH244910   0.204   5.737   1.605  0.1562 -0.1135 -0.0721
 7832TIP3    H144911   0.287   5.774   1.636  1.1909 -2.5682  0.3085
 7832TIP3    H244912   0.138   5.777   1.662  1.3029  0.3193  1.0098
 7833TIP3   OH244913   3.578   0.189   4.206 -0.1211 -0.0938 -0.0089
 7833TIP3    H144914   3.555   0.153   4.292 -1.0236  0.6779  0.0935
 7833TIP3    H244915   3.659   0.144   4.182 -1.7279 -3.0633 -0.4065
 7834TIP3   OH244916   2.640   2.776  16.430 -0.9002 -0.2302  0.0135
 7834TIP3    H144917   2.655   2.683  16.442  0.9866  0.0052 -0.2926
 7834TIP3    H244918   2.632   2.787  16.335  2.4291  0.3290 -0.3115
 7835TIP3   OH244919   6.785   5.336   2.637 -0.2798 -0.0644 -0.8036
 7835TIP3    H144920   6.734   5.256   2.642 -2.1260  1.1457  1.6870
 7835TIP3    H244921   6.850   5.328   2.707 -0.5014  0.6124 -0.5124
 7836TIP3   OH244922   6.202   0.283   0.661  0.4692 -0.0787  0.3644
 7836TIP3    H144923   6.242   0.358   0.704  2.4779 -2.2546  2.5902
 7836TIP3    H244924   6.264   0.259   0.592  0.6874 -0.6528  0.7505
 7837TIP3   OH244925   3.692   4.910  11.715 -0.1407  0.3469  0.5300
 7837TIP3    H144926   3.609   4.905  11.668  1.0421 -2.9956 -1.5586
 7837TIP3    H244927   3.680   4.853  11.791  0.0719  0.3169  0.5418
 7838TIP3   OH244928   0.048   1.985   0.313  0.0891  0.6064  0.6475
 7838TIP3    H144929   0.139   2.002   0.336 -0.0576  1.0489  0.9175
 7838TIP3    H244930  -0.003   2.031   0.380 -0.3330 -0.6755  1.2321
 7839TIP3   OH244931   0.157   6.413   4.970 -0.0482  0.1745  0.1266
 7839TIP3    H144932   0.091   6.469   4.931  0.8323  0.5133 -0.9360
 7839TIP3    H244933   0.232   6.472   4.985  0.6844 -0.5827 -0.4740
 7840TIP3   OH244934   4.311   5.370  11.207  0.0348 -0.3468  0.3048
 7840TIP3    H144935   4.296   5.332  11.120 -0.6039  0.6000 -0.0151
 7840TIP3    H244936   4.224   5.379  11.245  0.3024 -0.6657  1.0192
 7841TIP3   OH244937   0.272   1.149  13.339 -0.3165 -0.0464  0.1643
 7841TIP3    H144938   0.356   1.125  13.380 -0.5923 -1.4013 -0.0081
 7841TIP3    H244939   0.212   1.162  13.413 -0.4797 -1.1914  0.2559
 7842TIP3   OH244940   4.219   3.396  14.426  0.3027 -0.2258  0.2137
 7842TIP3    H144941   4.189   3.316  14.382 -0.3279  0.1621 -0.0654
 7842TIP3    H244942   4.140   3.436  14.461  0.1345  1.9180 -2.3365
 7843TIP3   OH244943   2.105   1.446  15.635  0.2904 -0.3060  0.1738
 7843TIP3    H144944   2.072   1.455  15.725 -1.0788 -0.3618 -0.3001
 7843TIP3    H244945   2.034   1.402  15.588  0.7478  0.2394 -1.0659
 7844TIP3   OH244946   4.982   0.745  13.122  0.4268  0.1940 -0.4083
 7844TIP3    H144947   5.016   0.736  13.033  0.2901 -2.6754 -0.2554
 7844TIP3    H244948   5.058   0.768  13.175  1.0593 -0.6961 -0.9058
 7845TIP3   OH244949   5.446   3.788   2.220 -0.2075 -0.1067 -0.0858
 7845TIP3    H144950   5.412   3.720   2.279  0.7476  0.1627  0.8036
 7845TIP3    H244951   5.513   3.833   2.272  2.7189 -1.6464 -2.2352
 7846TIP3   OH244952   1.158   0.641  12.790  0.3341  0.3266 -0.3473
 7846TIP3    H144953   1.079   0.623  12.841  0.2539 -0.5150 -0.7511
 7846TIP3    H244954   1.230   0.629  12.853  0.2578 -1.0622 -0.4892
 7847TIP3   OH244955   2.263   6.095   3.984 -0.2717  0.1343 -0.9004
 7847TIP3    H144956   2.250   6.008   4.022  1.6884 -0.8710 -2.3581
 7847TIP3    H244957   2.177   6.136   3.989 -1.2205 -1.8221 -0.0274
 7848TIP3   OH244958   3.034   3.076  12.171 -0.0526  0.1059 -0.3025
 7848TIP3    H144959   3.040   3.048  12.079 -0.1910 -1.3258  0.1126
 7848TIP3    H244960   3.116   3.123  12.187  0.2167 -0.1135 -0.9919
 7849TIP3   OH244961   5.056   1.839  16.591  0.4695 -0.0258  0.4948
 7849TIP3    H144962   5.063   1.929  16.623  0.0076  0.5601 -0.9553
 7849TIP3    H244963   5.123   1.833  16.523 -0.8132 -0.1408 -0.7804
 7850TIP3   OH244964   0.337   1.819   5.754  0.7372  0.1106  0.4835
 7850TIP3    H144965   0.331   1.783   5.842 -0.7988  0.1950  0.4370
 7850TIP3    H244966   0.334   1.914   5.766  0.8843  0.1329  0.3566
 7851TIP3   OH244967   3.973   2.343   3.847 -0.0756  0.3304 -0.2078
 7851TIP3    H144968   3.927   2.310   3.770  3.1367  0.0725 -2.1913
 7851TIP3    H244969   4.029   2.270   3.874  0.5114  1.1937  0.9940
 7852TIP3   OH244970   0.967   4.777   1.815 -0.2125 -0.1959 -0.6541
 7852TIP3    H144971   0.965   4.862   1.859  3.5704 -1.4752  2.5956
 7852TIP3    H244972   0.912   4.721   1.869  1.0274 -0.8062  0.0134
 7853TIP3   OH244973   2.330   4.551  16.892  0.3045  0.1937  0.1328
 7853TIP3    H144974   2.271   4.526  16.821  1.6513 -0.6229 -0.7482
 7853TIP3    H244975   2.321   4.480  16.956  0.1463  0.2017  0.1192
 7854TIP3   OH244976   5.288   1.515  17.086 -0.2660  0.3177 -0.1250
 7854TIP3    H144977   5.197   1.497  17.061  0.4571 -1.8332 -1.5162
 7854TIP3    H244978   5.302   1.606  17.061 -2.0909  0.7750  0.3677
 7855TIP3   OH244979   3.192   4.449   2.015  0.8825 -0.4071  0.2172
 7855TIP3    H144980   3.120   4.424   1.957  0.1177 -1.8218  1.6769
 7855TIP3    H244981   3.194   4.380   2.081  3.4013 -0.2425  0.4150
 7856TIP3   OH244982   4.767   1.507  11.516 -0.1103 -0.1185  0.0134
 7856TIP3    H144983   4.800   1.580  11.464 -1.0134  1.5748  1.6835
 7856TIP3    H244984   4.797   1.526  11.605  0.0150 -2.0501  0.4139
 7857TIP3   OH244985   3.569   2.881   3.025  0.4970  0.7243  0.1223
 7857TIP3    H144986   3.479   2.912   3.038 -0.3349 -1.0128 -1.1143
 7857TIP3    H244987   3.597   2.851   3.111 -0.7833 -0.3322  0.1988
 7858TIP3   OH244988   0.812   3.382  13.615  0.0894  0.0482 -0.1351
 7858TIP3    H144989   0.758   3.455  13.648  1.6688  1.5361 -0.6832
 7858TIP3    H244990   0.898   3.396  13.655  0.2825 -1.9163  0.2382
 7859TIP3   OH244991   6.176   6.544   6.438  0.9680 -0.2943  0.8784
 7859TIP3    H144992   6.238   6.570   6.507  0.8153 -1.5123  1.5100
 7859TIP3    H244993   6.188   6.449   6.430 -2.1617 -0.9576  2.4221
 7860TIP3   OH244994   1.575   3.668   1.989  0.1006  0.1964 -0.1375
 7860TIP3    H144995   1.541   3.722   2.060 -1.1045 -0.7463  0.0361
 7860TIP3    H244996   1.630   3.603   2.033 -0.9921 -0.6566  0.0104
 7861TIP3   OH244997   1.328   6.536   5.929  0.3054 -0.4865 -0.4590
 7861TIP3    H144998   1.257   6.476   5.949 -0.1410  0.5916  1.5451
 7861TIP3    H244999   1.403   6.502   5.977  1.0268 -1.3097 -2.1136
 7862TIP3   OH245000   4.164   1.736   1.115 -0.2204  0.8758 -0.3896
 7862TIP3    H145001   4.140   1.761   1.204 -2.4636 -0.4361 -0.5400
 7862TIP3    H245002   4.248   1.779   1.100  0.1820  1.2380  2.2956
 7863TIP3   OH245003   6.717   2.764  11.136  0.1145 -0.5410  0.3134
 7863TIP3    H145004   6.754   2.705  11.070 -1.5993 -0.7156 -0.5456
 7863TIP3    H245005   6.626   2.735  11.145 -0.1724  0.6434  1.4421
 7864TIP3   OH245006   4.699   6.609   2.403 -0.7529 -0.3969  0.1619
 7864TIP3    H145007   4.670   6.519   2.413  0.1741 -0.7869 -0.4749
 7864TIP3    H245008   4.670   6.653   2.483  1.1490 -1.9205  1.7925
 7865TIP3   OH245009   0.657   1.065  12.615 -0.6796 -0.1221 -0.1972
 7865TIP3    H145010   0.634   1.136  12.554 -1.4390 -1.5946 -1.6914
 7865TIP3    H245011   0.656   1.107  12.701  0.9325  2.1554 -1.1838
 7866TIP3   OH245012   4.961   1.815   1.136 -0.0794  0.5439 -0.2057
 7866TIP3    H145013   4.955   1.837   1.043 -0.0254 -0.8303 -0.5524
 7866TIP3    H245014   5.046   1.849   1.163  0.3801  0.0022 -0.9325
 7867TIP3   OH245015   2.175   1.947  17.037 -0.3852  0.2207  0.1098
 7867TIP3    H145016   2.181   1.917  16.946  0.5175 -2.1530  0.8684
 7867TIP3    H245017   2.250   2.007  17.047  0.3955 -0.6509 -0.3399
 7868TIP3   OH245018   0.767   1.435  11.773  0.4648 -0.1734  0.2524
 7868TIP3    H145019   0.739   1.351  11.808  0.6530  0.0538  0.9602
 7868TIP3    H245020   0.703   1.498  11.807  0.6874  0.0597  0.2458
 7869TIP3   OH245021   4.435   2.990   2.098  0.2956  0.1605 -0.3979
 7869TIP3    H145022   4.377   2.914   2.094  0.5927 -0.4528  3.6076
 7869TIP3    H245023   4.516   2.959   2.056  0.2480 -1.6498  0.7248
 7870TIP3   OH245024   3.600   3.617  17.144  0.1179  0.3784 -0.1784
 7870TIP3    H145025   3.587   3.553  17.214 -1.0977  0.9442  0.1542
 7870TIP3    H245026   3.643   3.568  17.074  2.0389 -0.0245  1.2024
 7871TIP3   OH245027   4.601   0.264  12.675 -0.4711 -0.1039  0.1535
 7871TIP3    H145028   4.525   0.217  12.641  0.2028 -0.7505 -0.4826
 7871TIP3    H245029   4.600   0.348  12.627 -0.7546 -0.1259  0.1179
 7872TIP3   OH245030   2.561   3.326   2.349  0.5779 -0.0975 -0.1791
 7872TIP3    H145031   2.632   3.296   2.292 -0.2402 -1.8842 -0.3395
 7872TIP3    H245032   2.557   3.421   2.335  1.5486 -0.2507 -1.7697
 7873TIP3   OH245033   3.102   5.397  11.864  0.0154 -0.5000  0.3476
 7873TIP3    H145034   3.147   5.409  11.948 -1.0229  0.1156  0.8290
 7873TIP3    H245035   3.155   5.331  11.818  1.5769  0.3897  0.7718
 7874TIP3   OH245036   6.698   1.768   1.050  0.1389  0.1182  0.7025
 7874TIP3    H145037   6.689   1.680   1.012  0.2802 -0.2222  1.4225
 7874TIP3    H245038   6.622   1.816   1.018 -0.1621 -0.3989  0.6183
 7875TIP3   OH245039   2.117   3.930  14.186  0.5940  0.1864 -0.5003
 7875TIP3    H145040   2.027   3.948  14.214  0.5494 -1.7658  0.7746
 7875TIP3    H245041   2.108   3.882  14.104  0.3896 -0.7768  0.0621
 7876TIP3   OH245042   0.687   2.304   0.589  0.2420 -0.4892 -0.3378
 7876TIP3    H145043   0.775   2.281   0.617  0.5634  1.2103  0.1492
 7876TIP3    H245044   0.691   2.398   0.572 -1.9258  0.0351  1.5436
 7877TIP3   OH245045   0.265   3.135  11.825 -0.0337  0.2984 -0.4583
 7877TIP3    H145046   0.175   3.165  11.824 -0.6416 -1.4002 -2.0625
 7877TIP3    H245047   0.314   3.202  11.778 -0.7292  0.5155 -0.8891
 7878TIP3   OH245048   6.535   5.721  13.936  0.2155  0.1121 -0.0781
 7878TIP3    H145049   6.625   5.690  13.938 -0.2375 -1.2625  0.9472
 7878TIP3    H245050   6.505   5.704  13.847  0.9741  0.6166 -0.4362
 7879TIP3   OH245051   0.173   6.212   4.571  0.2966 -0.2262 -0.3036
 7879TIP3    H145052   0.218   6.278   4.518 -0.4192  1.0783  0.6663
 7879TIP3    H245053   0.217   6.214   4.656 -2.1120  1.8490  1.0350
 7880TIP3   OH245054   6.360   4.066   3.498 -0.4330  0.4471  0.6733
 7880TIP3    H145055   6.440   4.096   3.453 -0.1109 -0.9418  0.2576
 7880TIP3    H245056   6.324   4.000   3.439 -1.1289  0.0550  1.5221
 7881TIP3   OH245057   2.699   0.987   1.459 -0.2030 -0.3302 -0.1634
 7881TIP3    H145058   2.781   0.945   1.432  0.5838  2.0249 -1.7938
 7881TIP3    H245059   2.711   1.007   1.552  1.0634 -0.1222 -0.3491
 7882TIP3   OH245060   2.290   3.391   0.346  0.0996 -0.3404 -0.5109
 7882TIP3    H145061   2.216   3.415   0.401  0.4686  1.5822 -0.7592
 7882TIP3    H245062   2.357   3.457   0.366  1.2641 -1.2583 -1.2346
 7883TIP3   OH245063   5.199   0.457   5.657 -0.0512  0.3059 -0.2698
 7883TIP3    H145064   5.125   0.439   5.599 -0.1590  1.9488 -0.6935
 7883TIP3    H245065   5.233   0.541   5.627  1.1892  0.2019  0.7541
 7884TIP3   OH245066   1.860   0.242  16.169 -0.0050  0.3425  0.1994
 7884TIP3    H145067   1.925   0.189  16.216  0.9720  1.8335  0.6058
 7884TIP3    H245068   1.782   0.186  16.164  0.6735 -0.7678  1.4312
 7885TIP3   OH245069   5.945   0.853   1.133 -0.1388 -0.3867  0.1680
 7885TIP3    H145070   5.937   0.803   1.214  0.3967  0.7164  0.9375
 7885TIP3    H245071   5.918   0.942   1.157 -1.0463 -0.2739 -1.1506
 7886TIP3   OH245072   5.674   6.333  14.017 -0.1224 -0.1618  0.0337
 7886TIP3    H145073   5.704   6.321  14.107  2.5285 -3.9675 -1.1524
 7886TIP3    H245074   5.580   6.315  14.021  0.1251 -1.3019  1.9243
 7887TIP3   OH245075   4.265   0.726  12.208  0.1747 -0.7225 -0.1673
 7887TIP3    H145076   4.246   0.742  12.300 -0.0491  1.1895 -0.5122
 7887TIP3    H245077   4.183   0.742  12.163  0.6945  0.0635 -0.8721
 7888TIP3   OH245078   0.268   6.199  11.489  0.0658 -0.1344  0.0836
 7888TIP3    H145079   0.341   6.239  11.538 -0.6175 -0.2577  1.2382
 7888TIP3    H245080   0.194   6.256  11.506 -0.4147 -0.7215 -0.0213
 7889TIP3   OH245081   2.753   2.026   1.399 -0.3429  0.0232 -0.4621
 7889TIP3    H145082   2.782   2.067   1.318  1.9692 -2.1070 -0.8484
 7889TIP3    H245083   2.817   2.054   1.464  0.4967 -1.8032 -0.4488
 7890TIP3   OH245084   3.510   3.654  11.225  0.2662 -0.4958 -1.2173
 7890TIP3    H145085   3.419   3.633  11.242  0.8014 -2.9114 -0.9942
 7890TIP3    H245086   3.523   3.637  11.132  0.3737  0.4103 -1.3800
 7891TIP3   OH245087   3.054   2.737   3.898 -0.3448 -0.4820 -0.4010
 7891TIP3    H145088   3.090   2.650   3.881 -1.1970 -0.7132 -1.0428
 7891TIP3    H245089   2.962   2.722   3.917 -0.2355  0.1611  0.7636
 7892TIP3   OH245090   6.493   5.472   5.115 -0.2453  0.3706  0.1438
 7892TIP3    H145091   6.578   5.435   5.094 -1.0823  0.3745 -4.0114
 7892TIP3    H245092   6.509   5.566   5.124  0.4462  0.1431  1.5711
 7893TIP3   OH245093   0.563   1.277   5.050  0.3385 -0.1900  0.3573
 7893TIP3    H145094   0.489   1.292   5.108  1.2494  1.4386  1.1529
 7893TIP3    H245095   0.547   1.190   5.012 -2.2458  0.3578  0.0594
 7894TIP3   OH245096   2.850   6.631   2.969 -0.9556 -0.0018  0.1438
 7894TIP3    H145097   2.944   6.647   2.959 -0.0357 -3.4316  1.7825
 7894TIP3    H245098   2.810   6.718   2.963  2.3806  1.6972  0.2272
 7895TIP3   OH245099   6.296   0.580  14.918 -0.6598  0.5005  0.2061
 7895TIP3    H145100   6.283   0.504  14.974  0.7600 -1.3063 -1.7332
 7895TIP3    H245101   6.375   0.623  14.953 -0.6805  0.2983  0.5002
 7896TIP3   OH245102   5.833   6.467   1.739  0.0951  0.2571 -0.1451
 7896TIP3    H145103   5.772   6.538   1.720 -0.2651  0.6836  2.2708
 7896TIP3    H245104   5.870   6.490   1.824  0.1499 -2.3115  0.6009
 7897TIP3   OH245105   0.563   6.207  16.516  0.3463  0.8459  0.2270
 7897TIP3    H145106   0.590   6.249  16.434 -0.5211 -0.6327 -0.8678
 7897TIP3    H245107   0.644   6.202  16.568  0.9451  1.6941 -0.5886
 7898TIP3   OH245108   0.156   2.894  16.934 -0.1087 -0.2500  0.5064
 7898TIP3    H145109   0.148   2.840  17.012  0.4600 -0.2908  0.5381
 7898TIP3    H245110   0.075   2.945  16.931 -0.5949 -1.0104  0.5412
 7899TIP3   OH245111   5.455   5.854  14.135  0.5199  0.4532  0.0811
 7899TIP3    H145112   5.389   5.785  14.134 -1.3277  2.0309  1.7619
 7899TIP3    H245113   5.442   5.901  14.052  0.0322  0.2823  0.0588
 7900TIP3   OH245114   6.784   2.788  16.100 -0.2369 -0.2750 -0.1008
 7900TIP3    H145115   6.689   2.799  16.108 -0.1381  1.9457 -1.0541
 7900TIP3    H245116   6.796   2.741  16.017 -0.5120 -1.8079  0.7004
 7901TIP3   OH245117   1.281   6.404   2.262  0.3912  0.0135  0.4547
 7901TIP3    H145118   1.271   6.344   2.335 -0.9145 -1.0334 -0.5298
 7901TIP3    H245119   1.307   6.349   2.188  0.7273  0.8955 -0.1125
 7902TIP3   OH245120   5.399   5.325  13.137 -0.9525 -0.4521 -0.7145
 7902TIP3    H145121   5.340   5.343  13.064 -1.1951 -0.9287 -0.6412
 7902TIP3    H245122   5.341   5.320  13.213 -0.5190  1.9649 -0.1408
 7903TIP3   OH245123   2.066   4.425   0.983 -0.2298  0.2171  0.2325
 7903TIP3    H145124   2.095   4.347   0.935  0.9644  0.1633  0.9998
 7903TIP3    H245125   2.053   4.394   1.073  0.0351  0.8498  0.4967
 7904TIP3   OH245126   4.075   2.908  16.264 -0.0469  0.5873  0.0806
 7904TIP3    H145127   4.090   2.985  16.209  0.4073  0.6138  0.2318
 7904TIP3    H245128   4.002   2.933  16.321  0.8495  1.3595  0.9365
 7905TIP3   OH245129   4.984   3.228  16.641 -0.0003  0.8527 -0.2039
 7905TIP3    H145130   4.968   3.213  16.548  0.5761  0.2181 -0.2129
 7905TIP3    H245131   4.946   3.152  16.685 -1.0492  1.5701  0.1690
 7906TIP3   OH245132   4.211   2.623   5.234  0.2257  0.4446 -0.5674
 7906TIP3    H145133   4.286   2.635   5.291  0.1086  1.1987 -0.5680
 7906TIP3    H245134   4.188   2.711   5.204  0.7928  0.0032 -2.4360
 7907TIP3   OH245135   5.110   4.854   0.818 -0.5828  0.1567  0.6478
 7907TIP3    H145136   5.167   4.892   0.751  0.9029  0.2917  1.9141
 7907TIP3    H245137   5.063   4.784   0.774 -0.5563  1.0372 -0.8192
 7908TIP3   OH245138   5.146   0.044  14.528  0.2889  0.4424  0.4708
 7908TIP3    H145139   5.181  -0.029  14.579  3.4170  0.9384 -0.7440
 7908TIP3    H245140   5.114   0.003  14.448 -1.7521  0.0245  1.4409
 7909TIP3   OH245141   1.702   6.485  16.712 -0.3692 -0.2810 -0.6053
 7909TIP3    H145142   1.768   6.512  16.648  0.4655  0.4017  0.5190
 7909TIP3    H245143   1.679   6.565  16.759  0.0715 -0.9921  0.8855
 7910TIP3   OH245144   5.958   6.646  16.695  0.2454  0.1654  0.1076
 7910TIP3    H145145   5.916   6.689  16.620  0.7094  1.3571  0.5105
 7910TIP3    H245146   5.947   6.708  16.767  0.7795 -0.4771  0.7551
 7911TIP3   OH245147   6.088   5.362   4.983 -0.1223  0.2276  0.1812
 7911TIP3    H145148   6.097   5.430   4.917  1.0372 -0.1265 -0.0547
 7911TIP3    H245149   6.026   5.397   5.047 -1.0722  0.6752 -0.9612
 7912TIP3   OH245150   0.642   0.357   6.365  0.0366 -0.1251  0.3624
 7912TIP3    H145151   0.563   0.410   6.369 -1.4209 -1.8817 -2.2577
 7912TIP3    H245152   0.711   0.418   6.340 -1.5061  0.6970 -2.1956
 7913TIP3   OH245153   4.250   6.540   3.686  0.1417  0.8972 -0.4054
 7913TIP3    H145154   4.185   6.505   3.747  1.4987  0.9608  1.1731
 7913TIP3    H245155   4.203   6.552   3.604 -1.7463  0.6787  0.5905
 7914TIP3   OH245156   6.415   3.097  17.078  0.7076  0.3936 -0.0147
 7914TIP3    H145157   6.360   3.145  17.016 -0.7491 -1.1746 -0.0225
 7914TIP3    H245158   6.355   3.072  17.148  1.4826 -1.0695  0.1595
 7915TIP3   OH245159   2.786   5.883   5.106  0.3722 -0.6276  0.0068
 7915TIP3    H145160   2.731   5.908   5.032 -0.0425  0.8144  0.7657
 7915TIP3    H245161   2.874   5.914   5.083  0.3710 -0.7501 -0.1591
 7916TIP3   OH245162   2.241   3.805  13.649  0.2550  0.3832  0.0979
 7916TIP3    H145163   2.205   3.881  13.604  0.9153  0.1378 -0.8715
 7916TIP3    H245164   2.238   3.828  13.742 -0.4788  1.1795 -0.1136
 7917TIP3   OH245165   3.076   0.280   3.726  0.9623 -0.2821  0.4453
 7917TIP3    H145166   3.104   0.365   3.761 -1.5327  0.1746  1.5674
 7917TIP3    H245167   3.058   0.298   3.633  0.0434  0.5606  0.7702
 7918TIP3   OH245168   1.815   2.625  10.855 -0.4384 -0.1590  0.1585
 7918TIP3    H145169   1.787   2.706  10.899 -0.5989 -0.4699  0.6367
 7918TIP3    H245170   1.735   2.591  10.815 -0.4163 -0.1993  0.1481
 7919TIP3   OH245171   0.310   5.177  14.066  0.4013  0.4810 -0.0768
 7919TIP3    H145172   0.223   5.218  14.069 -0.4919 -1.3007 -0.5330
 7919TIP3    H245173   0.315   5.138  13.979  2.4643  2.1569 -0.7877
 7920TIP3   OH245174   5.167   1.004   1.998 -0.1286 -0.0368  0.3052
 7920TIP3    H145175   5.141   1.084   2.044  2.7569 -0.2424  2.5798
 7920TIP3    H245176   5.200   1.035   1.914  0.7216  1.2143  1.0587
 7921TIP3   OH245177   2.495   5.629  11.631 -0.4393 -0.9758 -0.0780
 7921TIP3    H145178   2.553   5.618  11.556  0.9292 -0.5193  0.8677
 7921TIP3    H245179   2.553   5.624  11.707 -1.2499  1.7070  0.8569
 7922TIP3   OH245180   0.296   1.173  16.865  0.0008 -0.0386  0.1078
 7922TIP3    H145181   0.375   1.218  16.895 -1.6267  1.4183  2.5741
 7922TIP3    H245182   0.255   1.234  16.804  0.2884 -0.4124 -0.4738
 7923TIP3   OH245183   4.046   4.135   6.092 -0.1889 -0.4670 -0.2026
 7923TIP3    H145184   4.070   4.220   6.054 -1.3423 -0.1641 -0.2914
 7923TIP3    H245185   4.109   4.121   6.163  0.2392  0.2843 -0.4268
 7924TIP3   OH245186   4.778   5.190   5.304  0.3933 -0.5616  0.2034
 7924TIP3    H145187   4.844   5.124   5.325  0.9782  0.0711  0.3927
 7924TIP3    H245188   4.791   5.259   5.369  0.5628  0.2726 -0.6865
 7925TIP3   OH245189   4.934   2.984   4.551  0.2974  0.0679  1.0870
 7925TIP3    H145190   5.010   2.935   4.520 -0.1933 -0.7070  1.0859
 7925TIP3    H245191   4.969   3.070   4.575  0.8104  0.5387 -1.0716
 7926TIP3   OH245192   3.199   3.172  11.642 -0.4189  0.0215  0.0801
 7926TIP3    H145193   3.247   3.097  11.676  0.6545  0.5997 -0.1089
 7926TIP3    H245194   3.189   3.230  11.718 -0.9031 -0.1397  0.1394
 7927TIP3   OH245195   3.444   2.884   1.934  0.3519  0.3065 -0.0178
 7927TIP3    H145196   3.436   2.839   1.849 -0.7785  1.1795 -0.3976
 7927TIP3    H245197   3.490   2.821   1.989  0.3270 -0.6410 -1.0258
 7928TIP3   OH245198   0.371   1.938  12.689 -0.8112 -0.3071 -0.0829
 7928TIP3    H145199   0.412   1.899  12.765  0.2765 -0.9193 -0.9543
 7928TIP3    H245200   0.309   1.872  12.658  0.6477 -1.2097 -1.2442
 7929TIP3   OH245201   5.851   0.696   2.933 -0.1321  0.1153  0.0812
 7929TIP3    H145202   5.797   0.768   2.901 -0.1717  0.2767  0.5185
 7929TIP3    H245203   5.921   0.738   2.983  0.3414 -0.0980 -0.3814
 7930TIP3   OH245204   1.206   3.050  15.373 -0.1589 -0.3036  0.0764
 7930TIP3    H145205   1.172   3.054  15.283  1.3050 -2.2149 -0.6209
 7930TIP3    H245206   1.216   3.142  15.398 -0.0386  0.2945 -1.9411
 7931TIP3   OH245207   2.614   5.319  13.601 -0.0464  0.8949 -0.0035
 7931TIP3    H145208   2.650   5.253  13.659 -1.3079 -0.0071 -0.2115
 7931TIP3    H245209   2.689   5.375  13.579  0.8568  0.0647  0.8647
 7932TIP3   OH245210   5.742   4.074   2.496  0.4558  0.4365 -0.1880
 7932TIP3    H145211   5.676   4.118   2.551 -0.0983  0.3799 -0.7969
 7932TIP3    H245212   5.825   4.111   2.525  0.4355 -1.1224  2.1891
 7933TIP3   OH245213   5.193   5.608  14.572  0.3743 -0.1295 -0.3275
 7933TIP3    H145214   5.171   5.653  14.491  0.0207  0.8243  0.2656
 7933TIP3    H245215   5.155   5.521  14.563  1.1380 -0.3518 -1.5437
 7934TIP3   OH245216   6.280   5.182   1.813 -0.0638 -0.1857  0.1696
 7934TIP3    H145217   6.331   5.244   1.865 -0.4490  0.1048  0.2089
 7934TIP3    H245218   6.287   5.099   1.860  1.0917 -0.3727 -0.2908
 7935TIP3   OH245219   3.540   3.610   5.404  0.3522 -0.4893  0.1315
 7935TIP3    H145220   3.465   3.665   5.380 -0.4484 -2.3327 -1.8685
 7935TIP3    H245221   3.517   3.575   5.490 -1.3224 -1.3363 -0.6133
 7936TIP3   OH245222   2.301   3.189   1.740 -0.6177  0.7109 -0.3480
 7936TIP3    H145223   2.261   3.162   1.822  0.6907 -2.4126 -0.5877
 7936TIP3    H245224   2.271   3.125   1.676  1.6446  0.5363 -1.3534
 7937TIP3   OH245225   3.666   6.267   1.042  0.2599  0.5130 -0.5016
 7937TIP3    H145226   3.644   6.332   1.108 -1.4623  0.0890 -0.6122
 7937TIP3    H245227   3.671   6.316   0.960 -0.7497  0.5868 -0.5376
 7938TIP3   OH245228   5.298   2.456  15.399 -0.2007 -0.3179 -0.4194
 7938TIP3    H145229   5.332   2.507  15.325 -1.4812  0.9892 -0.1549
 7938TIP3    H245230   5.293   2.366  15.366 -0.3369  0.1689 -1.7837
 7939TIP3   OH245231   2.045   3.677   0.334 -0.5032 -0.0527  0.2842
 7939TIP3    H145232   1.996   3.605   0.293 -0.1985 -0.6347  0.9267
 7939TIP3    H245233   2.019   3.673   0.426  0.9671 -0.5593  0.7022
 7940TIP3   OH245234   4.858   4.994   3.165 -0.6784 -0.1132 -0.1946
 7940TIP3    H145235   4.928   5.012   3.229 -0.2123  1.2534 -1.0474
 7940TIP3    H245236   4.779   4.984   3.218  0.0327 -1.0211  0.7366
 7941TIP3   OH245237   0.984   3.976  14.284 -0.0799 -0.0538  0.2496
 7941TIP3    H145238   1.030   4.051  14.321 -1.4356 -0.3877  2.8682
 7941TIP3    H245239   0.899   4.011  14.257 -0.8772 -0.6275  1.8540
 7942TIP3   OH245240   5.582   0.357  16.796  0.7699 -0.4627 -0.0102
 7942TIP3    H145241   5.598   0.451  16.805 -1.1530  0.0728 -1.6329
 7942TIP3    H245242   5.659   0.324  16.750  0.8488  0.5576 -0.6334
 7943TIP3   OH245243   4.707   3.589   2.542  0.7623  0.1227  0.0065
 7943TIP3    H145244   4.745   3.522   2.485 -0.0371  0.1889 -0.6249
 7943TIP3    H245245   4.692   3.544   2.625  2.3712  0.1475  0.3291
 7944TIP3   OH245246   4.222   4.984   3.857 -0.1013  0.9121  0.1019
 7944TIP3    H145247   4.140   4.936   3.864  0.4955 -0.4422 -1.6325
 7944TIP3    H245248   4.251   4.994   3.948  0.5096 -3.4886  0.6088
 7945TIP3   OH245249   0.708   2.900   6.320 -0.4085 -0.6438  0.2434
 7945TIP3    H145250   0.772   2.912   6.391  0.8066 -0.3513 -0.8568
 7945TIP3    H245251   0.677   2.810   6.332 -0.1260 -0.6442  1.0674
 7946TIP3   OH245252   1.173   3.705  11.060 -0.3099  0.4025  0.1239
 7946TIP3    H145253   1.200   3.640  11.125  1.0429  0.1830 -0.6258
 7946TIP3    H245254   1.092   3.669  11.023 -1.3847  0.7761  1.9929
 7947TIP3   OH245255   4.319   1.297   1.961 -0.0389 -0.2569  0.1316
 7947TIP3    H145256   4.281   1.235   1.899  0.5708 -1.8521  1.2726
 7947TIP3    H245257   4.412   1.275   1.963 -0.0518 -0.2816  1.6193
 7948TIP3   OH245258   0.139   2.511  13.543 -0.5530  0.6535 -0.2533
 7948TIP3    H145259   0.080   2.496  13.469  2.3573 -0.2517 -2.5952
 7948TIP3    H245260   0.174   2.599  13.528 -0.0009  0.5004  0.0991
 7949TIP3   OH245261   5.168   1.650  16.376 -0.8174 -0.7832 -0.9381
 7949TIP3    H145262   5.210   1.586  16.319 -2.4245 -1.6173 -1.2394
 7949TIP3    H245263   5.158   1.605  16.459 -1.4914 -0.7474 -0.9986
 7950TIP3   OH245264   3.420   2.463   6.044 -0.0004 -0.4236  0.7476
 7950TIP3    H145265   3.413   2.462   5.949 -0.6814 -0.5548  0.7930
 7950TIP3    H245266   3.340   2.420   6.075 -1.2436  2.1839  1.4365
 7951TIP3   OH245267   4.450   4.735  15.814 -0.4641  0.2468 -0.2065
 7951TIP3    H145268   4.379   4.687  15.771  0.0107 -1.0192  0.3687
 7951TIP3    H245269   4.509   4.666  15.847  0.4675  1.2431  0.2672
 7952TIP3   OH245270   0.583   4.905  11.222  0.3026 -0.0948 -0.3413
 7952TIP3    H145271   0.611   4.880  11.133 -0.4972 -0.2920 -0.5541
 7952TIP3    H245272   0.498   4.862  11.232 -0.7918  1.9290 -0.4223
 7953TIP3   OH245273   4.982   0.149  13.430  0.4643 -0.5646 -0.3802
 7953TIP3    H145274   5.033   0.091  13.373  0.2768 -0.2334 -0.8922
 7953TIP3    H245275   5.010   0.127  13.518  0.3285 -1.5061 -0.5626
 7954TIP3   OH245276   4.266   1.451  11.947 -0.0675 -0.7903  0.0685
 7954TIP3    H145277   4.203   1.430  11.877 -0.5114  1.3836 -0.2499
 7954TIP3    H245278   4.276   1.546  11.942  2.7068 -0.9907  0.6007
 7955TIP3   OH245279   3.505   5.598  16.675  0.4510  0.1249 -0.6487
 7955TIP3    H145280   3.412   5.576  16.668  0.7345 -1.1904 -0.5427
 7955TIP3    H245281   3.535   5.553  16.754  1.5890 -1.0862 -1.6961
 7956TIP3   OH245282   4.835   1.621   0.134 -0.1481  0.4938  0.1825
 7956TIP3    H145283   4.878   1.696   0.093 -0.7799  2.1518  2.3224
 7956TIP3    H245284   4.770   1.661   0.192 -1.8994 -1.8049 -0.0740
 7957TIP3   OH245285   0.578   1.456   0.803  0.0007  0.6479  0.3501
 7957TIP3    H145286   0.511   1.524   0.811 -0.3009  0.2537  1.3197
 7957TIP3    H245287   0.546   1.384   0.858  0.7089  0.0366 -0.0155
 7958TIP3   OH245288   4.287   1.706  11.646 -0.3614 -0.0132 -0.0060
 7958TIP3    H145289   4.199   1.689  11.680  0.4754 -2.5527  1.0695
 7958TIP3    H245290   4.288   1.660  11.562  0.4298 -1.4484  0.7580
 7959TIP3   OH245291   0.788   3.253  15.707  0.5432  0.5968  0.1535
 7959TIP3    H145292   0.857   3.216  15.652  0.4029  0.2509  0.2030
 7959TIP3    H245293   0.726   3.181  15.719  0.2914  0.8352  0.3011
 7960TIP3   OH245294   3.471   3.299  16.545 -0.5438  0.4284  0.2908
 7960TIP3    H145295   3.516   3.371  16.501 -1.3887  0.2785 -0.8390
 7960TIP3    H245296   3.418   3.258  16.477 -0.4608 -0.9613  1.0350
 7961TIP3   OH245297   4.182   5.520   4.314  0.2796  0.2917 -0.0747
 7961TIP3    H145298   4.180   5.534   4.219  3.1032  0.1875 -0.2242
 7961TIP3    H245299   4.130   5.592   4.350  1.1995  1.7710 -1.5953
 7962TIP3   OH245300   4.187   4.084  16.585  0.3739  0.1851 -0.6105
 7962TIP3    H145301   4.261   4.090  16.525  0.8123 -0.6407 -0.1691
 7962TIP3    H245302   4.185   4.170  16.629  1.3610  0.0680 -0.3031
 7963TIP3   OH245303   5.756   0.940   2.132  0.2591  0.5099 -0.3520
 7963TIP3    H145304   5.666   0.968   2.149  0.3371  1.3518 -1.2708
 7963TIP3    H245305   5.796   0.935   2.218 -0.2025  1.7365 -0.0466
 7964TIP3   OH245306   1.656   4.891   2.108  0.0007  0.0553 -0.3214
 7964TIP3    H145307   1.670   4.937   2.025  2.5782  2.9040  1.4600
 7964TIP3    H245308   1.593   4.945   2.155  1.8038  1.0298  1.1506
 7965TIP3   OH245309   0.733   4.726   1.676  0.0437  0.3348  0.0111
 7965TIP3    H145310   0.812   4.681   1.705 -0.5478 -0.0348  1.1015
 7965TIP3    H245311   0.734   4.718   1.581  1.4218  0.5212 -0.0040
 7966TIP3   OH245312   4.092   2.733   2.299  0.2507 -0.5090  0.2194
 7966TIP3    H145313   4.047   2.752   2.381 -1.6357 -0.4578 -0.7830
 7966TIP3    H245314   4.031   2.679   2.249  0.6829  0.7309 -1.7741
 7967TIP3   OH245315   1.959   5.666   3.098  0.2520  0.0332  0.1061
 7967TIP3    H145316   2.004   5.670   3.182  0.3201  0.7311  0.0418
 7967TIP3    H245317   1.868   5.648   3.122  0.7053 -2.4665  0.1807
 7968TIP3   OH245318   2.783   1.401   4.298  0.3475 -0.0866 -0.0379
 7968TIP3    H145319   2.732   1.342   4.354 -0.2890 -0.0054 -0.5170
 7968TIP3    H245320   2.737   1.485   4.304  0.3853 -0.0295 -0.5386
 7969TIP3   OH245321   1.747   1.053   5.541  0.6171 -0.0892 -0.0647
 7969TIP3    H145322   1.695   1.097   5.474 -0.7575 -1.7874 -0.1828
 7969TIP3    H245323   1.751   1.116   5.614 -1.1548  0.3065 -0.2719
 7970TIP3   OH245324   0.729   5.849   1.120 -0.1130 -0.1150 -0.1167
 7970TIP3    H145325   0.713   5.901   1.041  0.9255  1.3320  0.5765
 7970TIP3    H245326   0.778   5.773   1.089  0.9514  0.8181 -0.7801
 7971TIP3   OH245327   3.711   1.843  14.606 -0.2812 -0.4060 -0.1402
 7971TIP3    H145328   3.687   1.831  14.698  0.7797  1.8749  0.5005
 7971TIP3    H245329   3.804   1.821  14.602 -0.5881 -1.6836 -0.9752
 7972TIP3   OH245330   6.693   1.004  11.698  0.0912 -0.0585  0.2840
 7972TIP3    H145331   6.609   0.993  11.655 -0.4682  1.0351  1.0317
 7972TIP3    H245332   6.719   0.916  11.725 -0.7834 -0.4117 -0.0135
 7973TIP3   OH245333   6.186   4.914   1.608 -0.2088 -0.8347 -0.0479
 7973TIP3    H145334   6.246   4.895   1.535  0.5175 -0.1416  0.3572
 7973TIP3    H245335   6.099   4.901   1.571  0.1246  0.0881 -1.2135
 7974TIP3   OH245336   2.119   1.627   6.246  0.2557  0.3359  0.2784
 7974TIP3    H145337   2.061   1.561   6.208 -0.0657 -0.0048  1.3049
 7974TIP3    H245338   2.190   1.576   6.285  0.4643  0.6577  0.3214
 7975TIP3   OH245339   2.792   6.689  15.238  0.0283  0.6899 -0.8207
 7975TIP3    H145340   2.783   6.782  15.261 -1.3845  0.1639  1.0155
 7975TIP3    H245341   2.745   6.680  15.156  0.7929  1.7222 -1.3932
 7976TIP3   OH245342   5.763   0.466   4.496 -0.1445 -0.3769 -0.3554
 7976TIP3    H145343   5.842   0.446   4.445 -0.7445  1.7135 -2.3032
 7976TIP3    H245344   5.795   0.514   4.572  0.4874  1.1134 -1.5043
 7977TIP3   OH245345   4.851   6.539   3.957 -0.0027  0.8163 -0.3648
 7977TIP3    H145346   4.784   6.553   3.891 -0.2201  1.8935  0.0471
 7977TIP3    H245347   4.902   6.620   3.957  0.2714  0.6640  0.4634
 7978TIP3   OH245348   0.210   5.847   0.578 -0.8140  0.0045 -0.4082
 7978TIP3    H145349   0.229   5.855   0.484 -1.6403 -2.9867 -0.9689
 7978TIP3    H245350   0.274   5.903   0.621  2.0272 -1.2427 -2.6483
 7979TIP3   OH245351   4.702   1.041  15.575 -1.1463 -0.2912  0.4887
 7979TIP3    H145352   4.691   1.083  15.660 -0.0330 -0.0352  0.5219
 7979TIP3    H245353   4.655   1.097  15.514  1.3876  1.8275  0.3193
 7980TIP3   OH245354   1.414   1.693   5.393  0.1980  0.1339  0.9925
 7980TIP3    H145355   1.402   1.600   5.411 -0.3912 -0.2560 -1.1749
 7980TIP3    H245356   1.500   1.699   5.352 -0.0112  0.4608  0.6024
 7981TIP3   OH245357   0.901   0.731  13.656  0.1174 -0.4784  0.6650
 7981TIP3    H145358   0.947   0.772  13.582  0.0169  0.6915  1.2396
 7981TIP3    H245359   0.809   0.732  13.630  0.0076  0.5220  1.0717
 7982TIP3   OH245360   6.046   1.282  11.819  0.2965  0.1925 -0.1305
 7982TIP3    H145361   6.019   1.373  11.834  0.6010  0.1608  0.6497
 7982TIP3    H245362   5.965   1.235  11.799  0.1361  0.6303 -0.5327
 7983TIP3   OH245363   6.142   6.286  13.769 -0.0271  0.0006 -0.1268
 7983TIP3    H145364   6.071   6.285  13.706 -1.5960  0.1379  1.5548
 7983TIP3    H245365   6.108   6.338  13.843  0.5824 -2.4901  2.0543
 7984TIP3   OH245366   5.540   3.502   2.507 -0.0763 -0.1755  0.1305
 7984TIP3    H145367   5.552   3.446   2.584  0.4731  2.0703  1.7542
 7984TIP3    H245368   5.445   3.514   2.501 -0.1439 -0.6232  0.2517
 7985TIP3   OH245369   6.338   6.274   6.535 -0.1755 -0.1362 -0.2359
 7985TIP3    H145370   6.284   6.281   6.456  0.0870  3.0201 -0.2572
 7985TIP3    H245371   6.276   6.283   6.607 -0.0940 -0.3603 -0.1359
 7986TIP3   OH245372   5.197   6.609   3.477  1.0225  0.3597  0.2684
 7986TIP3    H145373   5.271   6.554   3.456  1.1397  0.1007  1.3022
 7986TIP3    H245374   5.229   6.668   3.545  0.1485 -0.1084  1.1124
 7987TIP3   OH245375   0.011   6.000   0.282  0.7047 -0.1789 -0.0366
 7987TIP3    H145376   0.036   6.015   0.191  0.4574 -0.4717 -0.1552
 7987TIP3    H245377   0.070   5.931   0.312  0.4729 -0.4164 -0.1211
 7988TIP3   OH245378   4.523   3.502  13.109  0.0773  0.0022 -0.0311
 7988TIP3    H145379   4.480   3.564  13.050 -2.0587  1.8337  3.1210
 7988TIP3    H245380   4.566   3.556  13.174 -1.1763 -1.7270  2.4135
 7989TIP3   OH245381   4.723   0.687  15.846 -0.1007 -0.0063  0.2936
 7989TIP3    H145382   4.727   0.622  15.776  0.2839 -0.9491  1.1705
 7989TIP3    H245383   4.761   0.766  15.808 -1.3757 -0.0143 -1.0711
 7990TIP3   OH245384   3.646   1.878  13.376  0.0230  0.0936  0.1544
 7990TIP3    H145385   3.600   1.808  13.329  0.2693  0.5144 -0.7291
 7990TIP3    H245386   3.732   1.881  13.336 -0.2910  1.5338 -0.4758
 7991TIP3   OH245387   6.420   4.476  15.030  0.2594 -0.4206 -0.1745
 7991TIP3    H145388   6.355   4.506  15.094  0.1822  0.7394 -0.7591
 7991TIP3    H245389   6.386   4.392  14.999 -2.2855  1.1647 -2.1457
 7992TIP3   OH245390   6.602   6.154  16.080 -0.5277  1.0085  0.4719
 7992TIP3    H145391   6.602   6.243  16.045 -2.7505  1.0842  0.5327
 7992TIP3    H245392   6.611   6.098  16.003 -0.6683  1.2522  0.2753
 7993TIP3   OH245393   3.984   6.092  15.283  0.5099  0.0614  0.2412
 7993TIP3    H145394   3.890   6.075  15.280  0.7647 -1.4547 -1.6763
 7993TIP3    H245395   4.004   6.106  15.375 -1.2771 -1.5991  0.9425
 7994TIP3   OH245396   3.604   0.720   0.496 -0.4668 -0.3452 -0.3531
 7994TIP3    H145397   3.523   0.719   0.547 -0.2227 -2.3204  0.0828
 7994TIP3    H245398   3.583   0.671   0.417  0.5756 -1.9944  0.3264
 7995TIP3   OH245399   1.054   1.785  13.051  0.3239 -0.0426  0.2933
 7995TIP3    H145400   0.963   1.791  13.080  0.1392  0.7530 -0.4263
 7995TIP3    H245401   1.089   1.709  13.098 -1.3777 -1.8801 -1.2259
 7996TIP3   OH245402   0.258   6.254  15.046  0.5389 -0.2457  0.2930
 7996TIP3    H145403   0.269   6.347  15.028 -0.3282 -0.0436  0.7772
 7996TIP3    H245404   0.229   6.250  15.137 -2.5233 -0.7540 -0.6142
 7997TIP3   OH245405   5.928   0.289  11.766 -0.2643 -0.1095 -0.0492
 7997TIP3    H145406   5.865   0.229  11.725 -0.9995 -0.1561  1.0977
 7997TIP3    H245407   5.918   0.371  11.718  0.1755 -0.6523 -1.1108
 7998TIP3   OH245408   5.205   1.669   3.522 -0.2247  0.1186 -0.0656
 7998TIP3    H145409   5.148   1.668   3.599 -0.4163 -2.0067 -0.1704
 7998TIP3    H245410   5.180   1.748   3.474 -2.4086 -0.2315  0.3909
 7999TIP3   OH245411   0.291   5.591  12.635  0.1210 -1.0914  0.5717
 7999TIP3    H145412   0.242   5.583  12.717  2.8470 -0.1970  2.4035
 7999TIP3    H245413   0.356   5.520  12.639 -0.3711 -1.7390 -1.4035
 8000TIP3   OH245414   2.118   2.227  13.746 -0.4426 -0.2187  0.8009
 8000TIP3    H145415   2.100   2.178  13.826 -0.2760 -0.8172  0.4788
 8000TIP3    H245416   2.104   2.319  13.770 -4.3809 -0.5627  0.5063
 8001TIP3   OH245417   4.131   1.174   0.021 -0.0693 -0.1518 -0.1865
 8001TIP3    H145418   4.122   1.154   0.114 -0.4797 -0.9889 -0.3971
 8001TIP3    H245419   4.042   1.194  -0.008  0.0749  0.2286 -0.3747
 8002TIP3   OH245420   3.979   4.752   5.470 -0.1042  0.1408 -0.2978
 8002TIP3    H145421   4.041   4.740   5.399  1.3173  0.6257  0.8114
 8002TIP3    H245422   3.903   4.700   5.445  1.9058 -3.0158 -0.3117
 8003TIP3   OH245423   1.518   5.058   2.762  0.5683 -0.5176  0.1824
 8003TIP3    H145424   1.426   5.082   2.774  0.9530  1.5857 -0.6138
 8003TIP3    H245425   1.515   4.965   2.738 -1.2729 -0.6907  0.8877
 8004TIP3   OH245426   0.115   5.309  16.571  0.3957  0.2594 -0.1037
 8004TIP3    H145427   0.038   5.291  16.517 -0.1786  3.4502 -0.5272
 8004TIP3    H245428   0.189   5.291  16.514 -0.1612  1.4700 -1.2378
 8005TIP3   OH245429   4.308   4.538  13.659 -0.2581 -0.4216 -0.3715
 8005TIP3    H145430   4.354   4.495  13.732 -1.2415 -0.0059  0.5073
 8005TIP3    H245431   4.371   4.602  13.626  0.2011 -0.6140  0.1062
 8006TIP3   OH245432   0.890   3.411  14.186  0.2036  0.5277  0.2804
 8006TIP3    H145433   0.887   3.343  14.253  0.4079  0.4163  0.1768
 8006TIP3    H245434   0.866   3.491  14.232 -2.5061  0.0237 -0.0802
 8007TIP3   OH245435   5.324   2.184  15.548  0.6092 -0.7736  0.0096
 8007TIP3    H145436   5.405   2.141  15.573  0.5780 -0.4116  0.7789
 8007TIP3    H245437   5.280   2.202  15.631  0.2595  0.0164 -0.3356
 8008TIP3   OH245438   2.983   1.247   6.075  0.0090 -0.1068  0.5255
 8008TIP3    H145439   3.003   1.341   6.087 -1.5878  0.2205  0.8138
 8008TIP3    H245440   3.038   1.220   6.002 -0.9641  1.5724 -0.8985
 8009TIP3   OH245441   5.191   5.286   1.877  0.3530 -0.1032 -0.2996
 8009TIP3    H145442   5.226   5.228   1.945  3.7176  0.7520 -1.0953
 8009TIP3    H245443   5.195   5.235   1.797 -3.9699 -1.2475 -0.0471
 8010TIP3   OH245444   1.930   0.841   4.254  0.3769  0.1436  0.8192
 8010TIP3    H145445   1.890   0.760   4.220  0.7162 -0.2564  1.3502
 8010TIP3    H245446   2.001   0.860   4.193  0.8169 -0.4263  1.1376
 8011TIP3   OH245447   3.188   2.940   1.459 -0.2475  0.5627 -0.8151
 8011TIP3    H145448   3.150   2.950   1.546 -0.0686  1.5866 -0.8496
 8011TIP3    H245449   3.231   3.023   1.441  1.0776 -0.1734 -1.2346
 8012TIP3   OH245450   4.631   5.551   6.051  0.0867 -0.1180 -0.0436
 8012TIP3    H145451   4.546   5.579   6.085  1.0816  3.5405 -0.1465
 8012TIP3    H245452   4.610   5.488   5.983 -2.7189  1.8387 -1.1694
 8013TIP3   OH245453   4.855   0.666   5.078 -0.6334  0.2316  0.5006
 8013TIP3    H145454   4.881   0.700   5.164  1.2832  0.9007 -0.3069
 8013TIP3    H245455   4.886   0.575   5.079 -0.6359  0.2307  0.5159
 8014TIP3   OH245456   0.929   5.912   3.447 -0.1548 -0.1635  0.3379
 8014TIP3    H145457   0.940   5.822   3.477 -0.3917 -0.3790 -0.2284
 8014TIP3    H245458   0.933   5.964   3.528  2.9298 -0.3912  0.4739
 8015TIP3   OH245459   0.308   0.719  12.760 -0.5139 -0.2834  0.4438
 8015TIP3    H145460   0.397   0.746  12.739  0.3928 -2.9086  0.5422
 8015TIP3    H245461   0.255   0.797  12.743  1.5909  0.9573 -0.9265
 8016TIP3   OH245462   1.494   3.068  13.159  0.1174  0.1747  0.1622
 8016TIP3    H145463   1.442   3.143  13.130  0.4072  0.4854  0.4395
 8016TIP3    H245464   1.439   3.024  13.224  1.1750  1.9781  2.4309
 8017TIP3   OH245465   5.313   3.117  14.422 -0.6410  0.4991 -0.2748
 8017TIP3    H145466   5.345   3.060  14.351 -0.7185 -0.7502  0.6619
 8017TIP3    H245467   5.254   3.178  14.378  1.9732  2.0781 -1.8570
 8018TIP3   OH245468   5.788   1.294   1.983  0.3611 -0.0173  0.5552
 8018TIP3    H145469   5.755   1.342   1.907  1.6308  0.2373  0.1329
 8018TIP3    H245470   5.732   1.217   1.989 -1.2894  1.1567  0.8476
 8019TIP3   OH245471   4.104   5.655   2.409  0.0602 -0.0555  0.3676
 8019TIP3    H145472   4.011   5.633   2.416 -0.3817  1.6164  0.0070
 8019TIP3    H245473   4.121   5.713   2.483  0.2930  1.3264 -0.7335
 8020TIP3   OH245474   2.939   6.716   4.220  0.2047 -0.3966 -0.2706
 8020TIP3    H145475   2.896   6.786   4.171  0.3600 -0.7239 -0.8945
 8020TIP3    H245476   2.947   6.750   4.309  0.5736  0.5106 -0.6332
 8021TIP3   OH245477   5.316   4.157  11.875  0.0566 -0.6215  0.2303
 8021TIP3    H145478   5.247   4.091  11.863  0.5126 -0.7855 -1.8191
 8021TIP3    H245479   5.275   4.240  11.850 -0.2356 -0.2089  1.9131
 8022TIP3   OH245480   3.324   6.492  14.694 -0.0355 -0.1941  0.8810
 8022TIP3    H145481   3.394   6.430  14.674 -0.5155 -0.6002  0.4089
 8022TIP3    H245482   3.329   6.504  14.789 -0.6496 -1.8414  1.1561
 8023TIP3   OH245483   1.420   4.021   4.124 -0.1401 -0.2707  0.8144
 8023TIP3    H145484   1.427   3.926   4.121  0.0618 -0.2553  0.7981
 8023TIP3    H245485   1.510   4.052   4.119 -0.2886 -0.0294 -0.9229
 8024TIP3   OH245486   3.893   5.879   2.085  0.3207 -0.1637 -0.5419
 8024TIP3    H145487   3.944   5.906   2.162  0.9589  0.3263 -1.1295
 8024TIP3    H245488   3.952   5.820   2.038  0.0150 -0.2772 -0.7792
 8025TIP3   OH245489   0.327   2.376   5.747  0.1828 -0.1925  0.4424
 8025TIP3    H145490   0.364   2.463   5.737 -2.0702  0.6096 -2.2817
 8025TIP3    H245491   0.259   2.386   5.814 -1.8737  0.9450 -1.6679
 8026TIP3   OH245492   4.068   4.900  11.380 -0.5704  0.3055  0.1392
 8026TIP3    H145493   4.041   4.903  11.472  0.6657  1.5949  0.5065
 8026TIP3    H245494   4.063   4.808  11.356  1.6237 -0.4961  2.3357
 8027TIP3   OH245495   4.010   2.289   0.239  0.3236 -0.3703  0.0989
 8027TIP3    H145496   3.999   2.260   0.330 -1.7036  2.6488  0.9789
 8027TIP3    H245497   3.921   2.312   0.210  1.3929  2.8841 -1.0375
 8028TIP3   OH245498   4.570   0.879   4.463  0.3102  0.8357  0.4614
 8028TIP3    H145499   4.659   0.846   4.474  0.3706  0.0055 -1.9419
 8028TIP3    H245500   4.582   0.971   4.441  0.6460  0.5099 -0.7556
 8029TIP3   OH245501   0.835   3.519  16.427 -0.1119  0.0016 -0.2711
 8029TIP3    H145502   0.907   3.561  16.379 -0.8874 -0.1970 -1.6810
 8029TIP3    H245503   0.853   3.425  16.420 -0.1542 -0.0245 -0.0401
 8030TIP3   OH245504   5.939   2.911   1.300 -0.3073 -0.6595 -0.2315
 8030TIP3    H145505   5.865   2.970   1.288  0.3512 -0.1657 -2.3004
 8030TIP3    H245506   5.906   2.825   1.276 -0.5209 -0.6570  0.0453
 8031TIP3   OH245507   0.995   2.091   4.976  0.1674 -0.3716 -0.4923
 8031TIP3    H145508   1.087   2.077   4.955  0.4414  1.5825 -0.8040
 8031TIP3    H245509   0.955   2.117   4.893 -0.3675  0.1312 -0.0891
 8032TIP3   OH245510   6.384   6.446  10.947  0.3360 -0.1533  0.2192
 8032TIP3    H145511   6.339   6.435  10.863  0.1827 -1.3823  0.4505
 8032TIP3    H245512   6.366   6.537  10.972  1.4767  0.6594 -1.6984
 8033TIP3   OH245513   5.901   5.142  13.710 -0.1484 -0.6165  0.6222
 8033TIP3    H145514   5.888   5.058  13.665 -1.9317 -0.3184  0.5287
 8033TIP3    H245515   5.899   5.120  13.803 -2.4144 -0.5127  0.6584
 8034TIP3   OH245516   4.230   5.299  15.710  0.7984 -0.4562 -0.0483
 8034TIP3    H145517   4.214   5.229  15.646 -0.7517  1.2988 -1.7195
 8034TIP3    H245518   4.216   5.257  15.795 -2.9152 -1.6337 -1.0527
 8035TIP3   OH245519   0.327   3.642  16.795  0.4262  0.3951  0.0476
 8035TIP3    H145520   0.243   3.600  16.812  0.0294 -0.5697 -3.4635
 8035TIP3    H245521   0.390   3.591  16.846 -0.7412 -0.8726  0.2923
 8036TIP3   OH245522   4.434   1.426   2.958  0.3099  0.1103 -0.6169
 8036TIP3    H145523   4.486   1.498   2.923 -0.0721  0.7475  0.0929
 8036TIP3    H245524   4.438   1.437   3.053 -0.9440  0.0468 -0.5372
 8037TIP3   OH245525   0.910   5.939  11.668 -0.3174  0.6791 -0.5903
 8037TIP3    H145526   0.822   5.953  11.635 -0.4166  0.2981 -0.4883
 8037TIP3    H245527   0.938   5.856  11.629 -0.1782  0.5673 -0.2607
 8038TIP3   OH245528   5.319   3.075  13.675  0.0351  0.2319 -0.3353
 8038TIP3    H145529   5.296   3.022  13.599  0.7162 -0.8849  0.2110
 8038TIP3    H245530   5.391   3.131  13.645  0.0138  0.0973 -0.6359
 8039TIP3   OH245531   4.456   6.679  14.257 -0.6686  0.3387  0.5348
 8039TIP3    H145532   4.373   6.708  14.219 -0.5349  0.8192  0.6051
 8039TIP3    H245533   4.451   6.707  14.348 -0.7630 -0.3381  0.7400
 8040TIP3   OH245534   0.852   2.701   0.866 -0.3670  0.5719 -0.0211
 8040TIP3    H145535   0.939   2.692   0.904  0.0560  1.7410 -0.6709
 8040TIP3    H245536   0.797   2.729   0.940 -0.2800 -0.4923  0.4638
 8041TIP3   OH245537   5.878   0.780   3.375 -0.3302  0.0083  0.8016
 8041TIP3    H145538   5.885   0.784   3.470 -1.3495  0.0049  0.8841
 8041TIP3    H245539   5.885   0.871   3.346 -1.0444  0.1252  0.9691
 8042TIP3   OH245540   5.946   6.103  12.436  0.4774  0.5484  0.0076
 8042TIP3    H145541   5.889   6.097  12.360 -0.8749 -1.8646  1.0857
 8042TIP3    H245542   6.027   6.059  12.409 -0.6782 -2.0229  0.4240
 8043TIP3   OH245543   1.054   1.608   6.163  0.2240 -0.7966  0.9141
 8043TIP3    H145544   0.967   1.594   6.201  0.2616  0.8494  1.7279
 8043TIP3    H245545   1.068   1.533   6.106 -0.3710 -2.8033  3.2169
 8044TIP3   OH245546   0.921   2.197  14.173 -0.1594 -0.2658  0.5922
 8044TIP3    H145547   0.931   2.114  14.127 -1.1623 -0.1323  0.1260
 8044TIP3    H245548   0.851   2.243  14.126 -0.5657  0.2605  1.6876
 8045TIP3   OH245549   1.564   4.704  11.273 -0.2284  0.5039  0.2496
 8045TIP3    H145550   1.652   4.704  11.311 -0.2046 -1.8567  0.3596
 8045TIP3    H245551   1.574   4.752  11.190  1.2138  0.1439  0.1802
 8046TIP3   OH245552   1.095   2.212   3.010  0.0855  0.1332  0.1375
 8046TIP3    H145553   1.011   2.180   2.977 -1.0192  0.8546  2.0436
 8046TIP3    H245554   1.104   2.300   2.972  0.3351 -0.2140 -0.6186
 8047TIP3   OH245555   0.916   5.374   4.966  0.0693  0.6616 -0.2909
 8047TIP3    H145556   0.835   5.361   5.015  0.3586 -0.8443 -0.1797
 8047TIP3    H245557   0.893   5.355   4.875  0.4390 -0.4822 -0.1611
 8048TIP3   OH245558   2.776   4.187   5.872 -0.0397 -0.2745  0.4437
 8048TIP3    H145559   2.839   4.152   5.934  0.3590  3.0644  2.1660
 8048TIP3    H245560   2.697   4.135   5.885  1.1919 -2.1231  0.9016
 8049TIP3   OH245561   6.716   2.596   3.684 -0.1265  0.1825  0.1696
 8049TIP3    H145562   6.774   2.577   3.758 -0.9780  2.2463  1.4815
 8049TIP3    H245563   6.634   2.553   3.706 -0.0070 -0.2490 -0.2144
 8050TIP3   OH245564   5.788   6.302   2.945  0.8381 -0.2825 -1.0789
 8050TIP3    H145565   5.733   6.366   2.900  1.2056 -0.2838 -1.5300
 8050TIP3    H245566   5.878   6.329   2.926  1.0778  0.9531  1.3388
 8051TIP3   OH245567   3.005   4.900  16.827 -0.1944 -0.0599  0.2175
 8051TIP3    H145568   2.922   4.913  16.873  0.0619  1.5040  0.2700
 8051TIP3    H245569   3.052   4.982  16.837  1.1785 -0.7541 -0.2209
 8052TIP3   OH245570   0.589   6.560  11.508 -0.2249  0.1120 -0.0550
 8052TIP3    H145571   0.567   6.646  11.544 -0.3009  0.1622 -0.2215
 8052TIP3    H245572   0.640   6.578  11.429 -1.6837  0.0464 -1.0524
 8053TIP3   OH245573   3.027   2.462   1.584  0.0270 -0.4964 -0.0514
 8053TIP3    H145574   3.105   2.475   1.531 -0.1738 -2.3106 -0.8596
 8053TIP3    H245575   3.058   2.415   1.661 -0.2444 -1.1884 -0.3572
 8054TIP3   OH245576   2.753   6.429  13.089 -0.1075 -0.4322  0.8047
 8054TIP3    H145577   2.696   6.484  13.143  0.1424 -1.8705  2.6197
 8054TIP3    H245578   2.841   6.443  13.124  0.4725  0.4516 -0.8588
 8055TIP3   OH245579   1.488   3.241   1.794  0.3178 -0.0732 -0.0323
 8055TIP3    H145580   1.566   3.278   1.753  1.4625 -2.2476  0.0187
 8055TIP3    H245581   1.489   3.275   1.883 -0.6743  2.5112 -0.9247
 8056TIP3   OH245582   1.912   1.832   5.632  0.3056 -0.0036  0.0376
 8056TIP3    H145583   1.918   1.913   5.582  0.6702  1.1201  1.8291
 8056TIP3    H245584   1.818   1.820   5.645  0.2962  1.4170  1.6786
 8057TIP3   OH245585   2.757   0.505   0.278  0.3084 -0.0246  0.2895
 8057TIP3    H145586   2.843   0.515   0.237  0.2046 -2.1456 -0.5382
 8057TIP3    H245587   2.703   0.463   0.212 -1.2962  0.9045  0.9361
 8058TIP3   OH245588   6.713   5.174  12.196 -0.1163  0.5060  0.0457
 8058TIP3    H145589   6.798   5.183  12.152  0.6516 -0.3252  1.2763
 8058TIP3    H245590   6.698   5.079  12.199 -0.2649  0.5560  1.3199
 8059TIP3   OH245591   5.300   1.621  13.208 -0.1850 -0.4709 -0.2354
 8059TIP3    H145592   5.314   1.709  13.243  2.5304 -1.4822  1.5977
 8059TIP3    H245593   5.356   1.565  13.263 -1.9596 -3.3821 -1.1888
 8060TIP3   OH245594   6.690   6.270  11.896 -0.1162  0.2487  0.2990
 8060TIP3    H145595   6.698   6.194  11.954  0.3852 -0.1268 -0.2530
 8060TIP3    H245596   6.682   6.344  11.956 -0.9966 -0.2693  0.8435
 8061TIP3   OH245597   5.993   0.083  15.857  0.0431 -0.3246 -0.3167
 8061TIP3    H145598   5.912   0.114  15.896  0.3580 -0.1224  0.1924
 8061TIP3    H245599   6.060   0.100  15.924  0.7666  0.9810 -1.3213
 8062TIP3   OH245600   5.269   0.378   5.894  0.2702 -0.8037  0.4090
 8062TIP3    H145601   5.257   0.410   5.805  0.2184 -0.2367  0.6123
 8062TIP3    H245602   5.180   0.364   5.927  0.1727  1.2462  1.1553
 8063TIP3   OH245603   3.478   4.749  14.905 -0.0750  0.6021 -0.3907
 8063TIP3    H145604   3.557   4.779  14.858 -0.0349  1.1895  0.0411
 8063TIP3    H245605   3.507   4.739  14.995 -0.1568 -0.5238 -0.4770
 8064TIP3   OH245606   5.664   4.826  16.939 -0.4370 -0.3580  0.3933
 8064TIP3    H145607   5.606   4.799  16.868  1.3379  0.0624 -1.2892
 8064TIP3    H245608   5.636   4.916  16.959  0.4379  0.3556 -1.3576
 8065TIP3   OH245609   4.599   0.930   0.968 -0.0058 -0.5232  0.3917
 8065TIP3    H145610   4.641   0.925   0.882  1.0798  0.6459  0.8163
 8065TIP3    H245611   4.667   0.901   1.029  0.7701  2.5838  1.2226
 8066TIP3   OH245612   5.416   2.497   1.229  0.1172  0.3198  0.2214
 8066TIP3    H145613   5.505   2.462   1.239 -0.1820 -1.1332 -1.5781
 8066TIP3    H245614   5.364   2.449   1.294  0.6334  1.2809  1.3830
 8067TIP3   OH245615   1.838   2.582  14.440  0.6397  0.3688  0.2068
 8067TIP3    H145616   1.783   2.531  14.381  0.0550 -0.1896  1.2249
 8067TIP3    H245617   1.873   2.652  14.384  1.6627 -1.2441 -1.2934
 8068TIP3   OH245618   1.665   2.314   0.244 -0.0662  0.0856 -0.0750
 8068TIP3    H145619   1.598   2.248   0.260 -0.1427  0.4289  1.1608
 8068TIP3    H245620   1.617   2.392   0.216 -0.1229  0.1019  0.0663
 8069TIP3   OH245621   4.811   5.657   1.990  0.1645 -0.1799  0.4135
 8069TIP3    H145622   4.872   5.598   1.946 -0.2984 -1.0921  0.9478
 8069TIP3    H245623   4.861   5.694   2.062  1.2520  2.1420 -1.4061
 8070TIP3   OH245624   1.424   5.565  11.989 -0.3576  0.3596 -0.4280
 8070TIP3    H145625   1.495   5.508  11.963 -0.7377  0.2656 -1.2943
 8070TIP3    H245626   1.463   5.652  11.995  0.5428 -0.1170  2.2098
 8071TIP3   OH245627   6.558   2.145  11.865  0.1410 -0.0904 -0.2482
 8071TIP3    H145628   6.615   2.180  11.796  0.7099  0.8140  0.6424
 8071TIP3    H245629   6.613   2.081  11.911 -0.2211 -0.6589 -0.6100
 8072TIP3   OH245630   2.819   3.504   4.355  0.4272 -0.4744 -0.4404
 8072TIP3    H145631   2.890   3.559   4.389 -0.1692  0.4226 -0.6304
 8072TIP3    H245632   2.834   3.419   4.395  1.7143 -0.3480 -0.6004
 8073TIP3   OH245633   0.925   4.182  17.026 -0.0804 -0.0647 -0.1094
 8073TIP3    H145634   0.998   4.121  17.034  0.3765 -0.0172 -2.8807
 8073TIP3    H245635   0.880   4.154  16.946 -1.0538  1.9905 -0.3365
 8074TIP3   OH245636   5.454   2.981  13.093 -0.9033  0.4841 -0.2090
 8074TIP3    H145637   5.453   2.893  13.055  0.8837  0.5921 -0.5757
 8074TIP3    H245638   5.455   3.040  13.018  1.2057  0.7314 -0.0248
 8075TIP3   OH245639   2.456   3.995   5.394 -0.6730  0.3078 -0.3466
 8075TIP3    H145640   2.529   4.033   5.442 -0.4835  1.3799 -1.4264
 8075TIP3    H245641   2.441   4.056   5.321  0.4210 -2.2479 -2.9031
 8076TIP3   OH245642   6.725   6.420   6.467  0.7274 -0.7791  0.4388
 8076TIP3    H145643   6.738   6.515   6.469 -1.6082 -0.3749 -0.4961
 8076TIP3    H245644   6.718   6.395   6.559  1.7850 -0.1466  0.7083
 8077TIP3   OH245645   6.369   1.856  11.031  0.2475 -0.1429 -0.1872
 8077TIP3    H145646   6.282   1.894  11.040  0.1929 -0.3613  0.2299
 8077TIP3    H245647   6.390   1.866  10.938  0.6901  1.8532  0.1001
 8078TIP3   OH245648   4.485   1.214   4.271 -0.0188 -0.3090  0.2089
 8078TIP3    H145649   4.420   1.209   4.201 -2.8827  0.0906  2.6304
 8078TIP3    H245650   4.487   1.307   4.295 -0.0732 -0.6067  1.4482
 8079TIP3   OH245651   0.486   0.735  11.304  0.4639 -0.2210 -0.0632
 8079TIP3    H145652   0.544   0.804  11.337  2.7690 -1.2686 -1.6961
 8079TIP3    H245653   0.415   0.783  11.261 -1.2977  1.1366  3.8645
 8080TIP3   OH245654   0.192   0.076   1.569  0.0445  0.0326 -0.1849
 8080TIP3    H145655   0.214   0.024   1.492  1.2915  0.4770 -0.1667
 8080TIP3    H245656   0.101   0.102   1.556  0.0405 -0.4243 -1.1916
 8081TIP3   OH245657   4.091   4.835  13.082 -0.7414 -0.1538  0.3555
 8081TIP3    H145658   4.116   4.860  13.171  0.7258 -0.9574  0.2073
 8081TIP3    H245659   4.148   4.889  13.026  0.0385 -1.3557 -0.0334
 8082TIP3   OH245660   4.900   4.650  16.467 -0.2042 -0.1814  0.2271
 8082TIP3    H145661   4.980   4.685  16.426 -0.4353 -1.1227 -1.0833
 8082TIP3    H245662   4.839   4.724  16.468 -0.1606 -0.1144 -1.0714
 8083TIP3   OH245663   3.402   1.039   1.511 -0.1100  0.3426  0.4648
 8083TIP3    H145664   3.380   1.089   1.432 -0.8939  1.9258  1.6328
 8083TIP3    H245665   3.498   1.037   1.513 -0.0865  0.8311 -0.1902
 8084TIP3   OH245666   3.935   2.950   4.899 -0.9882 -0.1010  0.2853
 8084TIP3    H145667   3.893   2.865   4.913 -0.3781 -0.3316  0.7536
 8084TIP3    H245668   3.888   3.010   4.957  0.1219 -0.6168  1.7745
 8085TIP3   OH245669   0.848   4.341   3.482  0.0430  0.0863  0.0474
 8085TIP3    H145670   0.831   4.427   3.521  0.2906  0.3327 -0.3700
 8085TIP3    H245671   0.871   4.285   3.556 -2.0472 -0.1499  0.5891
 8086TIP3   OH245672   2.830   0.654  11.184 -0.1821 -0.1477  0.3480
 8086TIP3    H145673   2.886   0.721  11.225 -0.4320 -0.4317  1.1864
 8086TIP3    H245674   2.827   0.678  11.092 -0.5388  1.2094  0.6909
 8087TIP3   OH245675   3.383   4.412   1.442  0.0484  0.0337 -0.1855
 8087TIP3    H145676   3.332   4.390   1.363 -0.1433 -2.2857  0.5013
 8087TIP3    H245677   3.456   4.350   1.441  0.5977  0.6395  0.9432
 8088TIP3   OH245678   4.565   0.074   1.003  0.3704  0.0904  0.5805
 8088TIP3    H145679   4.603   0.034   1.081  1.3307  0.4692  0.3231
 8088TIP3    H245680   4.494   0.015   0.977  1.9769 -1.6910 -0.0193
 8089TIP3   OH245681   0.535   6.447  16.194 -0.0225  0.0837  0.4995
 8089TIP3    H145682   0.591   6.455  16.271 -1.7134  3.3609  1.5711
 8089TIP3    H245683   0.554   6.524  16.142 -0.3727 -1.0467 -1.4001
 8090TIP3   OH245684   2.573   2.903   0.986 -0.1709 -0.0477 -0.2407
 8090TIP3    H145685   2.580   2.831   1.049 -1.3010 -0.5489 -0.6714
 8090TIP3    H245686   2.582   2.861   0.900  1.1985  0.6101 -0.4471
 8091TIP3   OH245687   6.587   0.603   2.882 -0.9223  0.2826 -0.2684
 8091TIP3    H145688   6.516   0.547   2.915 -0.6153  0.6284  1.0191
 8091TIP3    H245689   6.604   0.569   2.794 -2.2655 -0.2005 -0.3748
 8092TIP3   OH245690   6.692   3.531  14.554 -0.2017 -0.4447  0.3887
 8092TIP3    H145691   6.759   3.570  14.611 -0.3561 -1.1317  1.0691
 8092TIP3    H245692   6.646   3.469  14.611 -2.7909  1.4235  0.5253
 8093TIP3   OH245693   1.501   5.453  10.943  0.3243  0.3158  0.5283
 8093TIP3    H145694   1.553   5.534  10.939 -0.4700  0.7884 -0.6153
 8093TIP3    H245695   1.448   5.454  10.864 -0.8942 -0.5257  1.2944
 8094TIP3   OH245696   3.975   1.679   2.747  0.3052  0.0589 -0.2022
 8094TIP3    H145697   3.950   1.607   2.805 -0.6130 -2.2521 -3.1959
 8094TIP3    H245698   4.065   1.659   2.722  0.5538  0.8062  0.0607
 8095TIP3   OH245699   5.564   2.400   3.201 -0.2830 -0.1014 -0.4362
 8095TIP3    H145700   5.493   2.368   3.256  0.1608  0.0617  0.2455
 8095TIP3    H245701   5.615   2.322   3.179 -0.0895 -0.0801 -0.0687
 8096TIP3   OH245702   4.944   1.674   6.624 -0.4832  0.6679  0.3673
 8096TIP3    H145703   5.008   1.625   6.572  0.3092  0.4054  1.5453
 8096TIP3    H245704   4.865   1.620   6.620 -0.4094  0.6078 -0.4771
 8097TIP3   OH245705   5.922   4.343   2.144  0.3475 -0.4651  0.3990
 8097TIP3    H145706   5.951   4.326   2.233  0.0603 -0.2004  0.5442
 8097TIP3    H245707   5.958   4.429   2.122 -0.8663  0.1716  0.8232
 8098TIP3   OH245708   2.113   2.225   4.342  0.2714 -0.4432  0.2921
 8098TIP3    H145709   2.073   2.287   4.282 -0.8210 -0.3271  1.1038
 8098TIP3    H245710   2.188   2.189   4.294 -0.1314  0.1886 -0.8402
 8099TIP3   OH245711   1.283   6.087  14.034 -0.2749 -0.6647 -0.5072
 8099TIP3    H145712   1.360   6.061  14.084  0.4447  1.3072 -0.5181
 8099TIP3    H245713   1.215   6.025  14.061  0.3213 -0.2391  2.2829
 8100TIP3   OH245714   2.788   4.684  12.410 -0.0919 -0.1854  0.2961
 8100TIP3    H145715   2.713   4.723  12.454 -0.5113 -0.7851  0.1237
 8100TIP3    H245716   2.759   4.669  12.320  0.1896 -0.5409  0.2590
 8101TIP3   OH245717   2.979   0.048  13.620 -0.4063  0.0020 -0.0134
 8101TIP3    H145718   2.990   0.085  13.532 -1.4261 -0.9472 -0.5527
 8101TIP3    H245719   2.989   0.123  13.678  1.0911  0.5214 -0.8669
 8102TIP3   OH245720   0.549   1.589  11.864  0.1836  0.4486  0.4499
 8102TIP3    H145721   0.470   1.640  11.881  0.3771  0.8099  0.2579
 8102TIP3    H245722   0.516   1.503  11.837 -0.3074  1.7683 -3.7489
 8103TIP3   OH245723   3.863   5.742  12.389 -0.0142  0.0394 -0.3513
 8103TIP3    H145724   3.799   5.786  12.334 -1.1249  0.2616  1.0450
 8103TIP3    H245725   3.811   5.697  12.456  1.2660 -0.0838  0.6184
 8104TIP3   OH245726   6.086   3.192   2.865 -0.2016 -0.3955 -0.0129
 8104TIP3    H145727   6.029   3.170   2.791  1.2816 -1.4092 -0.9210
 8104TIP3    H245728   6.167   3.223   2.823  0.4268 -0.3603  1.2016
 8105TIP3   OH245729   1.877   4.942  13.558  0.9104 -0.1481  0.4162
 8105TIP3    H145730   1.820   5.011  13.591  0.5527 -0.5915  0.7410
 8105TIP3    H245731   1.951   4.941  13.618 -0.5099 -2.0635  2.2996
 8106TIP3   OH245732   6.557   4.079   1.885 -0.0557  0.5570  0.0608
 8106TIP3    H145733   6.636   4.028   1.871  0.9912  1.6075  1.7742
 8106TIP3    H245734   6.573   4.161   1.839  0.5142  1.3327  1.5669
 8107TIP3   OH245735   2.594   0.949  16.848 -0.6037 -0.5525 -0.6996
 8107TIP3    H145736   2.671   0.955  16.792 -0.3236  0.6342 -0.2160
 8107TIP3    H245737   2.624   0.904  16.926 -0.4157 -0.1689 -0.5476
 8108TIP3   OH245738   1.549   1.149   2.207 -0.2213  0.3100 -0.2451
 8108TIP3    H145739   1.541   1.058   2.235  0.6563  0.8549  2.0143
 8108TIP3    H245740   1.472   1.192   2.241 -1.1843  0.2820 -2.2248
 8109TIP3   OH245741   5.395   4.317   1.569  0.0259 -0.2557  0.1649
 8109TIP3    H145742   5.395   4.292   1.477  2.3672 -1.0395  0.2886
 8109TIP3    H245743   5.341   4.250   1.612 -0.8256 -0.0602 -0.5760
 8110TIP3   OH245744   2.670   4.882   0.478  0.0350  0.0553 -0.2110
 8110TIP3    H145745   2.668   4.892   0.383  0.2170  1.5994 -0.0843
 8110TIP3    H245746   2.749   4.831   0.496  1.6081  2.1779 -0.7432
 8111TIP3   OH245747   3.273   3.891   2.205 -0.8048  0.4180  0.0790
 8111TIP3    H145748   3.312   3.916   2.122 -1.7031  0.1846 -0.4269
 8111TIP3    H245749   3.227   3.809   2.187 -0.4333 -0.0040  0.9775
 8112TIP3   OH245750   1.150   5.298   2.832 -0.8026 -0.1158  0.1105
 8112TIP3    H145751   1.068   5.343   2.855 -0.3148  0.5798  0.5080
 8112TIP3    H245752   1.217   5.365   2.838 -0.2971 -0.4968 -0.9774
 8113TIP3   OH245753   1.388   5.897  13.425 -0.9581  0.2031  0.5958
 8113TIP3    H145754   1.337   5.902  13.344  0.4254 -1.1572 -0.4242
 8113TIP3    H245755   1.457   5.962  13.414  0.1905 -1.0765 -0.0887
 8114TIP3   OH245756   4.829   2.911   5.985 -0.1628 -0.3762 -0.3355
 8114TIP3    H145757   4.831   3.004   6.005  1.9721 -0.2402 -0.8915
 8114TIP3    H245758   4.800   2.907   5.893  1.2997 -0.1061 -0.8307
 8115TIP3   OH245759   4.773   3.301   5.393 -0.3628 -0.6209  0.2129
 8115TIP3    H145760   4.797   3.389   5.423 -1.5755 -0.1750 -0.0796
 8115TIP3    H245761   4.695   3.279   5.444 -0.3579 -1.3381 -0.0778
 8116TIP3   OH245762   2.860   6.130   2.405 -0.0624  0.3362 -0.2060
 8116TIP3    H145763   2.780   6.178   2.425  0.0154 -0.2685  1.7210
 8116TIP3    H245764   2.923   6.197   2.380 -1.2074  0.7932 -2.0230
 8117TIP3   OH245765   1.767   1.531   3.043 -0.3810 -0.2258 -0.0060
 8117TIP3    H145766   1.699   1.597   3.027 -0.5957 -0.6228 -0.7848
 8117TIP3    H245767   1.730   1.473   3.109 -0.9948 -0.7087 -0.7644
 8118TIP3   OH245768   3.161   5.131  16.237 -0.0735 -0.4098 -0.9519
 8118TIP3    H145769   3.066   5.138  16.230 -0.1006 -1.3419 -1.8924
 8118TIP3    H245770   3.179   5.135  16.330 -1.0220 -0.0183 -0.7756
 8119TIP3   OH245771   0.166   5.817   2.084 -0.0627  0.2909  0.6611
 8119TIP3    H145772   0.083   5.853   2.055 -0.6906 -1.7694 -0.3185
 8119TIP3    H245773   0.222   5.819   2.006 -0.1549 -0.8631  0.5395
 8120TIP3   OH245774   5.835   4.900   0.987  0.3093  0.2980 -0.0409
 8120TIP3    H145775   5.922   4.938   0.998  0.3612 -0.0836  0.9742
 8120TIP3    H245776   5.844   4.810   1.017 -0.8028  0.7235  1.8007
 8121TIP3   OH245777   4.814   2.736   2.861  0.3900  0.1880  0.5702
 8121TIP3    H145778   4.726   2.727   2.825  0.6010  1.4278 -0.3098
 8121TIP3    H245779   4.838   2.647   2.889 -0.6803 -0.3694 -0.2256
 8122TIP3   OH245780   5.079   0.152   5.073  0.0027  0.2206 -0.5326
 8122TIP3    H145781   5.038   0.069   5.097  0.2713  0.0304 -0.7221
 8122TIP3    H245782   5.022   0.190   5.007 -1.8342  1.6987  1.7788
 8123TIP3   OH245783   3.210   2.294   6.064  0.1480 -0.3264 -0.2070
 8123TIP3    H145784   3.244   2.225   6.007 -1.3652 -0.9315 -0.4160
 8123TIP3    H245785   3.179   2.248   6.142  0.5247  0.3003  0.3286
 8124TIP3   OH245786   6.570   1.748   0.708  0.1541 -0.3549  0.1236
 8124TIP3    H145787   6.526   1.782   0.785  2.7231 -0.4773  1.7740
 8124TIP3    H245788   6.662   1.771   0.721  0.6125  0.2716 -3.2917
 8125TIP3   OH245789   4.371   5.359  17.054  0.3164  0.3022  0.4657
 8125TIP3    H145790   4.431   5.286  17.073 -1.1201 -1.0113  0.1524
 8125TIP3    H245791   4.317   5.367  17.132 -0.2567  0.2782  0.0802
 8126TIP3   OH245792   6.722   5.069   6.336  0.2670  0.1685  0.0260
 8126TIP3    H145793   6.652   5.125   6.302 -2.4444 -1.9168  1.6682
 8126TIP3    H245794   6.684   4.981   6.337  3.4492 -1.3520 -0.2055
 8127TIP3   OH245795   5.407   1.539  15.171 -0.4029  0.1015 -0.0324
 8127TIP3    H145796   5.450   1.460  15.204  1.3388  0.1256 -2.0118
 8127TIP3    H245797   5.330   1.507  15.124  0.8415 -0.6138 -1.7094
 8128TIP3   OH245798   0.957   3.343   2.230  0.3161 -0.9850  0.2922
 8128TIP3    H145799   0.964   3.249   2.217 -0.5282 -0.7321 -2.5785
 8128TIP3    H245800   0.948   3.380   2.142  1.0861  1.8435  1.2848
 8129TIP3   OH245801   0.663   6.300   4.323 -0.0003  0.1372 -0.1994
 8129TIP3    H145802   0.632   6.344   4.402  0.8053 -0.5573  0.5220
 8129TIP3    H245803   0.616   6.217   4.321  0.7206 -0.2888  0.1146
 8130TIP3   OH245804   0.918   0.697  15.265  0.2760 -0.3611 -0.2969
 8130TIP3    H145805   0.977   0.773  15.263 -0.8244  0.5469  0.3968
 8130TIP3    H245806   0.920   0.663  15.176  0.4496  0.7639 -0.7449
 8131TIP3   OH245807   0.621   3.895  14.960  0.6194  0.3035 -0.7927
 8131TIP3    H145808   0.694   3.929  15.012 -0.8812 -0.5048  2.0174
 8131TIP3    H245809   0.640   3.802  14.949  0.6949  0.3761 -1.2791
 8132TIP3   OH245810   5.174   6.221  13.340 -0.1926 -0.1155  0.3589
 8132TIP3    H145811   5.263   6.247  13.362 -0.8136  1.5614  1.0230
 8132TIP3    H245812   5.163   6.250  13.249 -0.4103  0.6952  0.6364
 8133TIP3   OH245813   6.439   0.228   3.172  0.4974  0.2386 -0.2384
 8133TIP3    H145814   6.458   0.165   3.242 -1.4980 -2.3325 -1.8597
 8133TIP3    H245815   6.510   0.215   3.109 -0.5133 -1.3125 -1.1087
 8134TIP3   OH245816   4.823   2.128  12.066 -0.3900  0.1246 -0.8200
 8134TIP3    H145817   4.778   2.046  12.089 -0.3696  0.3886  0.2394
 8134TIP3    H245818   4.754   2.194  12.065  0.0078  0.7092  1.7351
 8135TIP3   OH245819   6.452   1.333   0.785  0.3722  0.6037  0.0596
 8135TIP3    H145820   6.515   1.405   0.787  0.1206  0.9276 -1.6495
 8135TIP3    H245821   6.418   1.333   0.695 -1.5745  0.0158  0.7357
 8136TIP3   OH245822   2.268   6.062   2.639  0.5785  1.2707  0.1823
 8136TIP3    H145823   2.172   6.066   2.636  0.5872  1.0664 -0.4731
 8136TIP3    H245824   2.295   6.152   2.619  0.5286  1.3191  0.3262
 8137TIP3   OH245825   6.771   5.724  14.230 -0.3634 -0.0923  0.3173
 8137TIP3    H145826   6.728   5.792  14.283  1.4211  1.1068  0.3173
 8137TIP3    H245827   6.782   5.764  14.144  1.9018  0.1832  0.6831
 8138TIP3   OH245828   0.675   4.747  12.470  0.2557  0.2829  0.2981
 8138TIP3    H145829   0.714   4.742  12.557 -0.8101  2.6071  1.0099
 8138TIP3    H245830   0.595   4.695  12.476  0.2131  0.3907  0.6974
 8139TIP3   OH245831   0.718   3.125  16.720 -0.3576 -0.2549  0.1638
 8139TIP3    H145832   0.781   3.099  16.787 -0.5352  0.4774  0.6308
 8139TIP3    H245833   0.678   3.044  16.691  0.3612 -0.6690  0.3004
 8140TIP3   OH245834   2.002   3.341   1.740 -0.2590 -0.4371  0.5227
 8140TIP3    H145835   2.049   3.308   1.663 -1.1205 -2.6751  0.8758
 8140TIP3    H245836   2.014   3.436   1.737  1.1360 -0.6215 -1.4283
 8141TIP3   OH245837   6.384   6.057   3.509 -0.6391 -0.2542  0.4161
 8141TIP3    H145838   6.341   6.059   3.423 -0.5430  1.6880  0.3640
 8141TIP3    H245839   6.313   6.067   3.572 -0.4425  1.6129  0.3874
 8142TIP3   OH245840   2.140   3.411   4.883  0.4090 -0.4374  0.6592
 8142TIP3    H145841   2.215   3.352   4.872  1.2271  0.7109 -0.1367
 8142TIP3    H245842   2.065   3.360   4.855  1.3642 -0.4350 -2.2606
 8143TIP3   OH245843   2.497   4.739  13.535  0.3603 -0.1474 -0.9608
 8143TIP3    H145844   2.488   4.649  13.505 -0.7788 -0.2547 -0.3463
 8143TIP3    H245845   2.540   4.733  13.620  0.2158 -0.1212 -0.8849
 8144TIP3   OH245846   5.632   3.203   1.948  0.0046 -0.0237 -0.5001
 8144TIP3    H145847   5.709   3.154   1.920  1.2100  0.6976  1.3526
 8144TIP3    H245848   5.639   3.207   2.043 -1.4524  1.4681 -0.4054
 8145TIP3   OH245849   5.331   5.216   2.829  0.0936 -0.1686  0.3270
 8145TIP3    H145850   5.329   5.190   2.737 -1.2917  0.9551 -0.0006
 8145TIP3    H245851   5.270   5.157   2.872 -0.4661  0.3275  0.2200
 8146TIP3   OH245852   6.187   6.435  10.731 -0.2252  0.4415  0.6776
 8146TIP3    H145853   6.193   6.499  10.660 -2.0140  1.6849  1.5704
 8146TIP3    H245854   6.152   6.356  10.689  1.2658  0.2245 -0.2797
 8147TIP3   OH245855   1.924   6.261   0.325 -0.1233  0.1668 -0.0286
 8147TIP3    H145856   1.907   6.325   0.257  0.5965  0.7605  0.3285
 8147TIP3    H245857   1.839   6.220   0.342 -0.4575  0.5602 -0.7248
 8148TIP3   OH245858   5.419   6.761   3.674  0.4135  0.5434 -0.4383
 8148TIP3    H145859   5.420   6.727   3.763 -1.8065 -0.5475 -0.7704
 8148TIP3    H245860   5.510   6.753   3.644  1.5292  2.3153  2.1609
 8149TIP3   OH245861   3.264   4.587   4.270  0.2168 -1.0118 -0.0704
 8149TIP3    H145862   3.353   4.601   4.239  0.9555 -1.1816  1.8854
 8149TIP3    H245863   3.267   4.505   4.318 -1.0557 -1.1497 -0.1791
 8150TIP3   OH245864   3.048   4.983  14.068 -0.2968 -0.5761  0.0647
 8150TIP3    H145865   3.055   4.984  14.164  1.3324 -0.0797 -0.0202
 8150TIP3    H245866   3.122   5.037  14.039 -0.9677 -0.4468 -1.4676
 8151TIP3   OH245867   5.167   1.872   1.293  0.2559 -0.5310 -0.2280
 8151TIP3    H145868   5.232   1.917   1.347  2.8372 -1.8664 -2.0094
 8151TIP3    H245869   5.156   1.787   1.334  0.5025 -0.7196 -0.5503
 8152TIP3   OH245870   4.849   3.824   0.591 -0.1713  0.3775  0.9451
 8152TIP3    H145871   4.780   3.888   0.571  0.9261  2.0314  2.1705
 8152TIP3    H245872   4.807   3.762   0.651 -0.3873  1.9230  2.4688
 8153TIP3   OH245873   2.794   4.856  16.983  0.8373 -0.1773  0.6110
 8153TIP3    H145874   2.724   4.830  16.922  0.4797  2.7349 -0.3887
 8153TIP3    H245875   2.832   4.774  17.013  0.3433 -1.7991 -2.7786
 8154TIP3   OH245876   1.852   0.851  12.680 -0.2837  0.2183  0.0550
 8154TIP3    H145877   1.912   0.914  12.720 -0.5250  0.3124  0.2704
 8154TIP3    H245878   1.800   0.903  12.620  0.4678 -0.0214 -0.8234
 8155TIP3   OH245879   0.326   5.987  15.022 -0.2185 -0.5243  0.2978
 8155TIP3    H145880   0.327   6.078  15.049 -0.4694 -0.4023 -0.0926
 8155TIP3    H245881   0.374   5.941  15.090  1.6830  0.1842 -0.5077
 8156TIP3   OH245882   3.661   0.675   3.231  0.1401  0.5317 -0.1749
 8156TIP3    H145883   3.710   0.659   3.311 -0.1780  1.5428  0.2285
 8156TIP3    H245884   3.700   0.755   3.194  0.3567  0.0215 -1.0942
 8157TIP3   OH245885   5.933   1.127   0.983 -0.2158  0.0172 -0.7485
 8157TIP3    H145886   5.951   1.043   0.942  0.2069  0.0057 -0.5402
 8157TIP3    H245887   6.005   1.184   0.955  0.7352 -0.3067  0.9031
 8158TIP3   OH245888   3.178   0.711  14.927  0.1976 -0.0715  0.2874
 8158TIP3    H145889   3.173   0.807  14.933 -1.6122  0.1485 -2.8369
 8158TIP3    H245890   3.102   0.680  14.976 -0.6496  0.2676 -0.7850
 8159TIP3   OH245891   3.357   5.754  17.047  0.2093  0.7752 -0.2790
 8159TIP3    H145892   3.348   5.770  17.141 -0.2347  1.2350 -0.3986
 8159TIP3    H245893   3.314   5.669  17.034 -1.2022  1.4794 -0.3284
 8160TIP3   OH245894   2.362   2.089   0.842  0.3836  0.4122 -0.0827
 8160TIP3    H145895   2.376   2.176   0.879 -1.9118  0.4958  0.6903
 8160TIP3    H245896   2.268   2.081   0.831  0.6174 -1.5303 -1.3154
 8161TIP3   OH245897   2.332   0.856  11.178  0.3779 -0.3375 -0.1884
 8161TIP3    H145898   2.415   0.902  11.189  0.6624 -1.3789  3.0402
 8161TIP3    H245899   2.350   0.789  11.112  0.8523  1.9571 -2.5290
 8162TIP3   OH245900   6.217   4.825  16.018 -0.2695 -0.2184 -0.0445
 8162TIP3    H145901   6.200   4.906  15.969 -1.4256  0.6034  1.6255
 8162TIP3    H245902   6.312   4.815  16.015 -0.0515  1.4964  0.1534
 8163TIP3   OH245903   2.145   0.731  11.334 -0.1707 -0.2351  0.7952
 8163TIP3    H145904   2.190   0.794  11.277 -1.0896  0.8280  1.1878
 8163TIP3    H245905   2.058   0.770  11.348 -0.8417 -1.6914  0.9118
 8164TIP3   OH245906   0.617   1.474  16.593 -0.0713  0.3990 -0.1070
 8164TIP3    H145907   0.703   1.431  16.589 -1.2783 -2.1520 -1.4766
 8164TIP3    H245908   0.616   1.518  16.678  2.6130  0.6594 -0.1196
 8165TIP3   OH245909   0.974   0.350   5.375 -0.1991 -0.6393 -0.6678
 8165TIP3    H145910   0.908   0.330   5.308  0.2760 -0.6514 -1.1360
 8165TIP3    H245911   0.926   0.402   5.440 -0.5546 -0.1966 -1.2605
 8166TIP3   OH245912   4.958   1.551   1.161  0.0350 -0.4329  0.2222
 8166TIP3    H145913   5.041   1.554   1.210  0.8094  0.1198 -1.0679
 8166TIP3    H245914   4.940   1.643   1.140 -0.5736 -0.6162 -0.0505
 8167TIP3   OH245915   3.269   6.054   5.361  0.1418 -0.2029 -0.0123
 8167TIP3    H145916   3.181   6.087   5.342 -0.2889 -1.6090 -0.5630
 8167TIP3    H245917   3.283   6.076   5.453  0.0608  1.8527 -0.4335
 8168TIP3   OH245918   6.108   3.902  16.723 -0.2127 -0.0580  0.3425
 8168TIP3    H145919   6.077   3.874  16.809 -1.1283 -2.5802 -0.7329
 8168TIP3    H245920   6.070   3.990  16.712 -1.4290 -0.3545  1.8211
 8169TIP3   OH245921   6.635   5.750   3.484  0.2792  0.3555 -0.5409
 8169TIP3    H145922   6.697   5.678   3.472 -0.8447 -1.9340  4.5176
 8169TIP3    H245923   6.550   5.713   3.462 -0.0566  1.0277 -0.4116
 8170TIP3   OH245924   1.323   2.649   5.378  0.5678  0.1846 -0.1005
 8170TIP3    H145925   1.348   2.587   5.309  0.6946 -0.4740  0.5217
 8170TIP3    H245926   1.230   2.632   5.394  0.8913 -0.7690  0.9570
 8171TIP3   OH245927   1.271   3.845  12.074  0.3562  0.2110 -0.3944
 8171TIP3    H145928   1.240   3.935  12.082  0.0407  0.3578 -2.5728
 8171TIP3    H245929   1.231   3.799  12.147  1.1804  1.9811  1.2539
 8172TIP3   OH245930   0.450   1.121  15.381  0.0255 -0.2599  0.0596
 8172TIP3    H145931   0.492   1.067  15.314 -0.2449  0.0966 -0.3989
 8172TIP3    H245932   0.466   1.074  15.463  0.4831 -0.6232 -0.2346
 8173TIP3   OH245933   6.112   5.623   2.809 -0.4908  0.1739  0.1868
 8173TIP3    H145934   6.070   5.590   2.888  0.7449 -0.2939  0.6829
 8173TIP3    H245935   6.156   5.704   2.837  1.3748 -0.8652  0.4545
 8174TIP3   OH245936   6.574   0.947  12.818 -0.3476 -0.1492  0.0054
 8174TIP3    H145937   6.517   1.017  12.785 -0.5203 -0.8384 -1.2219
 8174TIP3    H245938   6.578   0.884  12.746  1.4973 -0.4035  0.2810
 8175TIP3   OH245939   3.231   6.021  16.371 -0.0711 -0.3757 -0.4589
 8175TIP3    H145940   3.280   6.102  16.387  0.9206 -0.5777 -2.2488
 8175TIP3    H245941   3.192   6.033  16.284  0.1988 -1.8500 -0.8073
 8176TIP3   OH245942   3.789   2.863   1.267 -0.2578 -0.4643  0.2093
 8176TIP3    H145943   3.812   2.952   1.293 -0.8919 -0.8764  2.3866
 8176TIP3    H245944   3.732   2.874   1.191  0.2053  0.9479  0.0406
 8177TIP3   OH245945   0.740   4.216   5.335  0.2575 -0.7163 -0.5976
 8177TIP3    H145946   0.647   4.239   5.333  0.4025  0.2969  1.5152
 8177TIP3    H245947   0.744   4.129   5.373  0.1875 -0.5646 -0.2406
 8178TIP3   OH245948   2.672   2.389  14.671 -0.2879 -0.0418  0.0267
 8178TIP3    H145949   2.577   2.402  14.661 -0.2447 -1.2506 -2.9240
 8178TIP3    H245950   2.679   2.309  14.724 -0.8139  0.8849  1.5884
 8179TIP3   OH245951   3.082   5.219  12.977 -0.1570  0.0210  0.0800
 8179TIP3    H145952   3.111   5.130  12.996 -0.4790 -0.2700 -0.7745
 8179TIP3    H245953   3.105   5.233  12.886 -0.6671  0.5936  0.0336
 8180TIP3   OH245954   2.332   2.380   3.783  0.0266 -0.0746  0.1450
 8180TIP3    H145955   2.371   2.462   3.812 -1.3822  0.7026 -0.0427
 8180TIP3    H245956   2.405   2.318   3.779  1.2683  1.3675 -0.4846
 8181TIP3   OH245957   3.459   6.531   4.128 -0.2316  0.0973  0.2807
 8181TIP3    H145958   3.440   6.442   4.097 -1.7655  0.4978  0.0185
 8181TIP3    H245959   3.375   6.577   4.123  0.7989  1.9541 -0.8232
 8182TIP3   OH245960   3.730   0.270  14.474  0.6210  0.0684 -0.2198
 8182TIP3    H145961   3.762   0.182  14.495 -0.0982 -0.4671 -1.2839
 8182TIP3    H245962   3.639   0.269  14.503  0.4954  0.3257 -0.6151
 8183TIP3   OH245963   4.237   1.198   2.620 -0.0279  0.3609  0.1375
 8183TIP3    H145964   4.290   1.254   2.564 -1.8862  1.6384 -0.4171
 8183TIP3    H245965   4.250   1.110   2.584 -0.4478  1.0221 -1.7461
 8184TIP3   OH245966   1.979   2.919   3.640 -0.0440 -0.0055  0.1038
 8184TIP3    H145967   2.025   2.904   3.557 -0.9631  2.2359 -0.8682
 8184TIP3    H245968   1.900   2.966   3.616 -0.5582  0.3121  2.2245
 8185TIP3   OH245969   2.694   0.549   1.929  0.0790  0.2062 -0.1710
 8185TIP3    H145970   2.688   0.619   1.994  0.7828  0.2437 -0.1395
 8185TIP3    H245971   2.678   0.468   1.979  1.3198  0.1711  0.1989
 8186TIP3   OH245972   0.298   3.261  15.845 -0.6699 -0.3186  0.6105
 8186TIP3    H145973   0.236   3.192  15.870  0.1301 -2.1237 -1.9512
 8186TIP3    H245974   0.370   3.252  15.907 -1.2744 -0.7195  1.2770
 8187TIP3   OH245975   6.558   2.776   6.511  0.1983 -0.1512 -0.1608
 8187TIP3    H145976   6.613   2.807   6.439 -0.5746  0.3828 -0.5302
 8187TIP3    H245977   6.516   2.697   6.476 -1.0257  0.7215 -0.7027
 8188TIP3   OH245978   2.348   4.167  16.301  0.3658  0.1087 -0.0131
 8188TIP3    H145979   2.297   4.185  16.380 -0.4436  1.1109 -0.7342
 8188TIP3    H245980   2.436   4.199  16.321  1.1427 -2.7846  1.7053
 8189TIP3   OH245981   3.415   2.179   5.214 -0.3629  0.0010  0.5360
 8189TIP3    H145982   3.506   2.194   5.241  0.2489 -0.9999 -0.8179
 8189TIP3    H245983   3.423   2.123   5.136 -2.0500  1.6990 -0.9526
 8190TIP3   OH245984   4.332   0.795  12.788  0.2058 -0.4718 -0.1253
 8190TIP3    H145985   4.409   0.787  12.844  0.6348 -3.0591 -0.9727
 8190TIP3    H245986   4.281   0.716  12.805 -1.1543  0.1367 -1.1819
 8191TIP3   OH245987   2.173   2.752  16.514 -0.0664 -0.6235 -0.0773
 8191TIP3    H145988   2.215   2.746  16.428  0.3570  0.6133  0.0176
 8191TIP3    H245989   2.203   2.674  16.561 -1.7347 -2.2936 -1.6192
 8192TIP3   OH245990   0.880   0.530  11.826  0.0657  0.0981  0.2496
 8192TIP3    H145991   0.851   0.439  11.824  0.4007 -0.0059  0.0267
 8192TIP3    H245992   0.914   0.546  11.738  0.8939  0.1465  0.5678
 8193TIP3   OH245993   6.459   0.426  15.259  0.0266  0.1028 -0.3418
 8193TIP3    H145994   6.472   0.367  15.184  2.5873 -0.4392  0.4501
 8193TIP3    H245995   6.371   0.405  15.290  0.0830 -1.8577 -1.3475
 8194TIP3   OH245996   0.468   1.589  16.385 -0.1425  0.5734 -0.0764
 8194TIP3    H145997   0.495   1.524  16.450 -1.0111  0.2322 -0.0454
 8194TIP3    H245998   0.390   1.551  16.344 -0.5148  1.4848 -0.2384
 8195TIP3   OH245999   1.435   5.971  12.933  0.2214  0.0950  0.6358
 8195TIP3    H146000   1.427   6.040  12.867  0.9669  0.3849  0.8366
 8195TIP3    H246001   1.493   5.906  12.893  0.9885  0.4531  1.1351
 8196TIP3   OH246002   5.461   6.115  16.064  0.0121 -0.2535 -0.1673
 8196TIP3    H146003   5.371   6.140  16.085  0.7282  1.4144  1.1139
 8196TIP3    H246004   5.504   6.196  16.040  1.3469 -0.9109 -0.1026
 8197TIP3   OH246005   5.085   3.693   5.404 -0.3179 -0.3881  0.5183
 8197TIP3    H146006   5.173   3.732   5.396 -0.2439 -0.5839  0.3692
 8197TIP3    H246007   5.037   3.755   5.459 -1.1962  1.6080 -2.2641
 8198TIP3   OH246008   3.926   0.128   4.520  0.2893  0.6610  0.4015
 8198TIP3    H146009   3.994   0.062   4.536 -1.4491 -1.0310  1.2744
 8198TIP3    H246010   3.955   0.204   4.570  1.0166 -0.3961  1.6642
 8199TIP3   OH246011   0.283   3.998  10.904 -0.5094  0.0642  0.5142
 8199TIP3    H146012   0.194   3.982  10.872 -1.0630 -0.5558  2.2545
 8199TIP3    H246013   0.340   3.960  10.837 -1.4007  2.4926 -1.8288
 8200TIP3   OH246014   2.094   4.327   2.253  0.3822  0.0946 -0.2342
 8200TIP3    H146015   2.121   4.418   2.269  1.5270 -0.0290 -1.2482
 8200TIP3    H246016   2.175   4.284   2.225  0.0577 -1.4822  1.1754
 8201TIP3   OH246017   5.297   4.118  16.208 -0.5427  0.6485  1.0838
 8201TIP3    H146018   5.207   4.149  16.219 -0.3428  1.0377  1.6636
 8201TIP3    H246019   5.342   4.145  16.289 -0.0071  0.1010  0.9780
 8202TIP3   OH246020   4.318   5.419   3.546 -0.2490  0.0779  0.2186
 8202TIP3    H146021   4.247   5.389   3.489  0.8867 -1.5533 -0.3936
 8202TIP3    H246022   4.309   5.366   3.626  0.5542 -0.4984 -0.0609
 8203TIP3   OH246023   6.012   4.605  14.196  0.5445  0.3549 -0.6933
 8203TIP3    H146024   5.919   4.588  14.212  0.5542  0.4077 -0.5786
 8203TIP3    H246025   6.014   4.648  14.110  0.2475  2.3899  0.2621
 8204TIP3   OH246026   5.633   0.840  14.851  0.2833 -0.6518 -0.2314
 8204TIP3    H146027   5.629   0.768  14.789  0.1582  1.4306 -2.8331
 8204TIP3    H246028   5.727   0.854  14.866  0.3376 -0.8690 -0.3671
 8205TIP3   OH246029   1.960   1.969   1.336  0.6573  0.7692  0.4986
 8205TIP3    H146030   1.902   2.022   1.280  0.9607 -0.6111 -1.2149
 8205TIP3    H246031   1.902   1.902   1.374  0.7716  0.5849  0.3508
 8206TIP3   OH246032   2.300   2.013   1.123 -0.8417  0.1000 -0.8511
 8206TIP3    H146033   2.348   2.070   1.064  0.1082  0.1936 -0.0154
 8206TIP3    H246034   2.367   1.978   1.182 -1.4127 -1.7804 -1.2550
 8207TIP3   OH246035   4.600   6.075  12.562 -0.9181 -0.1186  0.1991
 8207TIP3    H146036   4.688   6.040  12.576 -1.2552 -1.1264 -0.0916
 8207TIP3    H246037   4.610   6.136  12.489  0.1931  2.5848  2.4242
 8208TIP3   OH246038   3.521   5.356  16.485 -0.5927  0.0880  0.1824
 8208TIP3    H146039   3.428   5.377  16.495 -0.3117  1.3186  0.3245
 8208TIP3    H246040   3.529   5.325  16.395 -1.4328 -1.7451  0.6946
 8209TIP3   OH246041   1.601   2.709  16.773 -0.1650 -0.3560  0.4230
 8209TIP3    H146042   1.569   2.707  16.683  2.9042 -1.3865 -0.8005
 8209TIP3    H246043   1.548   2.644  16.820 -2.0811  0.4930 -0.4867
 8210TIP3   OH246044   6.275   4.623   0.709 -0.1011 -0.1077  0.5097
 8210TIP3    H146045   6.181   4.621   0.728 -0.3988 -0.7315 -0.9219
 8210TIP3    H246046   6.281   4.603   0.616  1.5484 -1.8875  0.9255
 8211TIP3   OH246047   2.867   0.603   3.834  0.2112 -0.0429  0.6502
 8211TIP3    H146048   2.792   0.543   3.832  1.1509 -1.2412 -0.9175
 8211TIP3    H246049   2.925   0.566   3.901  0.1528 -0.0776  0.6823
 8212TIP3   OH246050   5.065   6.200  13.640 -0.3023  0.2999 -0.5171
 8212TIP3    H146051   5.065   6.112  13.602 -1.7669 -0.2584  0.6766
 8212TIP3    H246052   5.133   6.247  13.592  0.8783 -1.6320 -0.8360
 8213TIP3   OH246053   6.592   5.369   3.035 -0.4996  0.0977 -0.5057
 8213TIP3    H146054   6.523   5.307   3.012  0.8676 -1.5902 -0.2727
 8213TIP3    H246055   6.640   5.384   2.954 -1.1814  1.3799 -0.7015
 8214TIP3   OH246056   3.521   1.636  12.617 -0.1084  0.3754  0.2041
 8214TIP3    H146057   3.545   1.728  12.632 -0.4791  0.3141  1.2289
 8214TIP3    H246058   3.531   1.594  12.702 -4.3987  0.4770  0.9914
 8215TIP3   OH246059   5.252   0.502  15.317 -0.0149 -0.2955  0.0541
 8215TIP3    H146060   5.229   0.576  15.261  1.5176 -0.6020 -1.0459
 8215TIP3    H246061   5.306   0.446  15.262 -0.8583 -2.0947  0.9711
 8216TIP3   OH246062   5.517   2.237   4.375 -0.5534  0.1705  0.2969
 8216TIP3    H146063   5.587   2.235   4.441  0.8703 -1.3614 -1.1570
 8216TIP3    H246064   5.529   2.156   4.325  0.5558  2.5788 -3.8504
 8217TIP3   OH246065   5.205   2.234   4.744 -1.2000 -0.1811  0.3897
 8217TIP3    H146066   5.261   2.167   4.784 -0.7324  1.8589  3.4219
 8217TIP3    H246067   5.237   2.240   4.654  0.6234 -2.0213  0.8252
 8218TIP3   OH246068   2.234   2.264   2.009  0.1317  0.3884 -0.0594
 8218TIP3    H146069   2.259   2.349   1.974  0.2334 -0.2905 -1.7243
 8218TIP3    H246070   2.312   2.209   1.996 -0.6493 -0.5254 -1.0490
 8219TIP3   OH246071   2.054   1.601  16.471 -0.2344 -0.2940  0.8805
 8219TIP3    H146072   2.137   1.598  16.424 -1.9285 -0.1504 -2.3536
 8219TIP3    H246073   2.061   1.532  16.536  2.9471  0.7277  1.8030
 8220TIP3   OH246074   2.861   4.647   0.446  0.0310 -0.6511 -0.6827
 8220TIP3    H146075   2.857   4.556   0.475  2.8799 -0.1381  1.7909
 8220TIP3    H246076   2.940   4.651   0.393 -0.4983  0.2734 -1.4285
 8221TIP3   OH246077   4.699   0.555  14.558  0.6156  0.5516 -0.1988
 8221TIP3    H146078   4.639   0.624  14.532  1.0738  0.8145 -0.5667
 8221TIP3    H246079   4.669   0.478  14.509  0.8781  0.8041 -0.7693
 8222TIP3   OH246080   5.358   0.367  12.037  0.2488  0.0800  0.3945
 8222TIP3    H146081   5.295   0.295  12.033 -0.3049  0.6104 -1.8086
 8222TIP3    H246082   5.432   0.337  11.984  0.8910  0.3551  1.1210
 8223TIP3   OH246083   5.143   2.591   5.210  0.4845  0.1272 -0.3958
 8223TIP3    H146084   5.143   2.532   5.285 -2.4098  0.7750  0.2440
 8223TIP3    H246085   5.154   2.534   5.134  0.5495 -0.9070  0.3749
 8224TIP3   OH246086   6.155   5.489  11.398  0.1461  0.5553 -0.0484
 8224TIP3    H146087   6.120   5.455  11.480 -0.3038 -0.9877 -0.8539
 8224TIP3    H246088   6.173   5.582  11.416  1.8025 -0.1343  2.3594
 8225TIP3   OH246089   5.530   3.127  15.362 -0.1755  0.7317  0.2418
 8225TIP3    H146090   5.449   3.096  15.402  1.3906 -1.7895  1.7858
 8225TIP3    H246091   5.516   3.116  15.268 -0.9247 -1.7640  0.5735
 8226TIP3   OH246092   4.276   3.865  14.690  0.0785 -0.0007 -0.1488
 8226TIP3    H146093   4.360   3.840  14.729  0.7433 -1.0490 -2.1490
 8226TIP3    H246094   4.300   3.926  14.620 -0.9261  0.2798 -0.2563
 8227TIP3   OH246095   4.952   3.662   2.300  0.3206  0.1617 -0.5000
 8227TIP3    H146096   4.863   3.679   2.331  1.2492  1.0377  1.8864
 8227TIP3    H246097   4.976   3.740   2.250 -0.7049 -0.6938 -2.4424
 8228TIP3   OH246098   2.375   6.231   1.452 -0.1216  0.0608 -0.2558
 8228TIP3    H146099   2.293   6.183   1.467 -0.0161  0.1363  0.6361
 8228TIP3    H246100   2.371   6.304   1.514 -0.0277  0.8997 -1.2149
 8229TIP3   OH246101   1.260   5.958   5.831 -0.1972  0.2199  0.1601
 8229TIP3    H146102   1.274   5.868   5.801  0.6278  0.1879  0.6275
 8229TIP3    H246103   1.240   5.949   5.924  1.7327  0.6379  0.6476
 8230TIP3   OH246104   2.055   1.928   6.274 -0.0622  0.4078  0.3867
 8230TIP3    H146105   2.138   1.886   6.296  0.0355 -1.0478 -2.2888
 8230TIP3    H246106   2.012   1.941   6.358  2.0702 -0.5392  1.7117
 8231TIP3   OH246107   0.490   5.458  16.918  0.5197  0.0519  0.4193
 8231TIP3    H146108   0.545   5.383  16.896 -1.3092 -1.7123  1.5294
 8231TIP3    H246109   0.415   5.451  16.859  0.3929  1.1328  0.4250
 8232TIP3   OH246110   6.455   6.771   1.682 -0.4772  0.6793 -0.1081
 8232TIP3    H146111   6.377   6.798   1.730 -1.0418  0.4125 -0.8483
 8232TIP3    H246112   6.519   6.748   1.749 -0.3741  2.7064  0.5513
 8233TIP3   OH246113   4.635   3.176  14.761  0.1963 -0.0108 -0.3820
 8233TIP3    H146114   4.714   3.196  14.711 -1.0593 -0.0169 -2.5329
 8233TIP3    H246115   4.619   3.083  14.744 -0.1638 -0.0521  0.1849
 8234TIP3   OH246116   5.251   0.710   1.782  0.6326  0.2934  0.1675
 8234TIP3    H146117   5.338   0.751   1.782  0.6433  0.3177  1.9786
 8234TIP3    H246118   5.190   0.782   1.768  0.8863  0.2355 -1.4348
 8235TIP3   OH246119   5.668   5.178  14.576 -0.0117  0.3155 -0.0106
 8235TIP3    H146120   5.742   5.221  14.533 -1.2000  1.3269 -1.1083
 8235TIP3    H246121   5.611   5.250  14.603 -0.2044 -0.4076  1.6129
 8236TIP3   OH246122   1.050   6.187  11.237 -0.0952  0.5443  0.0915
 8236TIP3    H146123   1.059   6.261  11.296 -0.3809  1.7623 -1.3420
 8236TIP3    H246124   0.956   6.171  11.232 -0.0935  0.6516 -0.2811
 8237TIP3   OH246125   3.571   4.527   5.153  0.1356  0.7819  0.2785
 8237TIP3    H146126   3.566   4.444   5.201 -0.6321 -0.1327 -1.2870
 8237TIP3    H246127   3.480   4.547   5.130  0.3758  1.7568  0.1279
 8238TIP3   OH246128   1.535   4.249   1.099 -0.3552  0.4114  0.0880
 8238TIP3    H146129   1.551   4.329   1.049  0.9653  0.7448  0.9790
 8238TIP3    H246130   1.606   4.246   1.163 -1.5790 -0.3577  1.4918
 8239TIP3   OH246131   5.149   4.612   1.192 -0.6574 -0.4620  0.0284
 8239TIP3    H146132   5.223   4.671   1.209  0.6475 -1.9066 -0.3777
 8239TIP3    H246133   5.085   4.667   1.147  0.0135  0.9209  0.6936
 8240TIP3   OH246134   4.061   6.789  17.146  0.8460  0.1090 -0.3973
 8240TIP3    H146135   3.982   6.836  17.118  0.1248  0.1229  1.5163
 8240TIP3    H246136   4.130   6.822  17.089 -0.3545  0.7401 -1.5454
 8241TIP3   OH246137   6.673   0.279  15.658 -0.3368 -0.8980  0.4093
 8241TIP3    H146138   6.637   0.219  15.593  0.6254 -1.5040  0.4106
 8241TIP3    H246139   6.768   0.273  15.645 -0.1579 -0.6805  1.5691
 8242TIP3   OH246140   6.647   2.853   3.772  0.6858  0.0308  0.6957
 8242TIP3    H146141   6.707   2.923   3.799  0.8307 -0.7548  2.5912
 8242TIP3    H246142   6.699   2.773   3.779 -0.3802 -0.5916  1.7500
 8243TIP3   OH246143   5.701   2.646  14.060  0.5983 -0.3595  0.6041
 8243TIP3    H146144   5.682   2.630  14.152 -0.7643 -0.4270  0.3223
 8243TIP3    H246145   5.658   2.575  14.013  0.7211  0.0402 -0.1333
 8244TIP3   OH246146   3.935   3.819   1.021  0.4902  0.5193 -0.3432
 8244TIP3    H146147   3.995   3.752   0.988  0.2074  1.3441 -2.7821
 8244TIP3    H246148   3.848   3.786   1.000  0.1734  0.3127  1.1993
 8245TIP3   OH246149   4.427   3.780   3.803 -0.6688 -0.1018 -0.3779
 8245TIP3    H146150   4.413   3.850   3.867 -1.4737 -1.2212  0.7054
 8245TIP3    H246151   4.379   3.809   3.725 -2.1515 -0.0633  0.5222
 8246TIP3   OH246152   1.026   1.214   3.780  0.1974 -0.6864 -0.0508
 8246TIP3    H146153   1.097   1.209   3.844  0.7940 -1.3284 -0.7436
 8246TIP3    H246154   0.985   1.127   3.783  1.3504 -1.3456 -1.7666
 8247TIP3   OH246155   1.729   4.389   4.090  0.5199  0.3206  0.6859
 8247TIP3    H146156   1.634   4.378   4.082  0.1705  0.4990  3.7110
 8247TIP3    H246157   1.753   4.445   4.016 -1.6577  0.0824 -0.2734
 8248TIP3   OH246158   1.770   6.713  11.165  0.7085 -0.5516  0.4513
 8248TIP3    H146159   1.783   6.655  11.089  1.2302 -1.3308  1.1141
 8248TIP3    H246160   1.852   6.706  11.214  1.3238  1.8083 -0.1141
 8249TIP3   OH246161   4.787   4.288  12.996 -0.0086  0.4118 -0.8187
 8249TIP3    H146162   4.783   4.224  12.925 -0.2100 -0.4824 -0.0169
 8249TIP3    H246163   4.781   4.373  12.952 -1.0244 -0.1432 -1.7954
 8250TIP3   OH246164   1.040   3.657   2.224 -0.1524  0.1931 -0.2296
 8250TIP3    H146165   1.081   3.582   2.268 -0.0128  0.7116  0.5308
 8250TIP3    H246166   0.949   3.654   2.252  0.1667  1.1602  1.0066
 8251TIP3   OH246167   0.930   2.569  16.340  0.4953 -0.2899 -0.3433
 8251TIP3    H146168   0.998   2.502  16.331  1.4124  0.7577 -1.5405
 8251TIP3    H246169   0.942   2.603  16.429  1.5874 -0.0981 -0.5434
 8252TIP3   OH246170   5.192   5.692   3.404  0.7035 -0.1206  0.1173
 8252TIP3    H146171   5.121   5.696   3.339 -0.2123 -0.6728  1.0504
 8252TIP3    H246172   5.272   5.688   3.352 -0.0399 -1.2237 -0.9934
 8253TIP3   OH246173   5.594   5.933  16.464 -0.0099 -0.3343  0.0688
 8253TIP3    H146174   5.575   5.843  16.489  0.8097 -0.4859  0.1669
 8253TIP3    H246175   5.689   5.939  16.466 -0.0761  1.0274  1.8160
 8254TIP3   OH246176   1.377   1.854   1.217  0.1408 -0.0491  0.0978
 8254TIP3    H146177   1.368   1.759   1.216  0.5683 -0.0920 -0.7692
 8254TIP3    H246178   1.424   1.875   1.136  1.8408  0.7212  1.2289
 8255TIP3   OH246179   0.106   2.285  12.286 -0.0508  0.1097  0.0580
 8255TIP3    H146180   0.132   2.330  12.205  0.8069  0.0312  0.2873
 8255TIP3    H246181   0.185   2.284  12.340 -0.4703 -0.3317  0.6759
 8256TIP3   OH246182   0.313   1.185  12.794  0.5493 -0.0434  0.3705
 8256TIP3    H146183   0.248   1.215  12.731  2.0382  0.0427 -1.2285
 8256TIP3    H246184   0.278   1.103  12.828  0.5202 -1.1669 -2.1028
 8257TIP3   OH246185   4.278   4.001  16.924  0.7304  0.5854 -0.3577
 8257TIP3    H146186   4.276   4.001  17.020  2.3027  0.5575 -0.3013
 8257TIP3    H246187   4.211   4.064  16.899  1.0873  1.4571  0.7969
 8258TIP3   OH246188   1.638   5.320   4.153 -0.5153  0.2297 -0.5476
 8258TIP3    H146189   1.662   5.321   4.246 -0.0174 -2.1833 -0.5950
 8258TIP3    H246190   1.716   5.288   4.109  0.0924  3.4880 -2.1832
 8259TIP3   OH246191   3.872   2.634  11.984  0.5420 -0.4642 -0.5184
 8259TIP3    H146192   3.843   2.653  11.895  2.0164  2.1952 -0.5292
 8259TIP3    H246193   3.949   2.579  11.973 -0.1800 -1.4307 -0.8010
 8260TIP3   OH246194   1.577   3.819   2.687 -0.1506  0.0412  0.1640
 8260TIP3    H146195   1.623   3.760   2.628  2.1794  2.0611 -0.1958
 8260TIP3    H246196   1.487   3.787   2.687  0.8279 -3.1188 -0.4206
 8261TIP3   OH246197   0.321   3.633   6.744 -0.3840 -0.1549  0.2218
 8261TIP3    H146198   0.387   3.571   6.712  0.2652  1.5126 -1.8940
 8261TIP3    H246199   0.253   3.577   6.783  1.3499 -2.0160  0.7529
 8262TIP3   OH246200   3.877   3.305  11.607  0.6954 -0.4606  0.9798
 8262TIP3    H146201   3.857   3.366  11.678 -0.2959  0.1845  0.1769
 8262TIP3    H246202   3.917   3.360  11.540 -0.4584 -0.6189  0.1381
 8263TIP3   OH246203   0.789   6.474   3.069 -0.4889 -0.2483 -0.0419
 8263TIP3    H146204   0.827   6.558   3.096 -1.7189  0.1775  0.4547
 8263TIP3    H246205   0.753   6.491   2.982 -0.2806 -0.4071 -0.1583
 8264TIP3   OH246206   6.378   0.376  12.200 -0.7192 -0.0911 -0.7024
 8264TIP3    H146207   6.302   0.433  12.188 -1.5496 -1.4585 -2.4766
 8264TIP3    H246208   6.342   0.297  12.241 -0.1821 -0.5466 -1.0966
 8265TIP3   OH246209   2.093   6.248   2.050  0.3296 -0.1682 -0.1794
 8265TIP3    H146210   2.124   6.191   2.119 -0.0006  0.4207  0.4679
 8265TIP3    H246211   2.173   6.277   2.005  0.4604 -1.6758 -0.9771
 8266TIP3   OH246212   0.263   1.732   0.061  0.7204  0.0189 -0.1463
 8266TIP3    H146213   0.307   1.651   0.035 -0.3887 -0.3284 -1.0417
 8266TIP3    H246214   0.317   1.767   0.131  2.4850 -0.3188 -1.2645
 8267TIP3   OH246215   0.406   5.063   4.483 -0.3556 -0.3230  0.1865
 8267TIP3    H146216   0.323   5.088   4.442 -0.0455  1.9200  0.8102
 8267TIP3    H246217   0.381   5.012   4.560 -1.0911 -0.8262 -0.3726
 8268TIP3   OH246218   3.477   5.333   0.147 -0.1003 -0.3716  0.4059
 8268TIP3    H146219   3.388   5.332   0.181 -0.5895 -1.2295 -0.8137
 8268TIP3    H246220   3.492   5.243   0.117  0.9908 -0.1105  0.1170
 8269TIP3   OH246221   1.429   3.469   2.911  0.3745  0.1901  0.8409
 8269TIP3    H146222   1.447   3.552   2.954  1.6954 -0.0437  0.7931
 8269TIP3    H246223   1.483   3.471   2.831  0.0912 -0.5250  0.6195
 8270TIP3   OH246224   5.108   6.484   0.349  0.6318  0.2601 -0.4716
 8270TIP3    H146225   5.072   6.405   0.310 -0.6710 -0.0774  1.3029
 8270TIP3    H246226   5.202   6.467   0.356  0.1429 -2.1106  1.8779
 8271TIP3   OH246227   6.634   2.830  14.941  0.0967  0.2005  0.2215
 8271TIP3    H146228   6.654   2.862  14.854 -0.6016  1.8250  0.6194
 8271TIP3    H246229   6.694   2.877  14.999  1.4655 -1.8060  0.5563
 8272TIP3   OH246230   1.762   5.043  14.120 -0.2839 -0.1263  0.0634
 8272TIP3    H146231   1.792   5.034  14.210  1.7119 -0.2065 -0.5566
 8272TIP3    H246232   1.819   4.985  14.070 -1.5278 -0.2936 -1.2437
 8273TIP3   OH246233   1.972   3.261  16.969  0.3022 -0.6957  0.1240
 8273TIP3    H146234   2.009   3.174  16.957 -2.3050 -2.0334  1.0255
 8273TIP3    H246235   1.906   3.270  16.900 -0.1062  0.1676  0.6002
 8274TIP3   OH246236   6.124   3.584  16.281 -0.6022 -0.3032  0.1301
 8274TIP3    H146237   6.052   3.521  16.289 -1.4851  0.6765  0.1718
 8274TIP3    H246238   6.130   3.624  16.367 -0.5847  0.2255 -0.1128
 8275TIP3   OH246239   6.412   0.285  13.126 -0.7148 -0.3455  0.0225
 8275TIP3    H146240   6.490   0.303  13.074  0.3213 -1.9972  0.9024
 8275TIP3    H246241   6.446   0.268  13.214 -1.9883 -1.6625  0.2980
 8276TIP3   OH246242   2.947   6.491   3.409 -0.3045 -0.4877  0.8310
 8276TIP3    H146243   2.959   6.474   3.316 -0.6412 -0.9998  0.8741
 8276TIP3    H246244   3.028   6.460   3.450 -0.6084 -1.3039  0.8246
 8277TIP3   OH246245   5.685   5.528   5.743 -0.0069  0.2542 -0.0266
 8277TIP3    H146246   5.664   5.541   5.836  1.0506  0.4308  0.1991
 8277TIP3    H246247   5.601   5.537   5.698 -0.6051 -0.2407  0.9504
 8278TIP3   OH246248   2.777   0.697  12.159  0.1909  0.2884  0.2202
 8278TIP3    H146249   2.751   0.655  12.242  1.2088  0.2064  0.5056
 8278TIP3    H246250   2.805   0.624  12.104 -1.5680  0.2020 -0.6464
 8279TIP3   OH246251   3.790   3.687  15.783  0.0376 -0.1982 -0.1015
 8279TIP3    H146252   3.883   3.672  15.803  0.3643  0.7401 -0.8284
 8279TIP3    H246253   3.778   3.781  15.798 -0.9804 -0.4246  0.6473
 8280TIP3   OH246254   5.633   2.648  16.761  0.3060 -0.2592  0.1835
 8280TIP3    H146255   5.694   2.584  16.725  1.3993 -0.3249  1.9893
 8280TIP3    H246256   5.670   2.733  16.736  1.0371 -0.3038  1.0556
 8281TIP3   OH246257   4.530   0.940   1.846  0.2347  0.6391 -0.4661
 8281TIP3    H146258   4.537   1.021   1.797  0.6818  0.7696 -0.2012
 8281TIP3    H246259   4.553   0.871   1.784  1.6206  0.8712 -0.2430
 8282TIP3   OH246260   4.881   1.167   0.196  0.1642 -0.2293 -0.0588
 8282TIP3    H146261   4.916   1.242   0.243 -2.4938  0.0509  1.6753
 8282TIP3    H246262   4.856   1.202   0.110  3.8424 -0.4601 -1.4172
 8283TIP3   OH246263   4.982   0.394   4.139 -0.3817  0.1469  0.0660
 8283TIP3    H146264   4.949   0.485   4.141 -3.3750 -0.7416 -1.7868
 8283TIP3    H246265   4.956   0.358   4.223 -0.4155  0.6267  0.2684
 8284TIP3   OH246266   1.406   0.028  13.850  0.3851  0.6431  0.1612
 8284TIP3    H146267   1.339   0.092  13.826  0.9157  0.8953 -0.7072
 8284TIP3    H246268   1.357  -0.044  13.888 -0.3215  1.1075  0.1650
 8285TIP3   OH246269   3.083   2.066  16.355  0.0089  0.4675  0.2298
 8285TIP3    H146270   3.140   2.138  16.382  1.6735 -0.0979 -1.4993
 8285TIP3    H246271   3.044   2.096  16.273  1.5047 -0.8846 -1.0573
 8286TIP3   OH246272   5.337   2.341  12.397  0.3466  0.2276 -0.0883
 8286TIP3    H146273   5.300   2.298  12.320  0.2227 -0.2018  0.2037
 8286TIP3    H246274   5.419   2.379  12.366 -0.0523  0.6890 -0.6017
 8287TIP3   OH246275   6.393   1.230  14.356  0.1203 -0.7325  0.1082
 8287TIP3    H146276   6.389   1.157  14.418 -0.0214 -0.0644  0.8976
 8287TIP3    H246277   6.302   1.246  14.331  0.0035  0.0153  0.9540
 8288TIP3   OH246278   6.073   1.792  14.716  0.3143  0.6911 -0.1850
 8288TIP3    H146279   6.157   1.748  14.715  1.0850  2.0798 -2.0123
 8288TIP3    H246280   6.036   1.776  14.630 -1.6572 -0.4589  0.8036
 8289TIP3   OH246281   3.142   0.013   0.221  0.1621 -0.7506 -0.0401
 8289TIP3    H146282   3.058  -0.023   0.193 -0.1543  0.1073 -0.2311
 8289TIP3    H246283   3.178  -0.052   0.281 -0.3485 -1.4144 -0.4398
 8290TIP3   OH246284   1.121   6.416   4.292  0.1239  0.6132 -0.0909
 8290TIP3    H146285   1.044   6.473   4.281  0.5058  1.2664  0.5684
 8290TIP3    H246286   1.086   6.335   4.330 -0.2769  0.7998 -0.0624
 8291TIP3   OH246287   6.124   3.043  17.122  0.1481 -0.8451  0.5250
 8291TIP3    H146288   6.046   2.987  17.123 -0.8490  0.4831  0.3485
 8291TIP3    H246289   6.114   3.099  17.199  1.2271 -1.0205  0.8122
 8292TIP3   OH246290   1.096   2.699  15.176  0.1597  0.2863  0.3847
 8292TIP3    H146291   1.026   2.665  15.120  0.0055 -1.5948  1.6565
 8292TIP3    H246292   1.057   2.775  15.220 -0.1179  1.0180 -1.0414
 8293TIP3   OH246293   5.379   3.965  12.122  0.3420 -0.0882  0.3613
 8293TIP3    H146294   5.387   4.029  12.051 -1.0787 -0.6311 -0.3303
 8293TIP3    H246295   5.375   4.018  12.202  0.0863  0.6369 -0.1216
 8294TIP3   OH246296   5.436   5.943   5.136  0.0876  0.1252 -0.1798
 8294TIP3    H146297   5.507   5.899   5.182  0.8764 -0.3672 -1.7930
 8294TIP3    H246298   5.402   6.006   5.199  2.4192  0.8815  0.4199
 8295TIP3   OH246299   1.082   0.432   0.362 -0.6786 -0.3354  0.4844
 8295TIP3    H146300   1.079   0.376   0.285 -0.5361  0.0833  0.1727
 8295TIP3    H246301   1.018   0.501   0.344  0.0950  0.3459  0.2748
 8296TIP3   OH246302   4.341   0.825   0.863  0.4313  0.3486  0.1860
 8296TIP3    H146303   4.417   0.881   0.881  0.6643  0.6715 -1.6169
 8296TIP3    H246304   4.274   0.886   0.831  0.2689 -0.2418 -0.6200
 8297TIP3   OH246305   1.217   1.929  11.800 -0.2487  0.1029 -0.5328
 8297TIP3    H146306   1.194   1.970  11.883  1.7842  0.3339 -0.0362
 8297TIP3    H246307   1.137   1.883  11.773 -1.5492  1.6191  0.5516
 8298TIP3   OH246308   6.467   1.296   6.439  0.0749  0.7064 -0.0343
 8298TIP3    H146309   6.528   1.367   6.458  0.6724  0.2893 -0.3649
 8298TIP3    H246310   6.447   1.257   6.524  2.5582 -1.0103 -0.1291
 8299TIP3   OH246311   6.564   3.001   1.336 -0.6298 -0.0450  0.7270
 8299TIP3    H146312   6.615   3.068   1.381  0.4592 -0.6342  0.4098
 8299TIP3    H246313   6.532   2.944   1.407 -3.3520  1.9192  1.2219
 8300TIP3   OH246314   4.240   4.065   5.894  0.0130 -0.2272  0.3321
 8300TIP3    H146315   4.285   4.017   5.964 -0.1637 -1.0839 -0.1351
 8300TIP3    H246316   4.151   4.077   5.927  0.1018 -0.0718  0.5181
 8301TIP3   OH246317   5.296   2.239  13.162  0.2518  0.4314  0.2784
 8301TIP3    H146318   5.307   2.148  13.135  0.7239  0.2755  0.9643
 8301TIP3    H246319   5.385   2.275  13.165  0.3150  0.2619  2.1440
 8302TIP3   OH246320   1.446   3.608  15.275  0.0155 -0.2746  0.0004
 8302TIP3    H146321   1.513   3.667  15.309 -1.2067  1.0007  0.2877
 8302TIP3    H246322   1.392   3.585  15.351 -1.3038  0.6722 -0.6061
 8303TIP3   OH246323   3.180   1.446  12.516  0.0073  0.0431  0.0711
 8303TIP3    H146324   3.177   1.517  12.580 -0.7265  0.5281 -0.4820
 8303TIP3    H246325   3.260   1.461  12.466  1.3245 -1.1255  1.7295
 8304TIP3   OH246326   0.782   0.807   5.073 -0.0365 -0.0402 -0.1499
 8304TIP3    H146327   0.842   0.873   5.108 -0.0336  0.5590 -1.2643
 8304TIP3    H246328   0.828   0.771   4.997 -0.9301  0.1810 -0.8068
 8305TIP3   OH246329   2.512   5.983   4.414 -0.3058  0.4650  0.3562
 8305TIP3    H146330   2.462   5.960   4.492  1.1028  0.1485  1.2038
 8305TIP3    H246331   2.528   5.900   4.370 -0.3022  0.5322  0.2313
 8306TIP3   OH246332   1.370   2.969   3.035  0.9331  0.3834 -0.3960
 8306TIP3    H146333   1.367   2.995   3.127 -0.5601  0.7143 -0.5074
 8306TIP3    H246334   1.372   3.052   2.987 -1.3404  0.3419 -0.6937
 8307TIP3   OH246335   2.951   0.649  15.050 -0.0758  0.2527 -0.4611
 8307TIP3    H146336   2.882   0.695  15.098 -0.4378 -1.0870  0.3592
 8307TIP3    H246337   2.905   0.580  15.002  0.5484  0.1488 -0.9281
 8308TIP3   OH246338   3.851   6.102  16.085 -0.2413  0.4369  0.0492
 8308TIP3    H146339   3.882   6.189  16.109  0.1020  0.9377 -2.0618
 8308TIP3    H246340   3.820   6.111  15.995  1.9563 -2.0976 -1.0953
 8309TIP3   OH246341   2.646   6.169  16.128  0.1769  0.0740 -0.5262
 8309TIP3    H146342   2.559   6.179  16.091  0.0337  0.1788 -0.1647
 8309TIP3    H246343   2.706   6.197  16.058  0.0067 -1.6135 -1.3855
 8310TIP3   OH246344   0.314   2.101   4.941 -0.7629  0.3620 -0.3682
 8310TIP3    H146345   0.314   2.151   5.022 -0.8778  1.6946 -1.1558
 8310TIP3    H246346   0.222   2.091   4.918 -0.7584 -0.6202  0.0165
 8311TIP3   OH246347   4.962   5.862  11.831 -0.2668  0.5860 -0.6550
 8311TIP3    H146348   4.932   5.775  11.857  1.1183  0.4240  0.4890
 8311TIP3    H246349   5.006   5.849  11.747  0.5421  0.0484 -0.1553
 8312TIP3   OH246350   2.529   1.177  13.863  0.2352 -0.9003 -0.2989
 8312TIP3    H146351   2.487   1.167  13.949 -1.2368  1.6344 -0.6438
 8312TIP3    H246352   2.482   1.116  13.806 -1.8179  0.5333 -0.2333
 8313TIP3   OH246353   4.791   4.356  15.184  0.4455 -0.0794  0.4301
 8313TIP3    H146354   4.717   4.302  15.210  0.0578  0.1935 -0.0733
 8313TIP3    H246355   4.814   4.324  15.097  0.3714  0.3931  0.2324
 8314TIP3   OH246356   1.479   1.345  15.694 -0.1566  0.6124 -0.1004
 8314TIP3    H146357   1.431   1.399  15.632  0.5105  0.0216 -1.1495
 8314TIP3    H246358   1.420   1.271  15.712  0.7751 -0.7551 -2.3308
 8315TIP3   OH246359   0.059   5.610   5.919  0.5946  0.1785 -0.5058
 8315TIP3    H146360  -0.027   5.572   5.902 -0.4798  2.6414 -0.9583
 8315TIP3    H246361   0.059   5.628   6.013  1.2142 -1.0923 -0.2382
 8316TIP3   OH246362   0.133   4.064   3.958 -0.1034 -0.3614 -0.1662
 8316TIP3    H146363   0.056   4.121   3.957  0.3927  0.3238  0.1808
 8316TIP3    H246364   0.134   4.027   4.046  0.5174  0.4194  0.1739
 8317TIP3   OH246365   6.514   2.171   0.862  0.2926  0.1212 -0.4094
 8317TIP3    H146366   6.594   2.199   0.817  1.3981  1.1059  1.9735
 8317TIP3    H246367   6.470   2.253   0.885 -0.8933 -0.3867 -0.8078
 8318TIP3   OH246368   1.940   6.247  12.309 -0.5289 -0.0559  0.2350
 8318TIP3    H146369   1.878   6.185  12.348 -0.7220 -0.2768 -0.4196
 8318TIP3    H246370   1.914   6.252  12.217  0.8702 -0.6926 -0.2153
 8319TIP3   OH246371   6.665   6.505   0.164 -0.9255  0.4678 -0.3845
 8319TIP3    H146372   6.587   6.451   0.155 -0.6489 -0.2730  1.3234
 8319TIP3    H246373   6.711   6.469   0.240 -0.7099  3.0919  0.8217
 8320TIP3   OH246374   5.914   6.612   6.436 -0.1581  1.0418 -0.1133
 8320TIP3    H146375   5.903   6.695   6.389  0.2533  1.0990 -0.1078
 8320TIP3    H246376   6.006   6.588   6.423 -0.8012 -0.6293 -2.1180
 8321TIP3   OH246377   0.316   1.463  11.625 -0.1890  0.6807 -0.6033
 8321TIP3    H146378   0.310   1.377  11.666  1.2780  0.4485 -0.8496
 8321TIP3    H246379   0.405   1.468  11.591 -0.5240  1.9579 -1.3600
 8322TIP3   OH246380   4.429   5.390  15.915 -0.3227  0.2502 -0.1019
 8322TIP3    H146381   4.441   5.459  15.980  0.2356 -0.0374  0.1028
 8322TIP3    H246382   4.335   5.369  15.920 -0.1654 -0.2988  1.1648
 8323TIP3   OH246383   2.016   0.399   2.831 -0.0222 -0.4247  0.1269
 8323TIP3    H146384   2.059   0.321   2.796  0.1829 -0.0698 -0.4380
 8323TIP3    H246385   2.051   0.408   2.920 -0.0450 -0.9714  0.1909
 8324TIP3   OH246386   6.337   2.102  11.199  0.1693  0.3713  0.1889
 8324TIP3    H146387   6.268   2.041  11.173 -0.3061  0.5751  0.9378
 8324TIP3    H246388   6.347   2.161  11.124 -1.0178  0.8145  0.3620
 8325TIP3   OH246389   0.479   3.936  17.016  0.5825  0.7026 -0.3854
 8325TIP3    H146390   0.459   4.029  17.025  0.7824  0.6495  0.6841
 8325TIP3    H246391   0.467   3.918  16.922 -0.3082  1.5944 -0.4577
 8326TIP3   OH246392   0.022   2.786   1.232 -0.5925 -0.5217  0.1927
 8326TIP3    H146393  -0.022   2.798   1.147  0.2700 -0.6999 -0.2934
 8326TIP3    H246394   0.031   2.874   1.267  0.1077 -0.3085 -0.4704
 8327TIP3   OH246395   0.833   1.296  16.577  0.2863 -0.2356 -0.8718
 8327TIP3    H146396   0.860   1.237  16.507  2.4937 -0.4131  0.0725
 8327TIP3    H246397   0.909   1.353  16.591 -0.7885  1.0194  0.1383
 8328TIP3   OH246398   6.177   5.657   2.192 -0.5617 -0.3673 -0.0749
 8328TIP3    H146399   6.229   5.599   2.248 -0.0433 -0.6681 -0.8319
 8328TIP3    H246400   6.170   5.739   2.241 -0.3228 -0.6989  0.5224
 8329TIP3   OH246401   5.871   1.113  16.519  0.6262 -0.1035  0.1837
 8329TIP3    H146402   5.873   1.036  16.462  2.2932 -1.2778  1.7076
 8329TIP3    H246403   5.833   1.182  16.465 -0.7666 -1.9161 -1.3171
 8330TIP3   OH246404   2.552   3.118   3.161 -0.2448  0.3586  0.1545
 8330TIP3    H146405   2.612   3.192   3.151 -0.9346  0.8110 -0.6891
 8330TIP3    H246406   2.573   3.060   3.089 -0.6820  0.4224 -0.0279
 8331TIP3   OH246407   5.763   6.051  13.352 -0.6795 -0.0321  0.4846
 8331TIP3    H146408   5.816   6.089  13.282  0.1106  0.3944  1.2895
 8331TIP3    H246409   5.677   6.091  13.341  0.2135  2.3881  1.5439
 8332TIP3   OH246410   4.231   0.915   2.546  0.4713  1.0441 -0.0763
 8332TIP3    H146411   4.230   0.871   2.461 -0.5939  2.2965 -0.7429
 8332TIP3    H246412   4.311   0.885   2.588  0.4343 -0.4773 -1.0485
 8333TIP3   OH246413   2.280   3.265  12.137 -0.1341  0.2679 -0.2228
 8333TIP3    H146414   2.354   3.325  12.133  0.2347  0.0229  1.8613
 8333TIP3    H246415   2.213   3.311  12.187 -0.4067 -0.4793  0.1259
 8334TIP3   OH246416   1.054   1.388  12.132  0.0989 -0.4923  0.3575
 8334TIP3    H146417   1.052   1.378  12.227  1.5599  0.5217  0.5209
 8334TIP3    H246418   1.087   1.476  12.117  2.4726 -1.5212 -1.0754
 8335TIP3   OH246419   5.410   0.414  15.066  0.4781  0.0256  0.4610
 8335TIP3    H146420   5.342   0.348  15.072  0.2836  0.2520  0.7984
 8335TIP3    H246421   5.423   0.428  14.972 -1.0499  1.1049  0.3711
 8336TIP3   OH246422   4.159   5.344  16.420 -1.1525  0.2299  0.1145
 8336TIP3    H146423   4.102   5.345  16.497 -0.1308  1.8072  0.9062
 8336TIP3    H246424   4.222   5.414  16.436 -1.1637  0.9110 -2.3552
 8337TIP3   OH246425   3.967   1.709  14.906 -0.3321  0.4107  0.3022
 8337TIP3    H146426   4.011   1.773  14.961 -1.2122  0.6057  0.7887
 8337TIP3    H246427   3.923   1.650  14.968 -0.9024  0.3226 -0.1797
 8338TIP3   OH246428   5.685   0.397  15.099  0.0386 -0.1914 -0.3806
 8338TIP3    H146429   5.696   0.390  15.004 -0.4957  0.9364 -0.5417
 8338TIP3    H246430   5.593   0.379  15.115 -0.1666  0.9179 -0.2352
 8339TIP3   OH246431   0.328   0.447  15.840 -0.6310 -0.4672  0.0727
 8339TIP3    H146432   0.241   0.485  15.841  0.0449  1.1463  1.2280
 8339TIP3    H246433   0.378   0.502  15.780 -0.9294 -2.8463 -2.6188
 8340TIP3   OH246434   0.292   1.841   3.473  0.3249  0.0082  0.3862
 8340TIP3    H146435   0.276   1.820   3.565 -1.0570  0.7156  0.3278
 8340TIP3    H246436   0.306   1.936   3.472  0.7914 -0.0603 -0.0794
 8341TIP3   OH246437   2.954   0.502  16.142  0.2741 -0.3938  0.2659
 8341TIP3    H146438   2.931   0.493  16.234 -0.3785 -1.8856 -0.0108
 8341TIP3    H246439   3.046   0.529  16.142 -0.0967  1.0034  1.3392
 8342TIP3   OH246440   2.399   0.902  14.863 -0.4373  0.4862 -0.2314
 8342TIP3    H146441   2.427   0.922  14.953 -1.4470  2.4298 -0.3060
 8342TIP3    H246442   2.481   0.888  14.816  0.1427  0.2246  0.8104
 8343TIP3   OH246443   3.500   3.924  12.171  0.1126 -0.5053 -0.2781
 8343TIP3    H146444   3.475   3.984  12.101 -0.0552 -0.7941 -0.4655
 8343TIP3    H246445   3.460   3.961  12.250 -0.2390 -0.5308 -0.4418
 8344TIP3   OH246446   2.840   2.567   3.125  0.0220  0.0855 -0.5780
 8344TIP3    H146447   2.851   2.490   3.181 -1.8175  0.5079  0.4693
 8344TIP3    H246448   2.881   2.542   3.042  0.0020 -1.8082 -0.0777
 8345TIP3   OH246449   0.190   4.453   1.828 -0.1416 -0.6067 -0.5434
 8345TIP3    H146450   0.105   4.452   1.871 -0.3540 -1.1243 -0.9618
 8345TIP3    H246451   0.237   4.379   1.868  0.3650  0.0843  0.1713
 8346TIP3   OH246452   2.989   2.931  13.888  0.0512  0.1528  0.0347
 8346TIP3    H146453   2.906   2.970  13.863  0.9632  1.9388 -0.3728
 8346TIP3    H246454   3.040   2.928  13.807  0.0513 -1.8824  0.0657
 8347TIP3   OH246455   0.554   6.675  16.820  0.3084 -0.4126  0.5933
 8347TIP3    H146456   0.522   6.594  16.860  0.7226 -0.6779  0.3893
 8347TIP3    H246457   0.647   6.677  16.841  0.7447 -1.0099 -1.0995
 8348TIP3   OH246458   6.071   5.574   1.364 -0.1726 -0.3668  0.4326
 8348TIP3    H146459   6.043   5.662   1.389 -1.0550 -0.7491  0.8595
 8348TIP3    H246460   6.121   5.543   1.440  1.2190  0.2094 -0.2154
 8349TIP3   OH246461   0.742   2.558   6.016  0.3619 -0.6561 -0.1674
 8349TIP3    H146462   0.706   2.502   5.947 -1.0134 -0.6174  0.4847
 8349TIP3    H246463   0.837   2.548   6.008  0.2225 -0.9788 -1.7809
 8350TIP3   OH246464   5.804   6.535  12.922 -0.0473 -0.0462 -0.2613
 8350TIP3    H146465   5.770   6.472  12.985 -1.1128  0.3451 -0.4285
 8350TIP3    H246466   5.776   6.502  12.837 -0.7354  0.7067 -0.3413
 8351TIP3   OH246467   5.658   0.530  11.825  0.0715  0.1499 -0.0191
 8351TIP3    H146468   5.685   0.619  11.849  0.9187 -0.6432  2.2851
 8351TIP3    H246469   5.570   0.541  11.788  0.1336  1.9506  0.2722
 8352TIP3   OH246470   2.171   0.985  16.227 -0.2803  0.2543  0.1125
 8352TIP3    H146471   2.212   0.920  16.285 -1.6945  1.0502  2.1290
 8352TIP3    H246472   2.160   1.062  16.283 -1.8212  1.0314 -1.1968
 8353TIP3   OH246473   6.193   4.117  12.806  0.6423 -0.1785  0.3935
 8353TIP3    H146474   6.242   4.185  12.760  1.3544 -1.0862 -0.2225
 8353TIP3    H246475   6.102   4.145  12.800  0.7693 -0.0339 -1.1541
 8354TIP3   OH246476   5.503   6.769   3.311  0.1807 -0.3208  0.5290
 8354TIP3    H146477   5.502   6.806   3.223  1.0181 -2.5486 -0.4898
 8354TIP3    H246478   5.596   6.754   3.330 -0.0847 -1.3420  1.1089
 8355TIP3   OH246479   1.654   4.721   0.317 -0.0165 -0.0352  0.8116
 8355TIP3    H146480   1.672   4.714   0.224 -1.9694  1.8117  0.2111
 8355TIP3    H246481   1.577   4.666   0.331 -0.8045  1.0462  0.9186
 8356TIP3   OH246482   2.660   1.847   2.014 -0.0187 -0.0787 -0.3387
 8356TIP3    H146483   2.647   1.942   2.007  1.3217  0.2058  0.6277
 8356TIP3    H246484   2.586   1.816   2.067  0.0123  0.5678  0.0924
 8357TIP3   OH246485   5.964   5.490  12.974  0.4092  0.6787  0.0414
 8357TIP3    H146486   6.008   5.556  13.026 -0.8814  0.7706  1.0597
 8357TIP3    H246487   5.924   5.431  13.038 -2.1405  1.4189 -0.7720
 8358TIP3   OH246488   1.142   6.406   0.833 -0.1889  1.0343  0.5787
 8358TIP3    H146489   1.212   6.360   0.879  2.1499  4.5593  0.9475
 8358TIP3    H246490   1.154   6.383   0.741 -0.2400 -0.3836  0.9076
 8359TIP3   OH246491   6.557   3.188  15.016  0.2953  0.0114  0.2555
 8359TIP3    H146492   6.513   3.118  14.968  2.8374 -1.4671 -0.1305
 8359TIP3    H246493   6.565   3.154  15.105 -2.3031  1.7525  1.2642
 8360TIP3   OH246494   2.691   5.178   5.987  0.0497  0.3882 -0.2611
 8360TIP3    H146495   2.630   5.250   5.968 -0.6758 -0.2687 -0.4757
 8360TIP3    H246496   2.768   5.197   5.933  0.0776  1.2721  0.0739
 8361TIP3   OH246497   1.123   0.070   5.150  0.0573  0.5187  0.1574
 8361TIP3    H146498   1.132   0.124   5.071 -1.5001  1.5921  0.6708
 8361TIP3    H246499   1.162   0.124   5.220  0.5083  0.0093  0.3037
 8362TIP3   OH246500   4.107   6.062  16.768 -0.1985  0.2423 -0.2445
 8362TIP3    H146501   4.057   5.994  16.722 -0.8953  0.0069  0.8335
 8362TIP3    H246502   4.045   6.099  16.831 -0.0126  2.2884 -1.1804
 8363TIP3   OH246503   6.053   4.913  13.003 -0.5106  0.0815 -0.6971
 8363TIP3    H146504   6.100   4.996  13.002  1.5205 -1.0217 -1.6702
 8363TIP3    H246505   6.098   4.861  13.069 -2.1516 -0.1002  0.3525
 8364TIP3   OH246506   2.709   4.423  12.566  0.5255  0.6097  0.1229
 8364TIP3    H146507   2.676   4.512  12.555 -0.9044  0.0448 -0.4035
 8364TIP3    H246508   2.800   4.427  12.537  0.4699  1.8857  0.0905
 8365TIP3   OH246509   5.500   2.958   1.867 -0.3809  0.1350 -0.3200
 8365TIP3    H146510   5.412   2.966   1.905 -0.4141  0.7495 -0.5118
 8365TIP3    H246511   5.552   3.023   1.915  0.7528 -2.3013  1.9680
 8366TIP3   OH246512   1.434   2.066  11.634 -0.2174  0.0351  0.4571
 8366TIP3    H146513   1.371   2.025  11.693  0.2827 -0.6665  0.5205
 8366TIP3    H246514   1.498   2.108  11.693  1.6550 -2.6869  0.5785
 8367TIP3   OH246515   4.234   1.452  14.648 -0.4734 -0.2095  0.1820
 8367TIP3    H146516   4.285   1.531  14.626 -0.3883 -0.4099 -0.3632
 8367TIP3    H246517   4.207   1.466  14.738 -3.0222  1.8873 -0.7636
 8368TIP3   OH246518   5.558   0.774  11.468  0.3115 -0.3649 -0.5519
 8368TIP3    H146519   5.580   0.812  11.553  0.4641 -0.7367 -0.4203
 8368TIP3    H246520   5.588   0.838  11.404 -0.5444  0.2868 -0.3077
 8369TIP3   OH246521   0.914   5.646   4.933 -0.3506 -0.0110 -0.9750
 8369TIP3    H146522   0.923   5.553   4.951 -0.7686 -0.0077 -0.7483
 8369TIP3    H246523   0.976   5.663   4.862  1.0205 -0.1017  0.1771
 8370TIP3   OH246524   3.666   0.296   1.488  0.0332 -0.0108 -0.4696
 8370TIP3    H146525   3.713   0.283   1.406 -0.7337 -2.6458 -0.5909
 8370TIP3    H246526   3.573   0.288   1.464 -0.1774 -1.5175  0.7135
 8371TIP3   OH246527   4.373   5.194   1.456 -0.4369 -0.3797  0.0485
 8371TIP3    H146528   4.329   5.195   1.371 -0.8443 -0.6827  0.2492
 8371TIP3    H246529   4.349   5.278   1.495 -1.2898 -0.7555  0.3706
 8372TIP3   OH246530   1.269   1.598  15.304  0.1343 -0.5324 -0.2011
 8372TIP3    H146531   1.201   1.655  15.339  1.8877  1.7610 -0.3302
 8372TIP3    H246532   1.222   1.535  15.250 -1.8300  1.3734 -0.8320
 8373TIP3   OH246533   0.485   2.810   5.085  0.0334  0.0963  0.0276
 8373TIP3    H146534   0.429   2.772   5.153  0.7231  1.5430  1.4866
 8373TIP3    H246535   0.423   2.845   5.020 -0.8454  1.7370  1.6388
 8374TIP3   OH246536   1.028   1.179  16.865 -0.3259 -0.1289  0.2558
 8374TIP3    H146537   0.943   1.222  16.855 -1.0084 -1.8041 -1.8677
 8374TIP3    H246538   1.089   1.252  16.880 -1.5820  1.5420 -2.0841
 8375TIP3   OH246539   4.016   3.619   4.334  0.2928 -0.5270  0.2222
 8375TIP3    H146540   4.101   3.660   4.350  0.5369 -0.6632 -0.6766
 8375TIP3    H246541   3.983   3.596   4.422  0.9209  0.0326  0.6122
 8376TIP3   OH246542   0.270   4.648  16.780  0.3434  0.1638 -0.0746
 8376TIP3    H146543   0.245   4.575  16.838  0.4256  0.6864  0.6329
 8376TIP3    H246544   0.324   4.608  16.712 -0.3003 -0.5710 -0.1641
 8377TIP3   OH246545   2.551   0.918   5.691  0.1296  0.7246  0.4800
 8377TIP3    H146546   2.568   0.875   5.775 -1.8259  1.9572  1.5763
 8377TIP3    H246547   2.568   1.011   5.707 -1.2125  1.1098 -0.1648
 8378TIP3   OH246548   4.669   4.611  10.225 -0.1151  1.3196  0.3820
 8378TIP3    H146549   4.725   4.534  10.223 -0.4874  1.0112  1.1457
 8378TIP3    H246550   4.716   4.678  10.175 -0.1162  0.3860 -0.8871
 8379TIP3   OH246551   4.145   5.362  15.150  0.2026 -0.4888 -0.1928
 8379TIP3    H146552   4.204   5.386  15.222 -1.4269 -0.9307  1.3831
 8379TIP3    H246553   4.097   5.443  15.130 -0.5547 -0.7548  0.4604
 8380TIP3   OH246554   2.212   5.351  14.465  0.1646 -0.1149  0.4243
 8380TIP3    H146555   2.121   5.381  14.458  0.0913 -0.3781  0.2574
 8380TIP3    H246556   2.252   5.379  14.382  0.3769  0.4723  0.7158
 8381TIP3   OH246557   0.267   3.648  15.523  0.0535  0.4265 -0.1967
 8381TIP3    H146558   0.242   3.692  15.604 -0.2037  0.7227 -0.4340
 8381TIP3    H246559   0.234   3.559  15.533 -0.5612  0.6489 -0.2541
 8382TIP3   OH246560   2.725   4.400  14.111 -0.5131  0.2052  0.8330
 8382TIP3    H146561   2.809   4.364  14.140 -0.6037 -0.2304  0.5585
 8382TIP3    H246562   2.660   4.357  14.166 -0.7088 -0.8209 -0.1775
 8383TIP3   OH246563   0.300   4.731  14.346 -0.2766 -0.0989  0.2542
 8383TIP3    H146564   0.304   4.669  14.273 -0.5009 -0.3631  0.4642
 8383TIP3    H246565   0.332   4.813  14.310  0.6388 -0.4991  0.1416
 8384TIP3   OH246566   1.624   2.516  16.323 -0.2089  0.7550  0.0781
 8384TIP3    H146567   1.714   2.518  16.354  0.5597  0.2662 -1.9695
 8384TIP3    H246568   1.583   2.444  16.371  1.2521 -0.7206 -0.7759
 8385TIP3   OH246569   1.427   5.619   1.083  0.1107  0.1488 -0.0795
 8385TIP3    H146570   1.423   5.524   1.087 -0.4095  0.1599 -0.3301
 8385TIP3    H246571   1.508   5.641   1.130  1.9361 -0.5825 -2.6526
 8386TIP3   OH246572   5.668   3.978  12.001  0.0351 -0.1262 -0.0627
 8386TIP3    H146573   5.760   3.972  11.975  0.1522 -0.5583  0.4307
 8386TIP3    H246574   5.619   3.944  11.926  0.3852 -1.7210  0.3927
 8387TIP3   OH246575   4.964   3.272  13.665 -0.2791 -0.2601 -0.2244
 8387TIP3    H146576   5.005   3.270  13.751 -0.3902 -0.8532 -0.1769
 8387TIP3    H246577   4.870   3.282  13.684 -0.0855  3.1061 -0.3668
 8388TIP3   OH246578   1.405   0.432   2.489  0.5071  0.7263 -0.2444
 8388TIP3    H146579   1.360   0.495   2.545  2.1669 -0.0247  2.0756
 8388TIP3    H246580   1.353   0.352   2.497  0.5450  0.7196 -0.0620
 8389TIP3   OH246581   0.330   6.049   3.547  0.3373  0.1816 -0.0842
 8389TIP3    H146582   0.316   6.110   3.620  0.6514 -1.0869  1.0833
 8389TIP3    H246583   0.253   6.060   3.491 -1.0183 -0.3653  1.5953
 8390TIP3   OH246584   4.904   2.577   4.984  0.2508 -0.2925  0.4808
 8390TIP3    H146585   4.928   2.670   4.990 -1.5894  0.3966 -1.5307
 8390TIP3    H246586   4.942   2.548   4.901 -1.1160 -0.6738 -0.0374
 8391TIP3   OH246587   1.371   6.096   0.297  0.8050 -0.8020  0.0047
 8391TIP3    H146588   1.379   6.054   0.382  2.1208  1.8497  1.3403
 8391TIP3    H246589   1.282   6.077   0.268  0.7362 -2.7854  1.3610
 8392TIP3   OH246590   4.181   2.400   1.164  0.0172 -0.2015  0.2746
 8392TIP3    H146591   4.267   2.390   1.206  1.3934  2.9293 -1.4575
 8392TIP3    H246592   4.162   2.493   1.170 -2.4445 -0.5495 -0.9685
 8393TIP3   OH246593   6.415   3.564   2.918 -0.1077  0.1282 -0.0360
 8393TIP3    H146594   6.398   3.656   2.938  2.0316  0.5278  0.2792
 8393TIP3    H246595   6.506   3.563   2.886  0.1200 -1.9334  0.4966
 8394TIP3   OH246596   6.585   3.625  16.592  0.4872  0.5618 -0.1166
 8394TIP3    H146597   6.642   3.603  16.518 -1.0059 -0.5341 -0.9782
 8394TIP3    H246598   6.548   3.711  16.569 -0.2817  0.0459 -0.8627
 8395TIP3   OH246599   1.917   5.748  14.669  0.0298 -0.0292 -0.1006
 8395TIP3    H146600   1.845   5.799  14.631 -0.6249 -0.1352  0.9528
 8395TIP3    H246601   1.881   5.660  14.680  0.4017 -0.1475  0.1982
 8396TIP3   OH246602   4.735   4.949  10.259 -0.3618 -0.4259 -0.0664
 8396TIP3    H146603   4.641   4.936  10.270 -0.4204 -0.1370 -0.2226
 8396TIP3    H246604   4.754   4.917  10.170 -0.6643  1.3567 -0.8088
 8397TIP3   OH246605   0.714   3.732   6.474 -0.5076 -0.1953  0.2773
 8397TIP3    H146606   0.793   3.678   6.471 -0.5796 -0.2536 -1.3402
 8397TIP3    H246607   0.745   3.821   6.460 -0.5637 -0.0004  1.3270
 8398TIP3   OH246608   2.530   0.246   1.162  0.1967  0.4108 -0.2974
 8398TIP3    H146609   2.569   0.159   1.159  0.6614  0.6306 -0.8943
 8398TIP3    H246610   2.436   0.231   1.154  0.1984 -0.0890  0.5657
 8399TIP3   OH246611   2.243   4.652  11.406  0.2247  0.2333 -0.2743
 8399TIP3    H146612   2.337   4.669  11.400  0.1206  0.8044 -0.2646
 8399TIP3    H246613   2.207   4.681  11.322 -0.3692  2.7828  0.7688
 8400TIP3   OH246614   2.132   2.280   3.235  0.4081  0.6505 -0.0762
 8400TIP3    H146615   2.087   2.364   3.236 -3.1272 -1.0291  2.1968
 8400TIP3    H246616   2.103   2.239   3.154  2.0365  1.4422 -1.1237
 8401TIP3   OH246617   3.853   2.286   0.659 -0.2894  0.4776 -0.1797
 8401TIP3    H146618   3.764   2.260   0.638  0.2851 -1.4784 -0.3673
 8401TIP3    H246619   3.907   2.248   0.590  0.7574  1.1813  0.2168
 8402TIP3   OH246620   2.211   6.611   5.945 -0.4723 -0.5478 -0.0812
 8402TIP3    H146621   2.300   6.592   5.915 -0.0871  0.1758  0.5532
 8402TIP3    H246622   2.198   6.552   6.019 -1.3789 -2.2491 -1.5283
 8403TIP3   OH246623   3.653   1.536   3.588  0.3483 -0.6147  0.0510
 8403TIP3    H146624   3.726   1.594   3.610  0.1758 -1.3917  3.1813
 8403TIP3    H246625   3.591   1.593   3.542  1.2068  1.0733  0.8602
 8404TIP3   OH246626   0.749   3.328  14.927  0.2419  0.7676 -0.0803
 8404TIP3    H146627   0.793   3.337  14.843 -0.3771  0.1138 -0.4827
 8404TIP3    H246628   0.658   3.308  14.905  0.3675 -0.8877  0.7148
 8405TIP3   OH246629   1.110   1.838   3.450  0.6495  0.5293 -0.2183
 8405TIP3    H146630   1.063   1.782   3.512 -0.4400  0.5530 -0.9929
 8405TIP3    H246631   1.055   1.838   3.372  2.1813  0.1890 -1.3403
 8406TIP3   OH246632   6.075   1.654  13.200  0.2430 -0.0631  0.4800
 8406TIP3    H146633   6.141   1.586  13.215  0.6392 -0.4134 -2.2988
 8406TIP3    H246634   6.112   1.708  13.130 -1.3492  1.2585  0.5992
 8407TIP3   OH246635   4.976   3.146  15.276  0.1264 -0.3013 -0.3721
 8407TIP3    H146636   4.895   3.147  15.225 -0.7482 -0.9552  0.9306
 8407TIP3    H246637   4.974   3.061  15.322  0.1247  0.8144  1.8354
 8408TIP3   OH246638   1.929   6.455  13.761 -0.1461  0.3649  0.0371
 8408TIP3    H146639   2.006   6.475  13.707 -0.0044  0.3463  0.2322
 8408TIP3    H246640   1.953   6.376  13.809  0.1023  0.9137  0.8466
 8409TIP3   OH246641   4.352   3.958   5.504  0.1972 -0.2357  0.5599
 8409TIP3    H146642   4.433   3.908   5.501  0.2532 -0.1969  1.1821
 8409TIP3    H246643   4.346   4.001   5.419  0.8314 -0.2399  0.5098
 8410TIP3   OH246644   2.639   5.931  14.024 -0.3753 -0.2994 -0.2029
 8410TIP3    H146645   2.729   5.941  14.055 -0.1894 -0.3158 -0.7431
 8410TIP3    H246646   2.626   5.836  14.017 -1.4322 -0.4925  2.7973
 8411TIP3   OH246647   6.541   6.125  15.776 -0.1428  0.4875  0.6942
 8411TIP3    H146648   6.469   6.185  15.795  0.3196  1.4875 -0.5746
 8411TIP3    H246649   6.498   6.047  15.740 -0.6389  0.8997  0.3683
 8412TIP3   OH246650   0.777   1.782   4.766  0.5105  0.1107  0.1632
 8412TIP3    H146651   0.854   1.828   4.732  0.2789 -0.7095 -1.6070
 8412TIP3    H246652   0.703   1.826   4.724 -0.0165  0.7941  1.7312
 8413TIP3   OH246653   4.349   5.390  12.332  0.2434  0.0344 -0.2939
 8413TIP3    H146654   4.394   5.313  12.298  1.6574  0.6102  0.2402
 8413TIP3    H246655   4.360   5.456  12.263  1.0264  0.4563  0.2245
 8414TIP3   OH246656   0.931   6.420  15.007  0.2204 -0.0087  0.8184
 8414TIP3    H146657   0.895   6.492  15.058 -0.7709  0.1751 -0.1047
 8414TIP3    H246658   0.900   6.341  15.052  0.0234  0.1485  0.9623
 8415TIP3   OH246659   6.536   6.063  10.408  0.3207  0.2112 -0.2768
 8415TIP3    H146660   6.558   5.981  10.454  0.7290  1.8917  2.8096
 8415TIP3    H246661   6.459   6.040  10.356 -1.5709 -1.5333  2.9087
 8416TIP3   OH246662   5.504   3.311   3.122  0.3185 -0.1083  0.2484
 8416TIP3    H146663   5.526   3.403   3.108  0.8987 -0.2629  0.0864
 8416TIP3    H246664   5.551   3.265   3.052 -0.1114 -0.5076  0.2196
 8417TIP3   OH246665   5.823   4.759   5.655 -0.7969  0.3199 -0.2938
 8417TIP3    H146666   5.894   4.740   5.593 -0.4973 -0.5407  0.2988
 8417TIP3    H246667   5.745   4.769   5.600 -0.6177 -0.8400 -0.7818
 8418TIP3   OH246668   2.778   5.179  14.682 -0.0121 -0.1098  0.3426
 8418TIP3    H146669   2.815   5.239  14.747  1.2375  0.9779 -1.2999
 8418TIP3    H246670   2.830   5.194  14.603 -1.1913 -1.7063 -0.7937
 8419TIP3   OH246671   3.795   5.457   1.388  0.1720  0.0863 -0.5010
 8419TIP3    H146672   3.707   5.472   1.422  1.2481  1.4354  1.9703
 8419TIP3    H246673   3.832   5.391   1.446  1.0344  0.0672 -1.0544
 8420TIP3   OH246674   2.018   0.335   5.102  0.3887  0.0307 -0.3063
 8420TIP3    H146675   2.015   0.423   5.063  0.9404 -0.1382 -0.7540
 8420TIP3    H246676   1.943   0.289   5.064  0.0280  0.3432  0.0212
 8421TIP3   OH246677   0.865   5.417  15.073 -0.1094 -0.3192 -0.6388
 8421TIP3    H146678   0.827   5.481  15.132  0.1877 -0.5359 -0.2084
 8421TIP3    H246679   0.952   5.400  15.108  0.3029  0.0044 -1.4887
 8422TIP3   OH246680   1.602   5.446  15.305 -0.1866  0.1875  1.0115
 8422TIP3    H146681   1.610   5.438  15.400  0.7641  0.8711  1.0006
 8422TIP3    H246682   1.678   5.497  15.279 -1.0821  1.0719  0.0294
 8423TIP3   OH246683   5.054   4.050  15.217  0.1661  0.2792 -0.2365
 8423TIP3    H146684   5.070   4.052  15.123  0.6798  0.7133 -0.1421
 8423TIP3    H246685   4.960   4.038  15.225  0.0320  0.8881 -0.8106
 8424TIP3   OH246686   0.708   2.642   6.423 -0.0011 -0.3067  0.2896
 8424TIP3    H146687   0.646   2.642   6.496 -1.0653 -2.2983 -0.5285
 8424TIP3    H246688   0.742   2.553   6.421 -0.2231 -0.3942 -1.8013
 8425TIP3   OH246689   4.181   4.046  15.303 -0.2979  0.0623 -0.1290
 8425TIP3    H146690   4.166   4.033  15.397 -0.6787  2.3374  0.1873
 8425TIP3    H246691   4.264   4.092  15.297 -0.1579 -0.2717 -0.9351
 8426TIP3   OH246692   5.713   1.538  11.019 -1.4232  0.2011 -0.4337
 8426TIP3    H146693   5.680   1.487  10.945  2.5343 -2.5095 -0.6279
 8426TIP3    H246694   5.738   1.472  11.084 -1.8208  2.3488  2.0872
 8427TIP3   OH246695   1.762   5.719  11.066 -0.8288  0.1942  0.4276
 8427TIP3    H146696   1.746   5.668  10.986  1.8077  1.6350 -1.1665
 8427TIP3    H246697   1.702   5.793  11.059 -0.4251  0.4569 -0.3803
 8428TIP3   OH246698   2.387   6.244   2.894  0.3340  0.5356  0.1884
 8428TIP3    H146699   2.453   6.194   2.942 -0.9645 -1.2877  0.2313
 8428TIP3    H246700   2.423   6.255   2.806 -0.4101 -3.2225 -0.7936
 8429TIP3   OH246701   4.725   1.497  17.110 -0.4890 -0.5992 -0.0338
 8429TIP3    H146702   4.762   1.531  17.191 -0.9310 -0.2170  0.0083
 8429TIP3    H246703   4.664   1.564  17.081  1.6432  0.5968 -2.1528
 8430TIP3   OH246704   5.109   2.710   3.592  0.7395 -0.2297  0.2639
 8430TIP3    H146705   5.155   2.783   3.633 -2.3616  1.7808  0.4304
 8430TIP3    H246706   5.017   2.723   3.614 -0.4796 -1.8818 -3.1375
 8431TIP3   OH246707   1.492   6.666  16.288  0.0176  0.6189  0.1176
 8431TIP3    H146708   1.517   6.612  16.363 -0.9962 -0.8427 -0.5504
 8431TIP3    H246709   1.401   6.641  16.270  0.5660  0.1631 -2.2395
 8432TIP3   OH246710   5.885   5.748  11.732  0.0981 -0.0682  0.1930
 8432TIP3    H146711   5.795   5.774  11.710 -0.2084 -1.8623 -0.8836
 8432TIP3    H246712   5.878   5.703  11.816  0.0351  0.0546  0.2530
 8433TIP3   OH246713   3.071   4.305   2.306 -0.3587 -0.2900 -0.1533
 8433TIP3    H146714   3.159   4.289   2.271 -0.4343 -1.1160  0.0135
 8433TIP3    H246715   3.021   4.228   2.281 -0.6485 -0.4837  0.9732
 8434TIP3   OH246716   1.698   4.195   1.524  0.3830  0.0037  0.2597
 8434TIP3    H146717   1.628   4.260   1.533  0.1466 -0.2196  0.0612
 8434TIP3    H246718   1.769   4.229   1.577  0.2486  0.4109  0.1872
 8435TIP3   OH246719   6.714   4.586  16.031 -0.3392  0.3897  0.2334
 8435TIP3    H146720   6.801   4.546  16.040 -0.1816  0.5288 -0.5358
 8435TIP3    H246721   6.733   4.679  16.016 -0.6249  0.4387  0.1825
 8436TIP3   OH246722   5.716   5.584  12.881  0.7082  0.2527 -0.5282
 8436TIP3    H146723   5.795   5.575  12.934  1.4271 -1.7039 -1.8097
 8436TIP3    H246724   5.726   5.518  12.812 -2.8451 -1.3495  0.2505
 8437TIP3   OH246725   5.596   0.224   5.413 -0.0663  0.1874  0.0599
 8437TIP3    H146726   5.506   0.206   5.439 -0.1293  0.1947 -0.1488
 8437TIP3    H246727   5.639   0.255   5.493  0.3313 -1.9216  0.7368
 8438TIP3   OH246728   6.157   0.040  14.976  0.5596 -0.1397  0.0438
 8438TIP3    H146729   6.106   0.030  14.896  0.6663 -0.7943  0.0578
 8438TIP3    H246730   6.097   0.014  15.046 -0.5630  3.2167  0.5111
 8439TIP3   OH246731   2.307   6.759  15.096  0.2034  0.3114  0.6429
 8439TIP3    H146732   2.295   6.747  15.190  0.5314 -0.6092  0.5770
 8439TIP3    H246733   2.353   6.680  15.067  0.2203  0.6394 -0.2704
 8440TIP3   OH246734   0.799   3.827   4.041 -0.4039 -0.0234 -0.2171
 8440TIP3    H146735   0.728   3.863   3.987 -1.8223  0.1194  1.6357
 8440TIP3    H246736   0.842   3.904   4.079 -0.0059 -0.1455 -0.4129
 8441TIP3   OH246737   3.082   6.484   6.124 -0.6642  0.3365  0.2422
 8441TIP3    H146738   3.040   6.557   6.079 -0.2505 -0.4201 -1.4597
 8441TIP3    H246739   3.168   6.518   6.149 -0.7918  0.6821  0.2209
 8442TIP3   OH246740   0.255   4.068   6.012  0.2015  0.4664 -0.2037
 8442TIP3    H146741   0.161   4.049   6.011  0.3714 -0.5437 -2.0178
 8442TIP3    H246742   0.265   4.137   6.077 -1.5090 -0.7498  1.4414
 8443TIP3   OH246743   1.546   2.340  15.389  0.3074 -0.4464  0.1390
 8443TIP3    H146744   1.470   2.319  15.334 -1.2035 -0.1789  2.0253
 8443TIP3    H246745   1.577   2.255  15.420  1.5023 -0.6434 -1.4741
 8444TIP3   OH246746   3.831   4.733  15.696  0.0412 -0.0266  0.6530
 8444TIP3    H146747   3.820   4.640  15.716 -1.9184  0.1966  0.8444
 8444TIP3    H246748   3.766   4.777  15.751 -0.7866  1.2245 -1.2027
 8445TIP3   OH246749   4.398   0.597   0.979 -0.7501 -0.6321 -0.2318
 8445TIP3    H146750   4.455   0.615   1.054  0.0248 -0.0127 -0.9560
 8445TIP3    H246751   4.362   0.682   0.955 -0.6190 -0.7489 -0.8620
 8446TIP3   OH246752   2.556   0.998   5.028 -0.0762 -0.1767 -0.1019
 8446TIP3    H146753   2.555   1.019   5.122 -0.1662 -1.5710  0.2394
 8446TIP3    H246754   2.642   0.958   5.014 -0.8970 -2.0791 -0.0700
 8447TIP3   OH246755   0.226   1.383   1.281  0.2519 -0.6935  0.0449
 8447TIP3    H146756   0.180   1.435   1.347 -1.3878 -2.3946  0.3131
 8447TIP3    H246757   0.285   1.327   1.331  0.6370 -0.4339 -0.1110
 8448TIP3   OH246758   5.398   3.130   1.265  0.0985  0.7125 -0.5474
 8448TIP3    H146759   5.468   3.193   1.283  1.9645 -1.7882  1.7253
 8448TIP3    H246760   5.318   3.173   1.295  1.6889  0.9800  4.0628
 8449TIP3   OH246761   2.696   1.387  17.049 -0.3475  0.0253 -0.4804
 8449TIP3    H146762   2.688   1.343  17.134  0.9104  0.0352 -0.3344
 8449TIP3    H246763   2.761   1.335  17.001 -0.5046  0.4416 -1.1594
 8450TIP3   OH246764   4.353   4.261   4.666  0.4554 -0.3194 -0.1887
 8450TIP3    H146765   4.294   4.302   4.602  0.6086 -0.1397 -0.2173
 8450TIP3    H246766   4.297   4.237   4.739 -0.0805 -2.2259 -1.1409
 8451TIP3   OH246767   3.895   2.914  14.481 -0.1575 -0.2444  0.1721
 8451TIP3    H146768   3.977   2.911  14.529  0.3314  0.7890 -0.5552
 8451TIP3    H246769   3.921   2.927  14.390 -1.0962 -1.1814 -0.2530
 8452TIP3   OH246770   0.807   2.618   0.209 -0.4803 -0.4324 -0.3196
 8452TIP3    H146771   0.883   2.615   0.150 -0.3314  2.4313 -0.4207
 8452TIP3    H246772   0.818   2.543   0.266  2.0673 -0.5034 -0.7917
 8453TIP3   OH246773   4.595   2.117  16.529 -0.0753 -0.5595 -0.1943
 8453TIP3    H146774   4.567   2.208  16.518  0.3435 -0.5022 -0.8613
 8453TIP3    H246775   4.618   2.088  16.441  1.5607 -0.7321  0.2545
 8454TIP3   OH246776   2.042   1.064  11.397  0.0932 -0.2049 -0.4802
 8454TIP3    H146777   2.122   1.111  11.421 -0.1553  0.5396 -1.0752
 8454TIP3    H246778   2.048   1.052  11.303 -1.0723  0.9963 -0.7396
 8455TIP3   OH246779   5.054   5.993  16.272  0.2041 -0.2045 -0.2179
 8455TIP3    H146780   5.102   5.916  16.302  0.7105 -0.2052 -1.0167
 8455TIP3    H246781   4.963   5.973  16.291  0.3166 -1.0495 -0.5223
 8456TIP3   OH246782   3.953   6.402  13.701 -0.3725 -0.3271 -0.3796
 8456TIP3    H146783   3.876   6.426  13.651  0.5577  0.0030 -1.6987
 8456TIP3    H246784   4.019   6.379  13.635  0.7177 -0.4093  0.6998
 8457TIP3   OH246785   6.563   0.716  12.577  0.0352 -0.3880 -0.4690
 8457TIP3    H146786   6.532   0.739  12.490 -0.8711 -0.2870 -0.1287
 8457TIP3    H246787   6.485   0.688  12.624  0.0461  1.9157  1.0808
 8458TIP3   OH246788   2.654   5.999   1.573 -0.7860 -0.0392  0.9545
 8458TIP3    H146789   2.666   5.923   1.517 -0.4064  0.3013  0.5664
 8458TIP3    H246790   2.560   6.017   1.571 -1.4984 -2.5804  3.8158
 8459TIP3   OH246791   5.598   6.195   4.464  0.3828 -0.0942  0.1378
 8459TIP3    H146792   5.666   6.135   4.495  0.2076  0.1717  1.0684
 8459TIP3    H246793   5.569   6.241   4.543  1.0414  1.7564 -0.6437
 8460TIP3   OH246794   6.081   4.226   6.281 -0.6799  0.6812 -0.3304
 8460TIP3    H146795   6.039   4.259   6.361 -0.8042 -0.6424  0.1733
 8460TIP3    H246796   6.153   4.287   6.265 -1.0328  1.3196  0.4409
 8461TIP3   OH246797   1.740   5.124   3.845  0.2800  0.1967  0.2301
 8461TIP3    H146798   1.689   5.059   3.796  1.8096  0.1238 -1.3640
 8461TIP3    H246799   1.727   5.206   3.797  0.6277  0.4446  0.5550
 8462TIP3   OH246800   4.280   6.042   1.699 -0.1973 -0.2365  0.5607
 8462TIP3    H146801   4.343   5.992   1.751  0.0160 -0.0161  0.5144
 8462TIP3    H246802   4.198   5.992   1.706 -0.2661 -0.0041  1.4114
 8463TIP3   OH246803   5.776   0.185   4.352 -0.1445 -0.5605 -0.6291
 8463TIP3    H146804   5.863   0.213   4.380  0.2627 -0.9951 -1.4169
 8463TIP3    H246805   5.727   0.267   4.340  0.2526 -0.3028 -0.5007
 8464TIP3   OH246806   3.264   6.303   1.009 -0.2141  0.0822  0.1211
 8464TIP3    H146807   3.308   6.324   1.092  0.9459 -2.4890  0.2648
 8464TIP3    H246808   3.184   6.259   1.035 -0.0139 -0.4271 -0.1193
 8465TIP3   OH246809   3.232   3.354   0.847  0.0780 -0.0328 -0.0210
 8465TIP3    H146810   3.165   3.304   0.801  0.6613 -0.9754  0.1413
 8465TIP3    H246811   3.203   3.356   0.938  0.4064 -0.6637  0.0960
 8466TIP3   OH246812   1.269   1.200  15.783 -0.5962 -0.4065 -0.6979
 8466TIP3    H146813   1.285   1.120  15.733  0.7224 -0.7233  0.1566
 8466TIP3    H246814   1.178   1.222  15.766 -1.1727 -2.4329 -0.5054
 8467TIP3   OH246815   2.200   1.806  12.698 -0.5735 -0.5884  0.5069
 8467TIP3    H146816   2.206   1.789  12.793  0.7411 -1.7051  0.2609
 8467TIP3    H246817   2.247   1.888  12.685  0.4866 -1.1548  0.6649
 8468TIP3   OH246818   6.498   1.695  14.298 -0.1025 -0.3356  0.1869
 8468TIP3    H146819   6.552   1.759  14.252  0.1765 -0.0688  0.8755
 8468TIP3    H246820   6.436   1.748  14.349 -0.5395 -0.6302 -0.0332
 8469TIP3   OH246821   2.926   4.554  11.926  0.1285  0.0122  0.3468
 8469TIP3    H146822   2.870   4.552  11.848  0.5331  0.3293  0.0403
 8469TIP3    H246823   2.944   4.647  11.940  0.7249 -0.0957  0.3290
 8470TIP3   OH246824   2.935   5.794   4.184 -0.1090 -0.0009 -0.4660
 8470TIP3    H146825   2.898   5.824   4.101  1.1291 -0.1378 -1.1002
 8470TIP3    H246826   2.882   5.717   4.207 -0.0343 -0.3781 -1.4998
 8471TIP3   OH246827   4.964   0.424   1.299  0.3133  0.1947 -0.0833
 8471TIP3    H146828   4.930   0.338   1.274  0.0794  0.4336 -0.6051
 8471TIP3    H246829   5.034   0.441   1.236  1.3281 -0.2198  0.8792
 8472TIP3   OH246830   2.267   4.357  17.093  0.3934  0.4610  0.2953
 8472TIP3    H146831   2.171   4.353  17.089  0.4315  0.3276 -0.7240
 8472TIP3    H246832   2.286   4.377  17.185 -0.5408 -1.7607  1.0392
 8473TIP3   OH246833   0.644   4.620  16.052 -0.3374 -0.2726  0.0132
 8473TIP3    H146834   0.733   4.646  16.027 -1.0505  0.4054 -2.0111
 8473TIP3    H246835   0.591   4.641  15.976 -2.1596 -1.2076  0.9684
 8474TIP3   OH246836   0.018   4.030   1.942 -0.9976  0.0668 -0.2935
 8474TIP3    H146837   0.024   3.943   1.983 -0.8843  0.4815  0.5949
 8474TIP3    H246838   0.076   4.085   1.994  1.7760 -0.0827 -2.9708
 8475TIP3   OH246839   4.387   3.072  13.422 -0.5536  0.5043 -0.2694
 8475TIP3    H146840   4.469   3.049  13.464 -0.6903  1.0883  0.3370
 8475TIP3    H246841   4.409   3.081  13.329  0.4818  2.4075  0.0909
 8476TIP3   OH246842   1.702   5.873   3.100 -1.1670 -0.0097  0.5149
 8476TIP3    H146843   1.624   5.928   3.093  0.6680  2.7704  0.3196
 8476TIP3    H246844   1.741   5.897   3.185  0.3347 -0.0602 -0.1241
 8477TIP3   OH246845   5.052   2.512  14.241 -0.0773 -0.5134  0.4656
 8477TIP3    H146846   5.036   2.577  14.309  0.4183 -0.0046  0.1058
 8477TIP3    H246847   4.966   2.473  14.224 -0.7006  1.1484 -0.4182
 8478TIP3   OH246848   6.701   3.031   1.072  0.0441 -0.5788 -0.8498
 8478TIP3    H146849   6.637   3.074   1.015 -0.5439 -0.6414 -0.2515
 8478TIP3    H246850   6.647   2.980   1.133  0.6976 -1.3360 -0.8989
 8479TIP3   OH246851   0.769   0.617   0.124  0.2798  0.3672  0.0985
 8479TIP3    H146852   0.790   0.582   0.038 -0.4134 -0.9719  0.4408
 8479TIP3    H246853   0.804   0.706   0.123  2.5594 -0.4527 -0.6544
 8480TIP3   OH246854   2.604   1.762   1.005  0.2685 -0.4963  0.2367
 8480TIP3    H146855   2.636   1.690   1.058  0.5812 -0.8334 -0.3958
 8480TIP3    H246856   2.509   1.755   1.009  0.2463 -2.5124 -1.8454
 8481TIP3   OH246857   6.062   5.639   5.547 -0.3041 -0.2217 -0.0804
 8481TIP3    H146858   6.101   5.727   5.540  0.9582 -0.7516 -0.0467
 8481TIP3    H246859   6.003   5.644   5.622  0.8049  0.2373  0.7906
 8482TIP3   OH246860   2.726   2.381   4.022 -0.1491 -0.1580 -0.0961
 8482TIP3    H146861   2.779   2.305   3.998 -2.6607 -1.9206 -0.4733
 8482TIP3    H246862   2.693   2.416   3.939  0.2386  0.7923  0.1364
 8483TIP3   OH246863   6.623   0.772   2.601  0.5538 -0.2966  0.0537
 8483TIP3    H146864   6.596   0.684   2.630  1.0858 -0.3381  0.4158
 8483TIP3    H246865   6.715   0.779   2.626  0.3687  0.5796  0.5209
 8484TIP3   OH246866   0.054   3.710  14.683  0.4776  0.2698  0.3631
 8484TIP3    H146867   0.057   3.787  14.740  0.7254 -0.1069  0.8618
 8484TIP3    H246868   0.061   3.746  14.594  1.1512  0.7902  0.6187
 8485TIP3   OH246869   1.152   3.433  11.504  0.8832  0.3024  0.0480
 8485TIP3    H146870   1.088   3.442  11.575 -0.3104  0.0706 -0.9430
 8485TIP3    H246871   1.122   3.496  11.438  0.9040 -0.7235 -0.9670
 8486TIP3   OH246872   5.562   1.582  10.585 -0.2929 -0.0713 -0.2312
 8486TIP3    H146873   5.496   1.536  10.532  0.5939 -0.1256 -1.3233
 8486TIP3    H246874   5.590   1.517  10.650 -0.3115 -0.5089 -0.6538
 8487TIP3   OH246875   3.946   4.021   1.197 -0.0338  0.0720  0.1940
 8487TIP3    H146876   3.968   3.955   1.132  0.3095  0.4343 -0.0662
 8487TIP3    H246877   4.027   4.032   1.248 -0.3570 -0.3475  0.8098
 8488TIP3   OH246878   6.280   2.012   4.471  0.3264 -0.1374 -0.0919
 8488TIP3    H146879   6.306   1.920   4.468  0.8631  0.0379 -1.2619
 8488TIP3    H246880   6.243   2.029   4.385  0.4431  0.8127  0.0361
 8489TIP3   OH246881   6.134   0.017  12.732 -0.0001 -0.2102 -0.3202
 8489TIP3    H146882   6.192   0.038  12.806 -1.3381 -2.9724  1.6954
 8489TIP3    H246883   6.061   0.078  12.742  0.0315 -0.2762  0.4225
 8490TIP3   OH246884   6.416   2.726  12.497  0.7554  0.3526  0.0185
 8490TIP3    H146885   6.434   2.817  12.517 -0.8101  0.6294  0.2880
 8490TIP3    H246886   6.456   2.677  12.569  1.0030  0.8586  0.2277
 8491TIP3   OH246887   3.497   1.482   2.957 -0.0804 -0.3788  0.0387
 8491TIP3    H146888   3.473   1.446   2.872  1.3551 -3.1821  0.7220
 8491TIP3    H246889   3.591   1.496   2.952 -0.2024  0.8407  0.7237
 8492TIP3   OH246890   1.961   3.624   1.664 -0.1886 -0.6173  0.1052
 8492TIP3    H146891   1.866   3.615   1.673 -0.3487  0.7655  0.0098
 8492TIP3    H246892   1.978   3.717   1.679  1.4127 -1.1767  2.3901
 8493TIP3   OH246893   2.967   0.684  16.420 -0.0485  0.7433 -0.0976
 8493TIP3    H146894   3.056   0.720  16.425  0.9357 -1.2181 -1.8439
 8493TIP3    H246895   2.977   0.592  16.446 -1.7089  0.6347  0.2511
 8494TIP3   OH246896   5.707   6.305   0.421 -0.0132  0.1667  0.2664
 8494TIP3    H146897   5.654   6.234   0.456  1.3393 -0.5498  0.9577
 8494TIP3    H246898   5.774   6.261   0.367  0.0950  1.0091 -0.3113
 8495TIP3   OH246899   5.108   5.160   4.747  0.1963  0.2556 -0.4444
 8495TIP3    H146900   5.161   5.220   4.799 -1.4315  0.5040  0.9976
 8495TIP3    H246901   5.171   5.095   4.714  1.4892  0.9014  0.6538
 8496TIP3   OH246902   0.857   0.239   4.562  0.8944 -0.2135 -0.0891
 8496TIP3    H146903   0.853   0.232   4.658 -1.9944  1.5532  0.0257
 8496TIP3    H246904   0.815   0.160   4.531  0.5282 -0.1179  0.1538
 8497TIP3   OH246905   5.262   5.525  13.508 -0.9124  0.0905 -0.2445
 8497TIP3    H146906   5.184   5.469  13.508 -0.2779 -0.8939 -2.5487
 8497TIP3    H246907   5.252   5.581  13.431  0.9374 -0.5341 -0.9962
 8498TIP3   OH246908   2.183   2.439  15.946  0.0486 -0.6898 -0.3374
 8498TIP3    H146909   2.266   2.438  15.899  0.5753 -1.2707  0.5576
 8498TIP3    H246910   2.208   2.429  16.038 -0.9035  1.0619  0.1586
 8499TIP3   OH246911   5.098   6.250  16.584  0.4857  0.1741 -0.2087
 8499TIP3    H146912   5.067   6.287  16.501 -2.3100 -0.6537  0.3602
 8499TIP3    H246913   5.117   6.158  16.564 -0.2713 -0.0479  0.0485
 8500TIP3   OH246914   5.431   4.934  10.820  0.4412  0.5584 -0.5507
 8500TIP3    H146915   5.452   4.940  10.727 -1.5927 -0.4145 -1.1488
 8500TIP3    H246916   5.515   4.933  10.865  1.5851 -1.4530 -2.5600
 8501TIP3   OH246917   5.722   3.741  14.325 -0.5648 -0.2761 -0.4058
 8501TIP3    H146918   5.638   3.721  14.366 -0.8469 -1.3375 -1.4485
 8501TIP3    H246919   5.788   3.711  14.388 -0.9847 -1.2141 -0.3993
 8502TIP3   OH246920   5.139   4.148   5.724 -0.2491 -0.2562 -0.1631
 8502TIP3    H146921   5.220   4.167   5.770 -0.1187 -0.9384 -0.1002
 8502TIP3    H246922   5.070   4.157   5.790 -0.1899 -0.0307 -0.1317
 8503TIP3   OH246923   5.783   3.736  15.367  1.3889  0.0622  0.1025
 8503TIP3    H146924   5.862   3.706  15.411  0.3514  0.6307  2.5319
 8503TIP3    H246925   5.739   3.656  15.338  1.1206 -0.5304  2.0001
 8504TIP3   OH246926   5.403   0.141  13.539  0.0927  0.7490  0.7506
 8504TIP3    H146927   5.370   0.122  13.627  2.2069  1.2217  1.7220
 8504TIP3    H246928   5.384   0.062  13.489 -0.1497  0.0082  1.9671
 8505TIP3   OH246929   1.979   3.199   3.335 -0.4357 -0.2770  0.2442
 8505TIP3    H146930   1.995   3.228   3.425  0.4264 -0.7985  0.2674
 8505TIP3    H246931   2.065   3.174   3.302 -0.7834 -0.3244 -0.6456
 8506TIP3   OH246932   3.350   2.680   3.071  0.2145 -0.6931  0.6025
 8506TIP3    H146933   3.351   2.720   3.158  1.0601  0.0880  0.2503
 8506TIP3    H246934   3.426   2.623   3.069  0.8160  0.1062  0.0229
 8507TIP3   OH246935   3.265   2.518  15.139 -0.0236 -0.3691 -0.2053
 8507TIP3    H146936   3.213   2.599  15.130  0.4693  0.1307  1.1582
 8507TIP3    H246937   3.288   2.495  15.049  1.1431  1.9001 -0.5691
 8508TIP3   OH246938   6.151   5.140   6.238 -0.0315  0.6724  0.2581
 8508TIP3    H146939   6.199   5.057   6.245  1.4270  1.3353 -1.0974
 8508TIP3    H246940   6.207   5.195   6.183 -2.0531  1.7390 -0.8760
 8509TIP3   OH246941   4.427   5.949   0.518 -1.1057  0.3393 -0.1882
 8509TIP3    H146942   4.348   5.923   0.566 -0.3181  0.5003  1.2595
 8509TIP3    H246943   4.480   5.869   0.516  0.2034  1.0432  2.0157
 8510TIP3   OH246944   2.393   5.066  13.188 -0.3185  0.0802  0.1404
 8510TIP3    H146945   2.456   5.030  13.250 -0.0025 -0.7450 -0.6304
 8510TIP3    H246946   2.330   4.994  13.175 -0.2195  0.1344 -0.6945
 8511TIP3   OH246947   0.550   0.833  12.682 -0.2384 -0.3946  0.2119
 8511TIP3    H146948   0.619   0.778  12.645 -1.3170 -0.1221 -2.4155
 8511TIP3    H246949   0.577   0.922  12.660 -1.2391 -0.2709 -0.5562
 8512TIP3   OH246950   2.353   6.471   6.239 -0.5622  0.1539 -0.1753
 8512TIP3    H146951   2.390   6.396   6.194  1.5926  1.9802 -1.7108
 8512TIP3    H246952   2.270   6.488   6.195 -0.5103 -0.6083 -0.5793
 8513TIP3   OH246953   0.658   4.831   2.968 -0.2273  0.1472  0.2691
 8513TIP3    H146954   0.631   4.834   2.876 -0.2293  1.2941  0.3034
 8513TIP3    H246955   0.723   4.900   2.977 -0.6968  0.4802  1.2893
 8514TIP3   OH246956   5.220   2.145  14.719  0.2514  0.3685  0.4895
 8514TIP3    H146957   5.212   2.062  14.673  1.0827  0.6989 -0.2701
 8514TIP3    H246958   5.262   2.204  14.657  2.3656  0.5482  1.9706
 8515TIP3   OH246959   1.296   2.274   0.729 -0.4901  0.1415 -0.2327
 8515TIP3    H146960   1.266   2.219   0.802  0.4138  0.3737  0.3252
 8515TIP3    H246961   1.351   2.215   0.677 -0.0099  0.3487  0.0366
 8516TIP3   OH246962   2.158   0.613   0.185  0.6502  0.6379  0.1582
 8516TIP3    H146963   2.098   0.627   0.111  1.0097 -0.7903 -0.4343
 8516TIP3    H246964   2.101   0.610   0.261 -0.0941 -0.7409 -0.4049
 8517TIP3   OH246965   2.544   0.626  15.825 -0.5846 -0.2874  0.4792
 8517TIP3    H146966   2.480   0.696  15.814 -0.9082 -0.5275  0.8283
 8517TIP3    H246967   2.504   0.566  15.888 -1.0292 -1.6349 -1.0139
 8518TIP3   OH246968   0.033   2.001   4.522  0.2400 -0.3997  0.3008
 8518TIP3    H146969   0.041   1.939   4.450  0.9991 -0.1571  0.1660
 8518TIP3    H246970   0.054   1.950   4.600 -0.9136 -0.7471  0.4087
 8519TIP3   OH246971   6.766   5.062  11.884 -0.1729 -0.1415 -0.2760
 8519TIP3    H146972   6.680   5.027  11.906  0.5996 -1.1464  1.3141
 8519TIP3    H246973   6.825   4.987  11.893  0.7697  0.3029 -2.2210
 8520TIP3   OH246974   2.164   4.504   2.775  0.1010 -0.2206 -0.5454
 8520TIP3    H146975   2.235   4.441   2.760  0.8036  0.4194  0.0026
 8520TIP3    H246976   2.084   4.454   2.761  0.6582 -0.9959 -1.0347
 8521TIP3   OH246977   6.464   5.022  11.690  0.5642 -0.2696  0.0764
 8521TIP3    H146978   6.450   5.006  11.597  0.9883 -1.6115  0.2326
 8521TIP3    H246979   6.500   4.940  11.724  2.4723  0.8700  0.9882
 8522TIP3   OH246980   1.960   0.631  15.301 -0.4292 -0.0494  0.0435
 8522TIP3    H146981   1.882   0.580  15.323 -1.0060  0.4317 -0.8275
 8522TIP3    H246982   2.033   0.573  15.320 -0.9474 -0.2373  1.6447
 8523TIP3   OH246983   5.899   3.587   5.875 -0.2675 -0.2621 -0.2590
 8523TIP3    H146984   5.912   3.541   5.793 -0.4425  0.7699 -0.8862
 8523TIP3    H246985   5.804   3.585   5.889 -0.4009  0.8338 -0.8685
 8524TIP3   OH246986   1.450   2.777  12.792  0.2383 -0.0337 -0.0371
 8524TIP3    H146987   1.534   2.823  12.787  1.1741 -1.5821  0.7187
 8524TIP3    H246988   1.460   2.702  12.732  0.5878 -1.9644  2.2987
 8525TIP3   OH246989   4.092   1.467   2.955  0.0859 -0.5737  0.7109
 8525TIP3    H146990   4.163   1.440   3.014  0.7699  0.9809  0.6672
 8525TIP3    H246991   4.105   1.415   2.876  0.0598 -1.6149  1.3803
 8526TIP3   OH246992   3.289   2.045  10.796  0.0754 -0.5307  0.0323
 8526TIP3    H146993   3.344   2.100  10.739  1.1193 -1.9471 -0.3704
 8526TIP3    H246994   3.200   2.070  10.774  0.4871  2.2631  1.1103
 8527TIP3   OH246995   4.482   1.872   4.760  0.2324 -0.4497 -0.1853
 8527TIP3    H146996   4.540   1.944   4.787  1.8180 -1.7843  0.1127
 8527TIP3    H246997   4.394   1.902   4.782  0.8271  1.4905 -0.2838
 8528TIP3   OH246998   1.247   4.740  14.964 -0.3159  0.3806  0.4423
 8528TIP3    H146999   1.174   4.796  14.935 -0.4041  0.1807  0.2790
 8528TIP3    H247000   1.322   4.771  14.914 -0.7533 -0.8978 -1.0881
 8529TIP3   OH247001   6.234   0.918  17.182 -0.5398 -0.1230 -0.7029
 8529TIP3    H147002   6.309   0.956  17.226 -0.7758 -0.6501  0.1829
 8529TIP3    H247003   6.257   0.826  17.169  0.1351  0.3157 -3.0625
 8530TIP3   OH247004   3.736   3.215  15.713  0.5374  0.0766  0.2509
 8530TIP3    H147005   3.701   3.236  15.800  0.2344  1.5334 -0.1822
 8530TIP3    H247006   3.667   3.164  15.671 -0.1950  1.0754  0.1838
 8531TIP3   OH247007   1.472   1.781   1.525  0.2788  0.2033 -0.0550
 8531TIP3    H147008   1.489   1.846   1.593  0.8144 -1.3925  1.4066
 8531TIP3    H247009   1.547   1.787   1.466  0.9840  0.0360  0.8007
 8532TIP3   OH247010   6.520   3.931   5.498 -0.5237  0.6158 -0.5077
 8532TIP3    H147011   6.452   3.955   5.436  0.0685 -0.5597 -1.6643
 8532TIP3    H247012   6.473   3.899   5.574 -1.2638 -0.0231 -1.2220
 8533TIP3   OH247013   1.911   2.839  16.516 -0.8664 -0.5910  0.0187
 8533TIP3    H147014   1.997   2.796  16.511  0.8503  2.5196  0.5723
 8533TIP3    H247015   1.873   2.826  16.429  1.6715  0.7281 -1.4126
 8534TIP3   OH247016   2.056   2.628   0.714  0.5969  0.5857  0.6435
 8534TIP3    H147017   2.146   2.614   0.744  0.7117 -1.6883 -0.5053
 8534TIP3    H247018   2.061   2.616   0.619 -0.4503  3.4454  0.1384
 8535TIP3   OH247019   4.168   6.096  16.128 -0.6188 -0.0292  0.0179
 8535TIP3    H147020   4.222   6.127  16.201 -0.2814 -2.9013  1.1188
 8535TIP3    H247021   4.111   6.029  16.166 -2.5812  0.4959 -1.8096
 8536TIP3   OH247022   0.253   4.427   2.332  0.1361 -0.5460  0.0537
 8536TIP3    H147023   0.248   4.514   2.372 -1.1871 -0.3257 -0.5255
 8536TIP3    H247024   0.240   4.366   2.405 -1.4016 -0.1712  0.1305
 8537TIP3   OH247025   0.779   1.475  15.994  0.8232 -0.0622  0.4637
 8537TIP3    H147026   0.868   1.440  15.998  0.9597  0.0955 -0.7629
 8537TIP3    H247027   0.727   1.417  16.050  1.0684 -2.1544 -1.3312
 8538TIP3   OH247028   3.710   1.914  13.947  0.1134  0.2904  0.2295
 8538TIP3    H147029   3.659   1.982  13.990 -1.2502 -0.4043 -0.2335
 8538TIP3    H247030   3.656   1.887  13.873  0.7514 -1.1147  0.2497
 8539TIP3   OH247031   2.608   0.391   4.047  0.1463 -0.2502 -0.2857
 8539TIP3    H147032   2.645   0.314   4.090  0.4513  0.3253  0.5108
 8539TIP3    H247033   2.513   0.380   4.055  0.1841 -0.6355 -0.3490
 8540TIP3   OH247034   5.774   6.417   5.876  0.5705 -0.4714  0.2304
 8540TIP3    H147035   5.747   6.475   5.947  0.8677 -0.0394 -0.0078
 8540TIP3    H247036   5.868   6.404   5.888  0.3909 -1.4632  0.6838
 8541TIP3   OH247037   4.102   3.647  11.645  0.8031  0.0352  0.4556
 8541TIP3    H147038   4.161   3.571  11.650  1.5453  0.6564  1.5770
 8541TIP3    H247039   4.024   3.619  11.692  0.5763 -0.4367 -0.1714
 8542TIP3   OH247040   4.529   2.421  12.191 -0.0060 -0.5940  0.3238
 8542TIP3    H147041   4.602   2.362  12.208  0.6369  0.1425  0.2057
 8542TIP3    H247042   4.530   2.481  12.266  0.6973  0.5667 -0.5743
 8543TIP3   OH247043   2.018   6.146   3.046 -0.0297 -0.0749  0.6103
 8543TIP3    H147044   2.053   6.212   3.106 -0.2239 -0.2370  0.8979
 8543TIP3    H247045   2.063   6.065   3.069  1.5813  0.3041 -0.9307
 8544TIP3   OH247046   2.020   4.211   0.157 -0.2308  0.0882 -0.0795
 8544TIP3    H147047   1.980   4.135   0.201  0.2732  1.0167  2.0762
 8544TIP3    H247048   2.112   4.188   0.149 -0.5316 -0.6300 -1.9563
 8545TIP3   OH247049   4.575   2.569  13.385 -0.2197  0.0928  0.4980
 8545TIP3    H147050   4.533   2.637  13.436  0.6294  0.4131  0.7833
 8545TIP3    H247051   4.590   2.608  13.299  1.2744  0.6860  0.9868
 8546TIP3   OH247052   4.395   4.324   1.037  0.0834 -0.2252 -0.0338
 8546TIP3    H147053   4.336   4.300   0.966  0.7087  1.6663 -1.2615
 8546TIP3    H247054   4.449   4.246   1.051 -1.5192 -1.3873 -0.0625
 8547TIP3   OH247055   1.927   2.828  13.299 -0.4151 -0.0664  0.5282
 8547TIP3    H147056   1.966   2.743  13.315  0.5991  0.8678  3.9370
 8547TIP3    H247057   1.833   2.814  13.310 -0.3269 -0.8450  0.3350
 8548TIP3   OH247058   4.722   5.492  14.510  0.0305  0.2302  0.2315
 8548TIP3    H147059   4.807   5.535  14.515 -0.2036  0.5921  1.5058
 8548TIP3    H247060   4.658   5.562  14.527 -0.4021 -0.4254  1.4160
 8549TIP3   OH247061   3.680   0.750  12.452  0.5878  0.1788  0.0557
 8549TIP3    H147062   3.592   0.758  12.414  0.9082 -1.1320 -1.0487
 8549TIP3    H247063   3.668   0.694  12.528  0.5732 -0.6143 -0.5243
 8550TIP3   OH247064   2.567   3.523  12.042  0.2039  0.3634  0.1031
 8550TIP3    H147065   2.589   3.438  12.081  2.9562  0.2111 -1.4941
 8550TIP3    H247066   2.566   3.506  11.948  0.8634  2.0694 -0.2521
 8551TIP3   OH247067   4.241   2.442  13.827 -0.1504  0.5593 -0.1620
 8551TIP3    H147068   4.287   2.435  13.910 -0.0274 -1.1088 -0.3394
 8551TIP3    H247069   4.285   2.513  13.781 -0.1439  1.4229  1.1271
 8552TIP3   OH247070   2.290   3.035  16.487  0.4492  0.0892 -0.3042
 8552TIP3    H147071   2.309   2.965  16.549 -1.6640 -0.2910  0.0016
 8552TIP3    H247072   2.289   3.114  16.540 -0.2054 -0.0785 -0.0596
 8553TIP3   OH247073   3.901   3.720  16.876  0.4085  0.5304 -0.2501
 8553TIP3    H147074   3.922   3.640  16.829 -1.1586 -0.5356  0.7681
 8553TIP3    H247075   3.828   3.758  16.828  0.6562  0.9443 -0.3004
 8554TIP3   OH247076   0.436   3.626   3.410 -0.2518  0.0135 -0.1707
 8554TIP3    H147077   0.513   3.674   3.442 -0.4614 -0.3805  0.9736
 8554TIP3    H247078   0.372   3.634   3.480 -0.6716 -1.0391 -0.4107
 8555TIP3   OH247079   6.511   1.245   6.166  0.3109 -1.1620  0.4209
 8555TIP3    H147080   6.483   1.257   6.257  2.5696  0.0247  1.0513
 8555TIP3    H247081   6.479   1.158   6.142 -0.5645 -1.4029  2.2540
 8556TIP3   OH247082   1.257   2.632   1.784 -0.2255  0.5228  0.1808
 8556TIP3    H147083   1.244   2.726   1.773 -0.7867  0.4831  0.4668
 8556TIP3    H247084   1.352   2.621   1.791 -0.2414  1.3886  2.8501
 8557TIP3   OH247085   0.531   0.361   1.303  0.0638  0.3605 -0.2373
 8557TIP3    H147086   0.550   0.304   1.378 -1.7390  1.4365  1.1124
 8557TIP3    H247087   0.609   0.355   1.248  0.6438 -2.0256  0.7098
 8558TIP3   OH247088   2.714   6.162  13.067 -0.2031 -0.2733 -0.2053
 8558TIP3    H147089   2.723   6.257  13.069  0.0008 -0.2975  0.1260
 8558TIP3    H247090   2.804   6.129  13.069 -0.2806 -0.4776 -0.0838
 8559TIP3   OH247091   1.636   4.000  13.273  0.1020  0.1415 -0.2270
 8559TIP3    H147092   1.663   4.084  13.234  0.0963  0.5209  0.5772
 8559TIP3    H247093   1.640   3.938  13.200 -0.2515  0.9123 -0.9211
 8560TIP3   OH247094   6.021   0.672   2.144 -0.0655 -0.4800 -0.5388
 8560TIP3    H147095   6.031   0.706   2.233  0.8104  2.0763 -1.5051
 8560TIP3    H247096   5.927   0.657   2.135  0.0250 -2.7592  1.4017
 8561TIP3   OH247097   0.768   5.318  12.784 -0.4842 -0.6256 -0.2935
 8561TIP3    H147098   0.803   5.244  12.734  1.8636  1.8089 -2.5179
 8561TIP3    H247099   0.769   5.391  12.723 -2.2152  1.4537  1.9629
 8562TIP3   OH247100   0.322   4.926  11.789  0.0825  0.1299 -0.0392
 8562TIP3    H147101   0.238   4.897  11.823 -2.0299  4.1135 -1.2624
 8562TIP3    H247102   0.316   4.911  11.694  2.2139 -2.4795  0.1086
 8563TIP3   OH247103   6.781   1.228   6.067 -0.0793 -0.5411 -0.5008
 8563TIP3    H147104   6.700   1.218   6.118 -0.8008  0.8526 -1.3116
 8563TIP3    H247105   6.845   1.259   6.131 -0.1177 -1.8428  0.1907
 8564TIP3   OH247106   3.062   6.617   2.032 -0.7839  0.0903  0.2157
 8564TIP3    H147107   3.015   6.692   2.067 -0.4733  1.6312 -2.4202
 8564TIP3    H247108   3.090   6.644   1.944  1.6066 -2.1620  0.1380
 8565TIP3   OH247109   4.918   2.821   6.319 -0.8002  0.1322 -0.1719
 8565TIP3    H147110   4.936   2.839   6.411 -0.2077 -0.8392 -0.0857
 8565TIP3    H247111   4.916   2.907   6.277  0.9370  0.4662  0.3896
 8566TIP3   OH247112   0.156   0.356   5.300  0.3455 -0.3072  0.0019
 8566TIP3    H147113   0.142   0.297   5.375  0.4616 -0.2837  0.0422
 8566TIP3    H247114   0.167   0.442   5.340  0.1391 -0.2515 -0.0597
 8567TIP3   OH247115   5.049   5.968   3.194 -0.3262 -0.2605  0.1420
 8567TIP3    H147116   4.969   5.949   3.243  0.0627 -1.6946  0.2515
 8567TIP3    H247117   5.038   5.921   3.111  0.7770 -1.2230  0.5193
 8568TIP3   OH247118   1.998   0.502  15.946  0.5719  0.2361  0.3523
 8568TIP3    H147119   2.023   0.414  15.975  0.0674  0.1213  0.4498
 8568TIP3    H247120   2.045   0.561  16.004  0.6329  0.0258  0.5157
 8569TIP3   OH247121   4.387   5.276  11.467 -0.1509  0.3671  0.3465
 8569TIP3    H147122   4.372   5.314  11.381  1.2623  0.2132  0.0065
 8569TIP3    H247123   4.446   5.337  11.511  3.3875 -1.9379 -0.7556
 8570TIP3   OH247124   1.762   5.103  12.000  0.1921 -0.0523  0.4962
 8570TIP3    H147125   1.740   5.152  11.921  2.2564 -0.6682 -0.5127
 8570TIP3    H247126   1.725   5.016  11.985  0.6931 -0.2071  0.1395
 8571TIP3   OH247127   6.283   1.233  13.443  0.6805 -0.3062  0.1633
 8571TIP3    H147128   6.315   1.176  13.373 -1.3104 -0.5043 -0.6565
 8571TIP3    H247129   6.187   1.225  13.439  0.4073  1.6409  1.2565
 8572TIP3   OH247130   6.457   1.390  13.804  0.2556  0.8493 -0.6231
 8572TIP3    H147131   6.372   1.434  13.797 -0.0514  0.2263 -0.9158
 8572TIP3    H247132   6.437   1.297  13.794  0.8727  0.6180  0.2071
 8573TIP3   OH247133   3.578   0.103   5.007  0.4303  0.0358  0.7870
 8573TIP3    H147134   3.541   0.185   4.976  0.5897  0.1951  1.0149
 8573TIP3    H247135   3.672   0.110   4.990  0.1140 -1.4751 -2.3282
 8574TIP3   OH247136   1.312   1.299  16.337 -0.1005 -0.1176  0.0180
 8574TIP3    H147137   1.358   1.235  16.392  1.2000  0.2660 -0.5914
 8574TIP3    H247138   1.316   1.381  16.387 -0.9042 -0.2726  0.3528
 8575TIP3   OH247139   1.349   2.354   3.326  0.1907  0.1722 -0.0027
 8575TIP3    H147140   1.315   2.265   3.323 -0.0569  0.2758 -2.0466
 8575TIP3    H247141   1.430   2.347   3.376 -0.4970 -0.9348  1.0057
 8576TIP3   OH247142   1.123   4.709  15.761 -0.3305 -0.2620  0.0836
 8576TIP3    H147143   1.189   4.700  15.830  0.2099  0.1466 -0.3687
 8576TIP3    H247144   1.147   4.790  15.715 -0.1297 -0.9870 -1.1533
 8577TIP3   OH247145   2.664   1.634   4.395  0.0542 -0.1657  0.2461
 8577TIP3    H147146   2.663   1.695   4.469  0.9329 -1.1580  1.1210
 8577TIP3    H247147   2.580   1.587   4.401 -0.2288  0.3192  0.1155
 8578TIP3   OH247148   3.918   4.715  13.406  0.1790 -0.3532  0.3098
 8578TIP3    H147149   3.921   4.679  13.494 -1.4923 -1.5968 -0.0934
 8578TIP3    H247150   3.906   4.639  13.349 -0.4309  0.5746 -0.8545
 8579TIP3   OH247151   4.737   1.519  13.306  0.1001 -0.5224  0.0294
 8579TIP3    H147152   4.713   1.433  13.271  0.6178  0.5106 -3.1680
 8579TIP3    H247153   4.787   1.560  13.236  0.8160  1.9996  1.8955
 8580TIP3   OH247154   5.032   2.072   1.566  0.5358 -0.3770  0.2090
 8580TIP3    H147155   5.121   2.069   1.601  0.7131  0.7200 -0.0972
 8580TIP3    H247156   5.038   2.134   1.493 -1.1513  2.4891  2.2709
 8581TIP3   OH247157   3.742   0.972  12.620 -0.3225  0.3603 -0.7078
 8581TIP3    H147158   3.670   1.022  12.583 -1.6026 -0.1374  0.9616
 8581TIP3    H247159   3.763   0.907  12.553 -1.5460  0.4209 -1.1751
 8582TIP3   OH247160   6.064   3.655   2.841  0.3731  0.2397 -0.1797
 8582TIP3    H147161   6.118   3.677   2.917 -0.2766 -0.0505  0.3801
 8582TIP3    H247162   5.996   3.723   2.840 -0.6614 -0.7483  0.5657
 8583TIP3   OH247163   2.362   2.943  16.766 -0.2478  0.5298 -0.2356
 8583TIP3    H147164   2.445   2.958  16.811  1.0774  0.1893 -2.4140
 8583TIP3    H247165   2.312   2.888  16.827  0.9023  1.1288  1.3374
 8584TIP3   OH247166   2.246   5.451   3.840 -0.1687 -0.4425  0.6330
 8584TIP3    H147167   2.261   5.498   3.923 -1.4194 -1.6681  1.6070
 8584TIP3    H247168   2.208   5.517   3.782 -0.0352  0.2494  1.3089
 8585TIP3   OH247169   0.853   6.797  14.718 -0.0782 -0.5633 -0.0086
 8585TIP3    H147170   0.913   6.736  14.762  1.3825  1.1892  0.5411
 8585TIP3    H247171   0.900   6.824  14.639  0.1138  1.2011  0.6724
 8586TIP3   OH247172   3.244   0.777   0.431 -0.1796  0.5471 -0.0808
 8586TIP3    H147173   3.308   0.848   0.438  1.8532 -1.3285  2.0102
 8586TIP3    H247174   3.296   0.697   0.424 -2.3138 -0.9637  0.0499
 8587TIP3   OH247175   2.905   1.493   3.066 -1.0640 -0.3259 -0.1171
 8587TIP3    H147176   2.925   1.465   3.155 -1.5038 -0.3586 -0.0248
 8587TIP3    H247177   2.935   1.584   3.063 -0.2535 -0.5945 -0.2099
 8588TIP3   OH247178   4.980   0.793  14.374  0.0017 -0.1428  0.2494
 8588TIP3    H147179   4.891   0.794  14.338  0.0506 -1.0095  0.0830
 8588TIP3    H247180   4.980   0.862  14.441 -0.2476  1.1472 -1.0153
 8589TIP3   OH247181   2.118   1.569   3.986 -0.1163 -0.4778 -0.5620
 8589TIP3    H147182   2.179   1.628   3.942  1.2386 -0.9328  0.6151
 8589TIP3    H247183   2.104   1.498   3.925  2.8297 -1.8059  0.1727
 8590TIP3   OH247184   3.503   0.803   5.174 -0.2650 -0.6700  0.2449
 8590TIP3    H147185   3.413   0.776   5.156 -1.0238  0.7288  1.6367
 8590TIP3    H247186   3.506   0.813   5.270  1.7049 -1.7321  0.3590
 8591TIP3   OH247187   3.074   2.529  13.321  0.5484  0.1987 -0.9983
 8591TIP3    H147188   3.031   2.446  13.301  0.8835  0.0782 -1.2298
 8591TIP3    H247189   3.155   2.504  13.365  0.1403  0.4394 -0.0724
 8592TIP3   OH247190   3.693   1.526  10.899  0.0608  0.2322  0.3344
 8592TIP3    H147191   3.614   1.579  10.901  1.3478  2.2915 -0.3724
 8592TIP3    H247192   3.676   1.460  10.831 -0.9282  0.8616 -0.0471
 8593TIP3   OH247193   6.340   3.600   3.277 -0.2049  0.4565  0.4261
 8593TIP3    H147194   6.333   3.546   3.356  2.2422  1.6100  1.5496
 8593TIP3    H247195   6.348   3.689   3.309 -0.2835  1.0941 -1.2083
 8594TIP3   OH247196   1.248   1.582   1.928  0.3718  0.4183 -0.0077
 8594TIP3    H147197   1.290   1.498   1.909  1.0319  0.3688  1.5396
 8594TIP3    H247198   1.301   1.621   1.998 -0.8063  1.4277  0.3778
 8595TIP3   OH247199   5.173   3.679   2.024 -0.2584 -0.4502  0.2675
 8595TIP3    H147200   5.258   3.724   2.025 -1.2562  1.5142  1.3810
 8595TIP3    H247201   5.145   3.678   2.115 -1.7464 -0.4609 -0.1667
 8596TIP3   OH247202   4.886   4.600  16.954  0.1449  0.0902  0.1428
 8596TIP3    H147203   4.837   4.592  17.036 -1.2776  0.3615 -0.6379
 8596TIP3    H247204   4.904   4.694  16.946 -1.0703  0.2876 -0.5671
 8597TIP3   OH247205   4.651   2.904  12.266 -0.1031 -0.2445  0.1845
 8597TIP3    H147206   4.652   2.898  12.362  0.6835  1.7487  0.3645
 8597TIP3    H247207   4.741   2.888  12.240 -0.3838 -1.1247 -0.2640
 8598TIP3   OH247208   3.522   3.089  14.502  0.1373  0.4668 -0.3379
 8598TIP3    H147209   3.504   2.995  14.506 -0.1635  0.5354  0.0193
 8598TIP3    H247210   3.502   3.121  14.590 -1.3538  1.1504 -0.8981
 8599TIP3   OH247211   5.470   1.916  14.791 -0.0605 -0.1407 -0.5042
 8599TIP3    H147212   5.527   1.917  14.715  2.6171  0.9925  1.3530
 8599TIP3    H247213   5.530   1.908  14.866 -2.3817  0.6731  1.5867
 8600TIP3   OH247214   0.237   4.901   0.327 -0.1398 -0.4318 -0.6277
 8600TIP3    H147215   0.325   4.866   0.314 -0.6592 -1.8375 -0.5150
 8600TIP3    H247216   0.249   4.996   0.325  1.6371 -0.5491  1.0070
 8601TIP3   OH247217   1.282   5.728  15.222 -0.3485  0.0993 -0.3955
 8601TIP3    H147218   1.244   5.798  15.169 -0.2352  1.2631  1.0064
 8601TIP3    H247219   1.343   5.684  15.163 -0.9207  0.7310 -1.4987
 8602TIP3   OH247220   6.337   6.491  13.311  0.0969 -0.4133  0.6407
 8602TIP3    H147221   6.385   6.528  13.386 -0.1366 -2.6041  1.9834
 8602TIP3    H247222   6.303   6.567  13.264  2.3677  1.1328  1.3084
 8603TIP3   OH247223   0.594   0.753  14.627  0.1832 -0.5409  0.0918
 8603TIP3    H147224   0.540   0.677  14.645  1.0870 -1.1736  0.1873
 8603TIP3    H247225   0.606   0.795  14.712  1.8966 -1.8090  0.5269
 8604TIP3   OH247226   2.946   1.722  11.658  0.2570 -0.2718  0.0384
 8604TIP3    H147227   2.962   1.677  11.741  0.6757 -0.7695 -0.3065
 8604TIP3    H247228   3.013   1.687  11.599  0.2461  0.4092 -0.3859
 8605TIP3   OH247229   2.817   5.211  10.747 -0.5463 -0.1200 -0.2526
 8605TIP3    H147230   2.727   5.220  10.714 -0.6652 -1.7965 -0.4600
 8605TIP3    H247231   2.840   5.120  10.729  1.0928  0.2014  0.0929
 8606TIP3   OH247232   5.241   4.189  15.368  0.8719  0.4483  0.5405
 8606TIP3    H147233   5.184   4.264  15.380 -0.8172 -1.0107  2.1996
 8606TIP3    H247234   5.194   4.132  15.308  1.2682 -0.0900  0.7307
 8607TIP3   OH247235   6.365   4.557  15.968 -0.0990 -0.1444 -0.1759
 8607TIP3    H147236   6.351   4.463  15.982 -0.2737 -0.4881 -2.3286
 8607TIP3    H247237   6.278   4.591  15.949  0.2433  0.0243 -1.5213
 8608TIP3   OH247238   2.659   5.117   4.087  0.7224 -0.2951  0.1899
 8608TIP3    H147239   2.636   5.026   4.068 -0.5805 -0.4382  2.2146
 8608TIP3    H247240   2.747   5.112   4.124  0.4207 -0.8199  0.8567
 8609TIP3   OH247241   6.184   3.402   5.915  0.5519  0.1519 -0.1965
 8609TIP3    H147242   6.146   3.314   5.915  3.1808 -1.0809 -1.5109
 8609TIP3    H247243   6.166   3.436   6.003 -0.1144 -1.8643  0.4926
 8610TIP3   OH247244   1.650   2.977   1.507  0.1626 -0.2134 -0.4702
 8610TIP3    H147245   1.646   2.951   1.414  0.2429 -0.2837 -0.4543
 8610TIP3    H247246   1.706   3.054   1.507 -2.2092  1.6190 -0.8774
 8611TIP3   OH247247   1.588   6.686  12.986 -0.0496 -0.2980 -0.1348
 8611TIP3    H147248   1.588   6.696  13.082 -3.0479 -3.2074  0.3494
 8611TIP3    H247249   1.674   6.649  12.966  1.1701  1.6488  1.1615
 8612TIP3   OH247250   5.372   6.141   5.629 -0.5595 -0.1702  0.3218
 8612TIP3    H147251   5.372   6.225   5.584  1.5306  0.3368  1.1261
 8612TIP3    H247252   5.296   6.144   5.687 -0.0719  1.5208  0.9198
 8613TIP3   OH247253   0.928   2.177   0.675  0.2830 -0.0286  0.4598
 8613TIP3    H147254   0.898   2.094   0.639 -0.2259  0.5829 -0.5553
 8613TIP3    H247255   0.957   2.155   0.764  0.8230 -1.4106 -0.0334
 8614TIP3   OH247256   0.903   6.689  15.156  0.2566  0.6972 -0.1078
 8614TIP3    H147257   0.819   6.683  15.111 -0.0933  1.3388  0.4419
 8614TIP3    H247258   0.935   6.777  15.136  0.6482  0.5667 -0.0617
 8615TIP3   OH247259   4.018   0.337   4.639  0.0672 -0.0793 -0.0978
 8615TIP3    H147260   4.103   0.355   4.599  0.4085 -1.7905 -0.2138
 8615TIP3    H247261   4.003   0.411   4.698  1.1932  0.7135 -0.7646
 8616TIP3   OH247262   4.634   6.531  16.432 -0.1740 -0.3103  0.3894
 8616TIP3    H147263   4.618   6.495  16.345  1.1260  0.8067 -0.3325
 8616TIP3    H247264   4.726   6.559  16.431 -0.8257  2.1173  1.2236
 8617TIP3   OH247265   0.905   6.480  13.854 -0.2729 -0.1351 -0.4201
 8617TIP3    H147266   0.859   6.483  13.770 -0.3171  0.7269 -0.3690
 8617TIP3    H247267   0.972   6.412  13.841  1.1307  1.4111 -1.8997
 8618TIP3   OH247268   0.842   3.843  12.967  0.0363 -0.0495  0.7633
 8618TIP3    H147269   0.780   3.770  12.962 -0.2921  0.2750  0.0009
 8618TIP3    H247270   0.883   3.834  13.053 -0.1204 -1.0345  0.7381
 8619TIP3   OH247271   0.966   1.388  13.891  0.2337  0.0616 -0.5483
 8619TIP3    H147272   0.879   1.424  13.910  0.3856  0.4821 -0.6453
 8619TIP3    H247273   1.027   1.450  13.930  0.5505  0.7926 -2.1071
 8620TIP3   OH247274   6.481   0.867   5.545  0.2914 -0.5652 -0.5133
 8620TIP3    H147275   6.541   0.925   5.497 -0.4008 -0.1417 -0.8824
 8620TIP3    H247276   6.397   0.879   5.502  0.0117 -1.4260 -0.2267
 8621TIP3   OH247277   1.339   4.289  11.910 -0.3355  0.4163  0.3941
 8621TIP3    H147278   1.401   4.351  11.947  0.4229  0.5223 -1.0162
 8621TIP3    H247279   1.359   4.286  11.817 -0.1093 -2.2227  0.4524
 8622TIP3   OH247280   4.126   1.515  16.091 -0.2224 -0.0708  0.7571
 8622TIP3    H147281   4.046   1.557  16.122 -0.3627  0.5694 -0.3888
 8622TIP3    H247282   4.119   1.424  16.119 -0.6896  0.2979  1.8745
 8623TIP3   OH247283   3.550   4.529   2.398  0.1041 -0.6371  0.4884
 8623TIP3    H147284   3.514   4.540   2.310  1.1668  2.8503  0.3440
 8623TIP3    H247285   3.505   4.452   2.432 -3.5020  0.3070 -1.5752
 8624TIP3   OH247286   0.560   0.004  13.064 -0.2501  0.0072  0.3946
 8624TIP3    H147287   0.629  -0.051  13.101 -0.8250 -0.6041  0.5813
 8624TIP3    H247288   0.561   0.083  13.117 -0.1033 -0.2546  0.7869
 8625TIP3   OH247289   1.927   5.375  11.928  0.7465  0.0262  0.7908
 8625TIP3    H147290   1.925   5.342  11.838  0.0548 -2.1980  1.5643
 8625TIP3    H247291   1.838   5.407  11.943  0.1864 -1.6945  1.3630
 8626TIP3   OH247292   0.204   2.845   0.356 -0.3926 -0.1485  0.6029
 8626TIP3    H147293   0.154   2.787   0.414 -0.5622 -0.3478  0.2586
 8626TIP3    H247294   0.225   2.791   0.280 -0.7861  0.3160  0.1547
 8627TIP3   OH247295   0.425   1.557   4.793 -0.1926 -0.4559 -0.1397
 8627TIP3    H147296   0.433   1.580   4.700 -0.5152 -0.2323 -0.1144
 8627TIP3    H247297   0.405   1.641   4.836  2.9398  0.0622  0.5488
 8628TIP3   OH247298   3.040   0.104  17.071 -0.2288  0.2811  0.2250
 8628TIP3    H147299   3.117   0.134  17.119  0.2579  1.2862 -1.1186
 8628TIP3    H247300   2.966   0.129  17.126  0.3565  0.2552  1.0387
 8629TIP3   OH247301   0.545   1.248   3.078  0.2482  0.3409  0.2250
 8629TIP3    H147302   0.605   1.278   3.147 -0.8608 -0.0535  1.4013
 8629TIP3    H247303   0.603   1.219   3.007  1.3891  2.2748  0.3039
 8630TIP3   OH247304   2.201   6.438   4.274 -0.1216 -0.0764  0.0770
 8630TIP3    H147305   2.126   6.457   4.330  0.1451  1.6275 -0.0769
 8630TIP3    H247306   2.273   6.489   4.313  1.6311 -3.3402  1.5494
 8631TIP3   OH247307   6.760   0.480  15.105  0.5802  0.1099  0.5466
 8631TIP3    H147308   6.764   0.429  15.186  1.4571 -0.5009  0.1282
 8631TIP3    H247309   6.837   0.536  15.108  0.9825 -0.3855 -0.1579
 8632TIP3   OH247310   2.340   3.420  12.556 -0.0229 -0.2219 -0.6645
 8632TIP3    H147311   2.259   3.441  12.603 -0.1672 -1.2020 -0.4692
 8632TIP3    H247312   2.318   3.435  12.464  0.3046  1.8446 -0.4695
 8633TIP3   OH247313   1.838   0.036  11.878 -0.6430  0.2155 -0.0895
 8633TIP3    H147314   1.811   0.012  11.967  1.7507  0.3224  0.7329
 8633TIP3    H247315   1.808  -0.036  11.823  1.4546 -2.0050  1.4781
 8634TIP3   OH247316   1.948   5.109   2.538  0.4035 -0.0603 -0.1578
 8634TIP3    H147317   1.905   5.046   2.480 -2.9288  2.2686 -0.5858
 8634TIP3    H247318   1.894   5.109   2.617  0.9541  1.4232  0.2579
 8635TIP3   OH247319   5.487   1.673   3.751 -0.1216  0.4466  0.1496
 8635TIP3    H147320   5.525   1.698   3.835 -1.0158 -3.2360  1.8257
 8635TIP3    H247321   5.403   1.634   3.773 -0.5642 -0.3071 -2.5262
 8636TIP3   OH247322   3.756   4.720   2.837  0.2419 -0.5687 -0.8140
 8636TIP3    H147323   3.795   4.804   2.813 -0.3496  0.0585  0.3187
 8636TIP3    H247324   3.668   4.742   2.868 -0.1590 -1.6830 -1.1036
 8637TIP3   OH247325   6.016   0.739  15.379 -0.2813  0.2281 -0.3297
 8637TIP3    H147326   5.939   0.751  15.323  0.5518  0.1742 -1.5239
 8637TIP3    H247327   6.059   0.825  15.380 -0.7484  0.4760  0.9792
 8638TIP3   OH247328   5.908   2.939  12.398  0.1539  0.1808  0.0715
 8638TIP3    H147329   5.945   2.934  12.310 -0.3411  0.4010 -0.1523
 8638TIP3    H247330   5.841   3.008  12.392 -1.6400 -1.4970 -0.0250
 8639TIP3   OH247331   5.130   5.719   2.680 -0.2899  0.1638  0.4533
 8639TIP3    H147332   5.054   5.698   2.625 -1.8766  1.4783  2.0368
 8639TIP3    H247333   5.173   5.791   2.634 -0.8648  0.4170  0.3019
 8640TIP3   OH247334   4.924   0.136  14.956  0.0804 -0.1189  0.1758
 8640TIP3    H147335   4.839   0.180  14.958 -0.5155 -1.1694 -0.8351
 8640TIP3    H247336   4.943   0.124  14.863  0.9558 -0.6064  0.4062
 8641TIP3   OH247337   4.341   0.689   5.866  0.1806 -0.3532  0.6485
 8641TIP3    H147338   4.323   0.782   5.853 -0.7717 -0.6826 -0.4808
 8641TIP3    H247339   4.314   0.672   5.957 -1.8634 -0.0146  0.1607
 8642TIP3   OH247340   0.501   4.359  11.322  0.0174 -0.6227  0.1811
 8642TIP3    H147341   0.578   4.413  11.341  0.4409 -0.6760 -1.2458
 8642TIP3    H247342   0.537   4.273  11.297 -0.3868 -0.2840 -1.7557
 8643TIP3   OH247343   2.909   1.777   4.186  0.1753 -0.4838 -0.1024
 8643TIP3    H147344   2.843   1.783   4.254  0.2771  0.5304 -0.0721
 8643TIP3    H247345   2.938   1.868   4.173 -0.0976 -0.6003 -1.7381
 8644TIP3   OH247346   5.551   5.150  16.207 -0.2630  0.2762  0.4675
 8644TIP3    H147347   5.555   5.146  16.112  1.0771  0.7658  0.4847
 8644TIP3    H247348   5.578   5.063  16.235  0.5809  0.5096  0.4060
 8645TIP3   OH247349   4.517   1.524   0.981  0.1915  0.0217 -0.6586
 8645TIP3    H147350   4.612   1.533   0.973  0.4946 -1.9046  0.1324
 8645TIP3    H247351   4.501   1.526   1.076 -0.3849 -0.8382 -0.7241
 8646TIP3   OH247352   1.445   2.881  11.733  0.1963  0.2284  0.3730
 8646TIP3    H147353   1.514   2.828  11.692 -0.4511 -1.1489  0.9897
 8646TIP3    H247354   1.426   2.835  11.814 -0.8499  1.0841  0.6216
 8647TIP3   OH247355   2.586   6.606  11.094 -0.0886  0.4005 -1.2031
 8647TIP3    H147356   2.510   6.576  11.144 -0.2160  0.1192 -1.5601
 8647TIP3    H247357   2.554   6.611  11.004  0.1109  1.0041 -1.2397
 8648TIP3   OH247358   4.198   0.778  12.462  0.6729  0.1269 -0.0262
 8648TIP3    H147359   4.240   0.775  12.549  1.0495  1.1703 -0.1539
 8648TIP3    H247360   4.105   0.770  12.480  0.8618 -1.6591  0.3142
 8649TIP3   OH247361   0.190   5.137  10.718  0.1857 -0.0943  0.2136
 8649TIP3    H147362   0.108   5.185  10.699  0.7858  0.7632 -0.3111
 8649TIP3    H247363   0.189   5.064  10.656 -0.9155 -1.0096  1.2624
 8650TIP3   OH247364   5.132   5.898  15.019 -0.5416 -0.3814  0.4635
 8650TIP3    H147365   5.146   5.805  15.035  0.9895 -0.3254 -0.2510
 8650TIP3    H247366   5.114   5.903  14.925 -0.0181  0.0816  0.3826
 8651TIP3   OH247367   2.031   6.639  15.768  0.0136  0.2788  0.1592
 8651TIP3    H147368   1.954   6.583  15.771  0.4330 -0.2724  1.9986
 8651TIP3    H247369   2.003   6.721  15.808  0.7797 -0.5444  2.5665
 8652TIP3   OH247370   3.079   3.089  16.054 -0.8120  0.0169 -0.0064
 8652TIP3    H147371   3.130   3.169  16.067 -2.7028  1.0011  2.1958
 8652TIP3    H247372   3.134   3.019  16.087  0.1760  0.6295 -0.2969
 8653TIP3   OH247373   5.195   6.085   4.462  0.0175  0.0202  0.0599
 8653TIP3    H147374   5.155   6.067   4.376  0.5400  1.6100 -0.5530
 8653TIP3    H247375   5.263   6.150   4.443 -0.8467  1.5533  1.8799
 8654TIP3   OH247376   6.155   5.462  14.670  0.2508  0.4374  0.0560
 8654TIP3    H147377   6.233   5.417  14.702  1.5802  1.4057 -1.6572
 8654TIP3    H247378   6.082   5.412  14.707  1.5947 -3.0654 -1.5522
 8655TIP3   OH247379   4.719   0.468   4.577 -0.0413  0.0554  0.4299
 8655TIP3    H147380   4.757   0.423   4.502 -0.8817  0.7159 -0.4205
 8655TIP3    H247381   4.788   0.469   4.642 -0.1748 -3.0214  0.7563
 8656TIP3   OH247382   0.607   2.429  12.762  0.3819 -0.1867 -0.0184
 8656TIP3    H147383   0.685   2.375  12.759 -0.2822 -1.1348 -1.5669
 8656TIP3    H247384   0.585   2.445  12.670  0.0377  1.9782  0.3834
 8657TIP3   OH247385   6.177   4.009  11.088 -0.0059 -0.8001  0.1565
 8657TIP3    H147386   6.095   3.968  11.116  0.7146 -2.1408  0.3846
 8657TIP3    H247387   6.149   4.086  11.037 -1.4072 -1.4818 -0.1617
 8658TIP3   OH247388   4.942   4.843  12.170  0.0612 -0.1484 -0.4903
 8658TIP3    H147389   5.015   4.785  12.189  2.0457  1.9396 -1.2994
 8658TIP3    H247390   4.892   4.797  12.102 -1.2930 -3.0030  2.1936
 8659TIP3   OH247391   5.709   5.862  14.227 -0.0762 -0.0467 -0.0225
 8659TIP3    H147392   5.742   5.779  14.263 -0.1728  0.5787  1.6047
 8659TIP3    H247393   5.635   5.836  14.173 -1.0422 -0.9359  1.6523
 8660TIP3   OH247394   3.008   0.953   4.226  0.2436 -0.0766  0.2766
 8660TIP3    H147395   2.952   0.998   4.289 -1.0986 -0.6838 -0.4388
 8660TIP3    H247396   3.073   1.019   4.201 -1.0939  1.1753 -0.0216
 8661TIP3   OH247397   2.629   0.278   2.357 -0.0993 -0.2532 -0.2406
 8661TIP3    H147398   2.675   0.205   2.399 -2.3076 -1.4099  0.3251
 8661TIP3    H247399   2.590   0.326   2.430 -2.1206 -0.9729 -0.7977
 8662TIP3   OH247400   6.047   2.356   5.734  0.6546 -0.3830  0.0568
 8662TIP3    H147401   6.015   2.431   5.785  0.5628 -0.0698 -0.4572
 8662TIP3    H247402   5.968   2.322   5.692  0.7382 -0.6185  0.0947
 8663TIP3   OH247403   5.215   1.581  13.912 -0.3737 -0.1182  0.3924
 8663TIP3    H147404   5.264   1.636  13.851  1.2710 -0.7011  1.1261
 8663TIP3    H247405   5.158   1.642  13.958  0.2850  0.7360  0.1114
 8664TIP3   OH247406   1.477   0.236   2.919  0.0724 -0.0779  0.0079
 8664TIP3    H147407   1.487   0.167   2.985 -0.6290 -1.1192 -0.9486
 8664TIP3    H247408   1.527   0.204   2.844  0.6440  0.9795 -0.0918
 8665TIP3   OH247409   5.464   4.874  12.139 -0.3594  0.3570 -0.4937
 8665TIP3    H147410   5.463   4.780  12.154  0.8617  0.6175  1.5524
 8665TIP3    H247411   5.513   4.885  12.057  0.3006 -0.7385 -0.2593
 8666TIP3   OH247412   1.150   2.493  12.146 -0.4239  0.7724 -0.3372
 8666TIP3    H147413   1.240   2.494  12.115  0.2226  0.0908  1.3811
 8666TIP3    H247414   1.154   2.535  12.232 -1.1730 -1.8758  1.0960
 8667TIP3   OH247415   3.981   6.432   2.568 -0.0461 -0.2792 -0.2500
 8667TIP3    H147416   3.902   6.426   2.622 -0.6476  1.7546 -0.8296
 8667TIP3    H247417   4.052   6.403   2.626 -0.6933  1.6745  1.6251
 8668TIP3   OH247418   4.199   5.279   5.669  0.0213  0.0606  0.1034
 8668TIP3    H147419   4.135   5.223   5.713 -1.6094  2.2757  0.7784
 8668TIP3    H247420   4.222   5.345   5.734  2.7991 -0.4522 -0.2635
 8669TIP3   OH247421   3.107   5.734   3.234  0.3288  0.1187 -0.1648
 8669TIP3    H147422   3.058   5.811   3.205  1.7321  0.5224 -1.5867
 8669TIP3    H247423   3.077   5.719   3.323  1.1713  3.3245  0.7850
 8670TIP3   OH247424   2.449   3.844  15.749  0.4562  0.3304  0.4821
 8670TIP3    H147425   2.541   3.844  15.722  0.1005 -0.6675 -0.8842
 8670TIP3    H247426   2.403   3.881  15.673 -0.2648  0.8562  1.1717
 8671TIP3   OH247427   4.766   3.499  13.900  0.1805 -0.2090 -0.4806
 8671TIP3    H147428   4.711   3.440  13.849 -1.7821 -0.5266  1.8075
 8671TIP3    H247429   4.711   3.576  13.916  1.1630  0.3884  0.1243
 8672TIP3   OH247430   2.675   0.476  16.166  0.7740 -0.1988  0.2836
 8672TIP3    H147431   2.681   0.449  16.258  0.0695 -0.0107  0.3908
 8672TIP3    H247432   2.712   0.402  16.117 -1.7754 -1.7497  0.5194
 8673TIP3   OH247433   3.467   5.450  10.923 -0.0178 -0.0337 -0.2816
 8673TIP3    H147434   3.562   5.454  10.911 -0.0897  0.2299 -0.8183
 8673TIP3    H247435   3.436   5.394  10.852 -0.2604 -0.1341 -0.0956
 8674TIP3   OH247436   0.144   3.587  15.907 -0.6216 -0.6146  0.0269
 8674TIP3    H147437   0.094   3.512  15.938 -0.0455 -0.2913  1.8577
 8674TIP3    H247438   0.233   3.572  15.939 -0.0674 -0.0370 -1.1606
 8675TIP3   OH247439   0.257   4.960  13.518  0.1883  0.0356 -0.0583
 8675TIP3    H147440   0.186   5.016  13.549  0.6274  0.6987 -0.2311
 8675TIP3    H247441   0.224   4.922  13.437  0.4046  1.1537 -0.6870
 8676TIP3   OH247442   6.177   3.983   5.169 -0.2035 -0.2461 -0.5587
 8676TIP3    H147443   6.116   3.912   5.188 -1.6765  1.0435 -0.2585
 8676TIP3    H247444   6.131   4.037   5.104  0.8406  0.4805 -0.7138
 8677TIP3   OH247445   4.227   5.276  14.892  0.0159  0.9498 -0.3086
 8677TIP3    H147446   4.320   5.253  14.899 -0.1901 -0.5003 -1.6996
 8677TIP3    H247447   4.206   5.318  14.975  1.0235 -1.9348  1.5201
 8678TIP3   OH247448   2.620   1.094   1.218 -0.6468  0.7632 -0.3698
 8678TIP3    H147449   2.632   1.048   1.301  0.2424  0.3033 -0.7385
 8678TIP3    H247450   2.706   1.132   1.198 -0.2965 -0.7161 -1.9832
 8679TIP3   OH247451   2.698   1.214   3.573 -0.1711 -0.6770 -0.9051
 8679TIP3    H147452   2.677   1.158   3.648  2.5998  0.4617  0.8521
 8679TIP3    H247453   2.784   1.184   3.543  0.7298  1.6220 -0.8396
 8680TIP3   OH247454   3.964   0.553  11.854 -0.2683  0.4344 -0.0175
 8680TIP3    H147455   3.988   0.617  11.787 -0.7231 -0.9399 -1.5421
 8680TIP3    H247456   4.044   0.542  11.905  0.1908  1.2640 -0.5236
 8681TIP3   OH247457   0.855   6.090   5.197 -0.7277 -0.7683  0.3954
 8681TIP3    H147458   0.790   6.140   5.245  0.1307 -0.6842  1.5093
 8681TIP3    H247459   0.843   6.117   5.106 -0.7765  0.9473  0.8672
 8682TIP3   OH247460   2.708   4.930   6.122 -0.2270 -0.2005 -0.4514
 8682TIP3    H147461   2.630   4.878   6.102 -1.5171  1.0276  1.0550
 8682TIP3    H247462   2.686   5.018   6.093 -0.7534  0.8574  2.7057
 8683TIP3   OH247463   0.373   0.122  13.903 -0.0827 -0.3051 -0.3303
 8683TIP3    H147464   0.441   0.119  13.971  0.1897  0.7769 -0.5402
 8683TIP3    H247465   0.412   0.076  13.829 -0.5762 -1.9569  0.3865
 8684TIP3   OH247466   1.745   5.957  16.963 -0.1677 -0.0871 -0.7431
 8684TIP3    H147467   1.819   5.911  17.003 -0.5410  1.0909  1.4294
 8684TIP3    H247468   1.672   5.895  16.970 -0.3994  0.3277  1.1587
 8685TIP3   OH247469   4.835   3.210   0.183 -0.0402 -0.0254 -0.4290
 8685TIP3    H147470   4.754   3.160   0.189 -1.2559  1.5494 -2.6815
 8685TIP3    H247471   4.900   3.154   0.227 -1.9971 -1.9817  0.1590
 8686TIP3   OH247472   3.816   3.048  12.895  0.6949 -0.2863  0.9524
 8686TIP3    H147473   3.732   3.065  12.938 -0.7742 -2.5353 -0.8292
 8686TIP3    H247474   3.840   3.132  12.856  0.1284  0.8021  2.8258
 8687TIP3   OH247475   3.111   4.449   4.600 -0.4210  0.5904 -0.1782
 8687TIP3    H147476   3.022   4.415   4.586 -0.4734  0.2591  0.9264
 8687TIP3    H247477   3.155   4.435   4.516 -0.7005 -1.3952 -0.0223
 8688TIP3   OH247478   2.762   4.319  13.343  0.6135  0.2260  0.3433
 8688TIP3    H147479   2.747   4.368  13.262  2.1962  0.0795 -0.0751
 8688TIP3    H247480   2.840   4.267  13.325  0.0378 -1.0684  1.4187
 8689TIP3   OH247481   2.541   2.997  16.953 -0.1192 -0.4461  0.5262
 8689TIP3    H147482   2.494   3.010  17.036 -0.4555 -0.1004  0.2807
 8689TIP3    H247483   2.587   3.079  16.938  0.0567 -0.5609  0.4436
 8690TIP3   OH247484   1.756   2.281  12.214  0.2303  0.1257 -0.5944
 8690TIP3    H147485   1.741   2.195  12.173 -2.3672  1.1338 -1.9698
 8690TIP3    H247486   1.785   2.337  12.142  1.1826  0.6098  0.1455
 8691TIP3   OH247487   3.680   3.091  10.550  0.2668 -0.0403  0.0617
 8691TIP3    H147488   3.615   3.118  10.485 -1.7883  1.0397  2.3904
 8691TIP3    H247489   3.720   3.173  10.579 -0.6739 -0.1920  1.9036
 8692TIP3   OH247490   0.670   6.785   2.371  0.3827 -0.1731 -0.1149
 8692TIP3    H147491   0.611   6.853   2.338  0.7216  1.1231  1.7628
 8692TIP3    H247492   0.755   6.806   2.332  0.7204  1.1828  1.2303
 8693TIP3   OH247493   0.272   2.149  16.950  0.0946 -0.2086 -0.1050
 8693TIP3    H147494   0.179   2.138  16.929  0.1311 -0.3548 -0.1863
 8693TIP3    H247495   0.296   2.069  16.997 -0.0679  0.2380  0.7735
 8694TIP3   OH247496   2.860   0.395   2.178 -0.4992 -0.0333  0.1646
 8694TIP3    H147497   2.836   0.394   2.270  1.7077 -0.4136  0.7834
 8694TIP3    H247498   2.948   0.434   2.176 -0.1263 -0.8600 -1.6628
 8695TIP3   OH247499   6.726   3.723  16.040 -0.7628  0.1565 -0.1843
 8695TIP3    H147500   6.811   3.702  16.001 -0.5800  1.0336 -0.2836
 8695TIP3    H247501   6.674   3.644  16.028  0.3878 -0.8044  0.8705
 8696TIP3   OH247502   2.516   2.634  14.328 -0.6545  0.3082  0.0425
 8696TIP3    H147503   2.469   2.576  14.387  1.0891 -0.4384  0.7864
 8696TIP3    H247504   2.600   2.589  14.313  0.1725  1.9729 -0.5054
 8697TIP3   OH247505   2.020   0.268  11.219 -0.1042 -0.8514  0.3072
 8697TIP3    H147506   2.096   0.251  11.276  0.4665 -0.6617 -0.3801
 8697TIP3    H247507   2.028   0.361  11.196  1.7090 -1.6365 -2.9026
 8698TIP3   OH247508   4.717   3.382  15.807 -0.3013 -0.4643  0.3181
 8698TIP3    H147509   4.693   3.470  15.779  1.8135  0.7141  1.9664
 8698TIP3    H247510   4.775   3.350  15.738 -1.2935 -0.7390 -0.4220
 8699TIP3   OH247511   3.140   6.570  11.330 -0.2702  0.0304 -0.1316
 8699TIP3    H147512   3.221   6.526  11.300  0.6099  1.2164  0.4366
 8699TIP3    H247513   3.158   6.592  11.421 -1.3115  0.1993  0.0380
 8700TIP3   OH247514   5.804   1.657  12.255 -0.2804 -0.3765 -0.2170
 8700TIP3    H147515   5.748   1.622  12.324  1.1136  1.5640  2.0655
 8700TIP3    H247516   5.880   1.599  12.254 -1.8323 -2.6260 -2.8715
 8701TIP3   OH247517   6.393   3.857  15.923 -0.5396  0.0239  0.3325
 8701TIP3    H147518   6.423   3.937  15.964 -0.9165 -0.2798  1.2162
 8701TIP3    H247519   6.445   3.850  15.843 -0.1618  0.8846  0.4932
 8702TIP3   OH247520   2.905   4.816  11.976 -0.2349 -0.3862 -0.2765
 8702TIP3    H147521   2.887   4.889  11.917  1.1103  0.0831 -0.1477
 8702TIP3    H247522   2.958   4.854  12.046 -1.0907 -1.1095  0.7989
 8703TIP3   OH247523   5.659   0.603  16.865  0.9760 -0.2331  0.3812
 8703TIP3    H147524   5.716   0.578  16.938  1.0520  0.7802  0.6861
 8703TIP3    H247525   5.683   0.694  16.847 -1.3697  0.6585  1.3403
 8704TIP3   OH247526   3.553   0.325  11.465  0.0798  0.1111 -0.0884
 8704TIP3    H147527   3.568   0.241  11.507  1.2655  0.4122  0.1366
 8704TIP3    H247528   3.595   0.389  11.522 -0.3250  0.7974 -0.5353
 8705TIP3   OH247529   5.206   2.882   5.184 -0.3889  0.3795 -0.4551
 8705TIP3    H147530   5.177   2.796   5.214 -0.2879  1.3543  2.7460
 8705TIP3    H247531   5.301   2.877   5.184 -0.3862  0.4239 -0.5637
 8706TIP3   OH247532   3.492   2.076   4.612 -0.2360 -0.1002 -0.8505
 8706TIP3    H147533   3.579   2.071   4.652  0.2898 -2.6943 -2.1116
 8706TIP3    H247534   3.453   2.156   4.649  1.7213 -0.1687  1.6406
 8707TIP3   OH247535   1.764   2.273  12.684 -0.2052 -0.2750 -0.0729
 8707TIP3    H147536   1.846   2.311  12.715  0.7408 -1.2603 -1.2641
 8707TIP3    H247537   1.730   2.225  12.759  0.6945 -0.4708  0.2226
 8708TIP3   OH247538   2.085   0.145   2.364 -0.2671 -0.3817  1.2185
 8708TIP3    H147539   2.167   0.195   2.362 -0.5742  0.1100  0.6695
 8708TIP3    H247540   2.019   0.207   2.334 -0.6233 -1.1897  0.3240
 8709TIP3   OH247541   0.010   1.703   3.259  0.2612 -0.6484 -0.4290
 8709TIP3    H147542   0.013   1.775   3.322  0.8646 -0.8097 -0.2667
 8709TIP3    H247543  -0.079   1.668   3.267 -0.3385  0.6392 -1.1639
 8710TIP3   OH247544   6.433   2.541  13.539  0.0473  0.4937 -0.1762
 8710TIP3    H147545   6.458   2.634  13.540  0.5109  0.3886 -1.2745
 8710TIP3    H247546   6.343   2.541  13.506 -0.7616  0.7049  1.8809
 8711TIP3   OH247547   6.555   4.192  16.649 -0.2681  0.2117  0.1090
 8711TIP3    H147548   6.490   4.126  16.673  1.1518 -0.9236  1.0048
 8711TIP3    H247549   6.559   4.188  16.554 -0.0413 -1.1969  0.1557
 8712TIP3   OH247550   0.756   2.289  11.430  0.2453  0.1001 -0.4711
 8712TIP3    H147551   0.738   2.377  11.397 -0.5846  0.1521  0.0787
 8712TIP3    H247552   0.714   2.287  11.516 -0.6226 -1.1533 -0.8979
 8713TIP3   OH247553   1.296   0.812  15.799  0.2052 -0.1542 -0.0676
 8713TIP3    H147554   1.322   0.897  15.835  0.1068  0.0500 -0.4720
 8713TIP3    H247555   1.314   0.819  15.706  1.2471 -0.9884  0.0657
 8714TIP3   OH247556   1.701   6.513   0.999  0.4786  0.2036 -0.2660
 8714TIP3    H147557   1.776   6.467   0.962  0.7818 -0.7345  1.4206
 8714TIP3    H247558   1.654   6.547   0.923  1.0761 -1.6067 -1.5098
 8715TIP3   OH247559   5.599   1.348   4.717  0.4665  0.1956  0.1029
 8715TIP3    H147560   5.531   1.309   4.662  0.4007  1.4579 -0.7549
 8715TIP3    H247561   5.626   1.278   4.776 -0.1597 -0.9163 -0.8948
 8716TIP3   OH247562   1.668   4.002   1.883  0.0266  0.2083 -0.3768
 8716TIP3    H147563   1.664   3.956   1.967  0.2982 -2.1187 -1.5509
 8716TIP3    H247564   1.761   4.022   1.871 -0.3010  3.0189  1.0410
 8717TIP3   OH247565   0.791   0.532  13.435  0.4787  0.6562  0.7988
 8717TIP3    H147566   0.860   0.513  13.498 -1.1152 -1.5544  2.0457
 8717TIP3    H247567   0.764   0.446  13.401 -1.0565  1.4962 -0.2797
 8718TIP3   OH247568   6.784   6.230   3.615  0.3720 -0.0453 -0.4021
 8718TIP3    H147569   6.831   6.295   3.563  1.4173 -1.0673 -0.7677
 8718TIP3    H247570   6.692   6.243   3.592  0.7161  0.1966 -1.7446
 8719TIP3   OH247571   1.919   6.066  16.141  0.3484 -0.1949 -1.2273
 8719TIP3    H147572   1.977   6.098  16.211 -0.3623  1.4735 -1.3643
 8719TIP3    H247573   1.834   6.104  16.161 -0.6392 -2.2365 -1.2966
 8720TIP3   OH247574   0.376   2.975   0.617  0.1512 -0.7128 -0.4571
 8720TIP3    H147575   0.464   2.939   0.619 -0.3167 -2.0707 -1.8623
 8720TIP3    H247576   0.360   2.994   0.524 -1.7001 -2.3460 -0.5327
 8721TIP3   OH247577   2.565   1.604  11.365 -0.1611 -0.5215  0.1246
 8721TIP3    H147578   2.568   1.699  11.367  0.8282 -0.4852  3.4354
 8721TIP3    H247579   2.488   1.583  11.312 -1.3502  2.1634  0.6237
 8722TIP3   OH247580   5.614   2.732  15.578 -0.3208  0.4451  0.4551
 8722TIP3    H147581   5.620   2.695  15.490  2.0967 -1.2901  1.2546
 8722TIP3    H247582   5.627   2.826  15.566 -0.0581  0.2378 -1.0389
 8723TIP3   OH247583   0.137   0.048   4.461  0.5456 -0.4057 -0.1536
 8723TIP3    H147584   0.098  -0.020   4.516 -1.0100  0.1718 -0.5028
 8723TIP3    H247585   0.134   0.011   4.373  2.8015 -1.2225  0.0189
 8724TIP3   OH247586   3.302   1.534  11.536 -0.2644 -0.1311  0.3251
 8724TIP3    H147587   3.241   1.607  11.545 -2.0585 -1.1815 -2.2203
 8724TIP3    H247588   3.259   1.461  11.582  0.2223 -0.2996  0.5224
 8725TIP3   OH247589   6.646   4.453  14.756  0.3119  0.3876 -0.7438
 8725TIP3    H147590   6.687   4.371  14.728  0.4869  0.8450 -1.9036
 8725TIP3    H247591   6.553   4.433  14.762  0.6252 -0.6528  1.8653
 8726TIP3   OH247592   0.364   4.012  14.933 -0.1552  0.3637 -0.2073
 8726TIP3    H147593   0.332   4.018  15.023 -0.2437  0.9284 -0.2747
 8726TIP3    H247594   0.458   3.994  14.941 -0.4880 -1.4850 -0.0067
 8727TIP3   OH247595   5.655   2.655  15.832  0.6405  0.0002 -0.6858
 8727TIP3    H147596   5.656   2.666  15.737  0.0664 -0.9376 -0.8200
 8727TIP3    H247597   5.562   2.654  15.855  0.5637 -3.2787 -0.6207
 8728TIP3   OH247598   6.053   5.046  15.195  0.0914  0.2197  0.0053
 8728TIP3    H147599   5.997   4.979  15.235 -0.4108 -0.2280 -1.4017
 8728TIP3    H247600   6.003   5.127  15.203  1.3670  0.8556  3.1722
 8729TIP3   OH247601   0.250   4.507   3.871  0.8603  0.1638  0.9928
 8729TIP3    H147602   0.184   4.475   3.932  0.3082 -1.1549 -0.2524
 8729TIP3    H247603   0.276   4.592   3.907 -1.5433  0.7565  1.4796
 8730TIP3   OH247604   6.116   4.402  15.801 -0.2954 -0.3030  0.4064
 8730TIP3    H147605   6.161   4.349  15.735 -0.4658  0.4582 -0.3359
 8730TIP3    H247606   6.160   4.381  15.883  0.8875 -0.1707 -0.1813
 8731TIP3   OH247607   1.506   4.236  12.455  0.2611  0.4016 -0.2008
 8731TIP3    H147608   1.442   4.269  12.519 -0.7094  0.8078 -1.3448
 8731TIP3    H247609   1.534   4.313  12.407  0.5544  0.0256 -0.6383
 8732TIP3   OH247610   3.343   3.687   1.567  0.5726 -0.8277  0.1262
 8732TIP3    H147611   3.273   3.651   1.621  0.7206  0.6315  1.3551
 8732TIP3    H247612   3.365   3.770   1.609  0.5202  0.5062 -2.3184
 8733TIP3   OH247613   0.366   4.256  16.243  0.4585  0.1421 -0.8124
 8733TIP3    H147614   0.294   4.317  16.227  0.3715  0.1021 -0.5790
 8733TIP3    H247615   0.443   4.313  16.256  0.1508  0.2629  0.6004
 8734TIP3   OH247616   6.225   5.386  12.019  0.3640 -0.5362  0.0488
 8734TIP3    H147617   6.137   5.423  12.011  0.8753  0.5728 -0.6979
 8734TIP3    H247618   6.268   5.408  11.937  1.6969 -0.0747  0.8329
 8735TIP3   OH247619   5.052   4.265  14.997  0.0891 -0.9364 -0.4482
 8735TIP3    H147620   5.028   4.353  14.968 -1.2368 -1.0299  0.2972
 8735TIP3    H247621   5.134   4.247  14.952 -0.0396  0.3544 -1.2594
 8736TIP3   OH247622   2.625   2.822  14.124  0.5400 -0.2206 -0.2180
 8736TIP3    H147623   2.636   2.727  14.117  2.2692 -0.1341  0.8238
 8736TIP3    H247624   2.649   2.842  14.214  0.7510  1.2773 -0.5851
 8737TIP3   OH247625   2.071   0.824   5.312  0.3361 -0.3365  0.3099
 8737TIP3    H147626   2.043   0.826   5.403  0.1791 -2.2222  0.3413
 8737TIP3    H247627   2.069   0.916   5.284  0.2780  0.2600  2.1522
 8738TIP3   OH247628   5.326   3.732   0.182  0.0725 -0.1225 -0.2121
 8738TIP3    H147629   5.402   3.714   0.127  0.3348 -0.8253  0.3605
 8738TIP3    H247630   5.270   3.787   0.127 -0.6323 -2.4275 -2.0006
 8739TIP3   OH247631   4.269   4.505   0.691 -0.9012 -0.1074  0.3499
 8739TIP3    H147632   4.318   4.443   0.746 -0.2873 -0.3821 -0.4857
 8739TIP3    H247633   4.195   4.532   0.745  0.6254  0.9968  1.9784
 8740TIP3   OH247634   3.913   4.252   0.986 -0.7685  0.5393 -0.2828
 8740TIP3    H147635   3.948   4.171   1.023 -0.0776  0.5130 -0.9785
 8740TIP3    H247636   3.845   4.223   0.926 -0.9065  0.5114 -0.1164
 8741TIP3   OH247637   4.076   2.812   1.069 -0.2888 -0.2617 -0.0645
 8741TIP3    H147638   4.046   2.902   1.084  0.9889  0.1667  0.0799
 8741TIP3    H247639   4.064   2.768   1.153  0.4426  0.2045  0.3005
 8742TIP3   OH247640   0.522   1.328  15.790 -0.5032  0.1537  0.5028
 8742TIP3    H147641   0.460   1.398  15.771 -0.3110  0.1079 -0.3325
 8742TIP3    H247642   0.550   1.344  15.880 -0.7129  0.9516  0.4311
 8743TIP3   OH247643   0.673   3.544  13.784  0.0875 -0.2150  0.3492
 8743TIP3    H147644   0.674   3.512  13.874 -0.9541 -0.9380  0.1177
 8743TIP3    H247645   0.631   3.629  13.789 -0.6553 -0.5855  0.4486
 8744TIP3   OH247646   6.648   4.590   4.920 -0.1940 -0.1805  0.0965
 8744TIP3    H147647   6.701   4.568   4.843 -1.5302 -2.1059 -0.3554
 8744TIP3    H247648   6.650   4.511   4.974  0.3988  1.0067  1.9094
 8745TIP3   OH247649   2.260   0.200   1.123  0.0565  0.2404  0.5031
 8745TIP3    H147650   2.289   0.134   1.060 -1.0178  0.2329  0.0015
 8745TIP3    H247651   2.191   0.157   1.173 -0.2264  0.7820  0.5853
 8746TIP3   OH247652   6.486   0.522   4.191  0.5185 -0.3421  0.4116
 8746TIP3    H147653   6.557   0.484   4.140  1.4802 -0.1996  1.5979
 8746TIP3    H247654   6.422   0.451   4.200  1.2164 -0.9591  0.6120
 8747TIP3   OH247655   0.668   1.350   2.833 -0.1409  0.0337 -0.0504
 8747TIP3    H147656   0.610   1.405   2.885  2.6444  1.4808  1.8116
 8747TIP3    H247657   0.727   1.413   2.790  0.6622 -1.3766 -1.0961
 8748TIP3   OH247658   0.924   3.533   5.623  0.8457 -0.1664  0.1225
 8748TIP3    H147659   0.878   3.600   5.673  2.1508  0.6844  0.2400
 8748TIP3    H247660   1.006   3.520   5.670  1.3371 -0.6272 -0.8258
 8749TIP3   OH247661   2.327   4.151  12.966  0.3935 -0.1403 -0.0167
 8749TIP3    H147662   2.284   4.090  13.026 -1.8554  0.2121 -1.1492
 8749TIP3    H247663   2.333   4.233  13.015  0.5836 -0.4435  0.4665
 8750TIP3   OH247664   5.584   4.569   2.084  0.5929 -0.2056  0.5079
 8750TIP3    H147665   5.514   4.632   2.069 -1.4464 -2.2423  0.8870
 8750TIP3    H247666   5.649   4.588   2.017 -1.3433  0.3915 -1.3013
 8751TIP3   OH247667   5.520   5.541   0.268 -1.0713  0.0776 -0.0687
 8751TIP3    H147668   5.507   5.523   0.361  0.9975  2.0552  0.7177
 8751TIP3    H247669   5.606   5.585   0.264 -1.7143  1.3133 -2.7181
 8752TIP3   OH247670   2.503   0.722   4.082  0.6729  0.0313  0.8328
 8752TIP3    H147671   2.597   0.737   4.072  0.5420  0.4697  0.1968
 8752TIP3    H247672   2.477   0.674   4.003  0.0263  1.5956  0.0446
 8753TIP3   OH247673   2.599   4.846   1.356 -0.1145  0.4789  0.2077
 8753TIP3    H147674   2.659   4.897   1.300  0.0866  0.4277  0.3760
 8753TIP3    H247675   2.561   4.910   1.415  0.7156  0.3304  0.9337
 8754TIP3   OH247676   3.758   4.118  11.412  0.1769  0.3752 -0.4585
 8754TIP3    H147677   3.707   4.039  11.391  0.6672  0.4242 -1.9600
 8754TIP3    H247678   3.695   4.190  11.404 -0.0638  0.2141  0.0105
 8755TIP3   OH247679   0.931   5.474   3.115 -0.4508  0.0559 -0.2857
 8755TIP3    H147680   1.015   5.508   3.085 -0.1534  0.6967  1.1728
 8755TIP3    H247681   0.889   5.549   3.157 -0.4116 -0.9837  1.7216
 8756TIP3   OH247682   6.739   4.963  10.881 -0.4899  0.1772 -0.3822
 8756TIP3    H147683   6.688   4.934  10.805  2.2017 -0.1038 -2.2139
 8756TIP3    H247684   6.762   5.054  10.862 -0.9375  0.5593  0.8045
 8757TIP3   OH247685   6.543   2.471  13.885  0.3736  0.3667 -0.0914
 8757TIP3    H147686   6.615   2.472  13.822  0.4500  0.4684 -0.0029
 8757TIP3    H247687   6.530   2.563  13.909  0.0208  0.3822 -0.3279
 8758TIP3   OH247688   1.411   2.340  12.602  0.1816 -0.3247  0.0540
 8758TIP3    H147689   1.348   2.313  12.669  0.9494 -1.2156  0.4406
 8758TIP3    H247690   1.463   2.409  12.643 -0.5876  0.4864 -0.3010
 8759TIP3   OH247691   4.122   3.429  14.041  0.0377 -0.1364  0.0158
 8759TIP3    H147692   4.052   3.492  14.026  0.6239  0.4075 -0.5042
 8759TIP3    H247693   4.077   3.347  14.063 -0.7319  0.8123  2.2584
 8760TIP3   OH247694   6.298   6.550  14.276 -0.0841  0.1394 -0.0533
 8760TIP3    H147695   6.348   6.562  14.196  1.1378 -2.3641  0.2565
 8760TIP3    H247696   6.356   6.580  14.346  0.0370 -0.4935  0.1196
 8761TIP3   OH247697   1.710   6.231   2.186  0.4250 -0.3581  0.2918
 8761TIP3    H147698   1.630   6.264   2.145  0.4187  0.8274  1.2220
 8761TIP3    H247699   1.745   6.168   2.122 -0.3889  0.2926 -0.8339
 8762TIP3   OH247700   3.973   2.789   1.627 -0.4972 -0.5984 -0.2431
 8762TIP3    H147701   3.888   2.826   1.652  0.9409  2.2541  0.8261
 8762TIP3    H247702   3.998   2.733   1.701 -0.6705 -0.0373  0.2464
 8763TIP3   OH247703   0.771   6.347   0.914  0.0003  0.6245  0.2953
 8763TIP3    H147704   0.781   6.274   0.853 -0.3622  0.7115  0.1284
 8763TIP3    H247705   0.858   6.357   0.954  0.0091 -0.0122  0.4560
 8764TIP3   OH247706   4.598   0.519  15.641  0.2214 -0.1266  0.0338
 8764TIP3    H147707   4.518   0.470  15.621  0.8446 -1.2591  0.2876
 8764TIP3    H247708   4.575   0.610  15.618 -2.3498  0.2713  3.3721
 8765TIP3   OH247709   5.317   6.094   1.238 -0.0372  0.0813 -0.1777
 8765TIP3    H147710   5.335   6.063   1.327  2.8982 -1.5686 -1.1748
 8765TIP3    H247711   5.388   6.157   1.220 -2.0612  2.3940 -0.5451
 8766TIP3   OH247712   0.028   3.316   0.834 -0.2632 -0.0717  1.0671
 8766TIP3    H147713   0.040   3.246   0.769 -1.4553  0.6553  0.0123
 8766TIP3    H247714   0.117   3.343   0.856  0.2511  1.0934 -1.9002
 8767TIP3   OH247715   5.780   6.719  13.641 -0.1992  0.4751 -0.3417
 8767TIP3    H147716   5.802   6.802  13.599  0.6285  1.2830  1.5800
 8767TIP3    H247717   5.856   6.663  13.623 -1.8420 -0.9237 -3.9354
 8768TIP3   OH247718   0.665   3.967  12.815 -0.2430 -0.2701  0.2070
 8768TIP3    H147719   0.739   3.944  12.872  0.2688 -0.7843 -0.6430
 8768TIP3    H247720   0.591   3.973  12.875  0.4421  0.0689  1.0565
 8769TIP3   OH247721   0.360   2.490   2.043  0.0060 -0.3737  0.3031
 8769TIP3    H147722   0.310   2.558   2.088  1.0893  0.0668  0.8694
 8769TIP3    H247723   0.339   2.410   2.091 -0.3529 -0.2387  0.3768
 8770TIP3   OH247724   5.264   5.172  14.480 -0.2723  0.3037  0.4734
 8770TIP3    H147725   5.305   5.212  14.556 -1.7383  2.1332  0.3863
 8770TIP3    H247726   5.177   5.212  14.477 -0.3117  0.1568 -2.0556
 8771TIP3   OH247727   3.700   1.123   6.426  0.4004 -0.5170  0.7920
 8771TIP3    H147728   3.779   1.084   6.464  0.6975 -0.0500  0.6684
 8771TIP3    H247729   3.707   1.216   6.448  0.6425 -0.2142 -0.5180
 8772TIP3   OH247730   3.912   1.470  15.719  0.1131  0.5589  0.0206
 8772TIP3    H147731   3.996   1.512  15.735  0.6945 -0.0503 -1.2821
 8772TIP3    H247732   3.928   1.377  15.738 -0.4819  0.5467  0.4918
 8773TIP3   OH247733   0.496   3.322  12.994 -0.2583  0.3057 -0.1484
 8773TIP3    H147734   0.431   3.377  12.950 -0.9811 -0.3056  0.1453
 8773TIP3    H247735   0.553   3.384  13.039 -0.4766  0.8612 -0.6287
 8774TIP3   OH247736   0.387   5.731   0.940  0.0041  0.7561 -0.3329
 8774TIP3    H147737   0.392   5.684   0.856 -0.3715  0.6663 -0.3038
 8774TIP3    H247738   0.406   5.823   0.917  0.2026  0.6826 -0.4688
 8775TIP3   OH247739   1.130   4.585   1.466  0.2637 -0.5425  0.3378
 8775TIP3    H147740   1.074   4.608   1.393  1.2130  0.0892 -0.2117
 8775TIP3    H247741   1.127   4.489   1.469  1.0662 -0.6500 -1.2426
 8776TIP3   OH247742   2.767   1.354  16.152 -0.2805 -0.3761  0.4480
 8776TIP3    H147743   2.770   1.293  16.225  0.9978  0.3207  1.0021
 8776TIP3    H247744   2.845   1.335  16.101 -0.7476 -0.3211 -0.3122
 8777TIP3   OH247745   6.351   5.457  12.250  0.6843 -0.2768  0.4481
 8777TIP3    H147746   6.413   5.387  12.270  1.1123 -0.2885 -0.8298
 8777TIP3    H247747   6.312   5.432  12.167 -0.9753 -0.1992  1.1537
 8778TIP3   OH247748   1.402   1.811   5.811  0.0893 -0.2909 -0.2250
 8778TIP3    H147749   1.379   1.815   5.903  0.9635  1.2547 -0.0364
 8778TIP3    H247750   1.372   1.725   5.782 -1.6071 -0.1854  1.1055
 8779TIP3   OH247751   6.280   0.359   2.675  0.1296 -0.2934  0.7572
 8779TIP3    H147752   6.312   0.392   2.758  1.9803 -0.2666  0.0827
 8779TIP3    H247753   6.321   0.416   2.609  0.8705 -1.9405 -0.2791
 8780TIP3   OH247754   4.047   0.526   1.214  0.8273 -0.0404  0.0313
 8780TIP3    H147755   4.113   0.590   1.239  3.0533 -2.5207  0.9420
 8780TIP3    H247756   4.021   0.484   1.296 -0.3893 -0.5259 -0.5650
 8781TIP3   OH247757   6.036   1.298   1.222 -0.3847 -0.1316 -0.1086
 8781TIP3    H147758   6.006   1.387   1.205  1.6746  0.4790 -0.8103
 8781TIP3    H247759   5.983   1.243   1.163  0.6146  1.0330 -2.2008
 8782TIP3   OH247760   2.263   2.706   3.240  0.3831 -0.3931  0.2024
 8782TIP3    H147761   2.273   2.767   3.166 -1.8269  0.9308  0.8948
 8782TIP3    H247762   2.335   2.644   3.230  0.1888 -0.2655 -3.0524
 8783TIP3   OH247763   0.987   4.326   0.185  0.6259 -0.0766 -0.4971
 8783TIP3    H147764   0.979   4.230   0.184  1.2386 -0.1806 -2.9665
 8783TIP3    H247765   1.081   4.342   0.196  0.6735  0.1851 -1.2222
 8784TIP3   OH247766   0.577   6.397  15.089  0.3043 -0.4018  0.2488
 8784TIP3    H147767   0.616   6.460  15.028  0.6310  1.1993  2.0303
 8784TIP3    H247768   0.550   6.324  15.033  2.5250  0.0220 -1.5468
 8785TIP3   OH247769   5.714   6.589   5.366  0.9078 -0.2462  0.0547
 8785TIP3    H147770   5.781   6.564   5.429  0.4229 -0.4492  0.4945
 8785TIP3    H247771   5.632   6.584   5.415  0.6682  1.0442 -0.1725
 8786TIP3   OH247772   1.593   5.992   1.968  0.2522  0.2629  0.4512
 8786TIP3    H147773   1.683   6.019   1.953  0.2075  1.1698  1.6787
 8786TIP3    H247774   1.553   5.991   1.881  0.7712  2.3302  0.1462
 8787TIP3   OH247775   0.099   2.801   6.025 -0.7170 -0.6659  0.0761
 8787TIP3    H147776   0.033   2.863   5.994 -1.6099 -1.3047  0.6362
 8787TIP3    H247777   0.092   2.726   5.966  0.1191 -0.3975 -0.3855
 8788TIP3   OH247778   3.317   6.330   3.895  0.5084 -0.1016 -0.1395
 8788TIP3    H147779   3.352   6.292   3.815 -0.5647  0.4922 -0.9239
 8788TIP3    H247780   3.309   6.423   3.875 -0.6210 -0.0878  0.3196
 8789TIP3   OH247781   0.580   3.099  11.916 -0.4095 -0.0743 -0.8412
 8789TIP3    H147782   0.516   3.158  11.957  0.9020 -0.7592  2.5040
 8789TIP3    H247783   0.634   3.157  11.863 -0.8603  1.2954  0.1307
 8790TIP3   OH247784   3.707   1.774   3.906 -0.3166 -0.1546  0.0945
 8790TIP3    H147785   3.654   1.839   3.860 -1.3100 -0.8531  0.2225
 8790TIP3    H247786   3.718   1.810   3.994  0.0875  0.3543 -0.1587
 8791TIP3   OH247787   2.268   1.049   5.603 -0.1422 -0.1128  0.1725
 8791TIP3    H147788   2.259   1.074   5.695  0.8708 -1.6916  0.7323
 8791TIP3    H247789   2.185   1.006   5.582 -0.3679  0.2307  0.3437
 8792TIP3   OH247790   5.262   3.288  15.896  0.1120  0.0342  0.5390
 8792TIP3    H147791   5.336   3.343  15.921 -0.0508 -0.1057  1.3321
 8792TIP3    H247792   5.189   3.349  15.889  0.4309  0.2991 -0.9806
 8793TIP3   OH247793   2.361   5.209  13.723  0.1024 -0.2453 -0.1728
 8793TIP3    H147794   2.420   5.253  13.661  0.4509  2.6750  1.9742
 8793TIP3    H247795   2.367   5.262  13.803 -3.0650 -1.6832  1.2017
 8794TIP3   OH247796   4.382   3.849  15.307  0.2484  0.3535  0.3024
 8794TIP3    H147797   4.291   3.872  15.295  0.4903  1.0721 -0.2094
 8794TIP3    H247798   4.399   3.783  15.239 -0.2742 -0.9049  1.3609
 8795TIP3   OH247799   1.986   1.473   4.299  0.0941 -0.1559  0.4788
 8795TIP3    H147800   1.916   1.535   4.320  0.8937  1.0271 -0.2690
 8795TIP3    H247801   1.998   1.482   4.205  1.7592  0.2214  0.6982
 8796TIP3   OH247802   5.208   0.770   4.021  0.1717  0.3041 -0.4998
 8796TIP3    H147803   5.301   0.746   4.017  0.5596  1.5133  0.6359
 8796TIP3    H247804   5.180   0.772   3.930  1.3540  0.2823 -0.8797
 8797TIP3   OH247805   1.541   1.345   4.572  0.0425  0.2198 -0.5640
 8797TIP3    H147806   1.595   1.293   4.630 -0.5683 -0.9237 -0.9892
 8797TIP3    H247807   1.546   1.300   4.487 -0.9747  0.5027 -0.7920
 8798TIP3   OH247808   4.001   3.617   3.015 -0.4766 -0.1429 -0.2025
 8798TIP3    H147809   4.006   3.681   2.944  1.2889  0.1216  0.1229
 8798TIP3    H247810   4.090   3.613   3.051 -1.2655 -0.3898  1.8864
 8799TIP3   OH247811   4.209   1.681  14.328 -0.0355  0.4052  0.0432
 8799TIP3    H147812   4.233   1.667  14.236 -0.3367 -2.0900  0.2703
 8799TIP3    H247813   4.115   1.701  14.325 -0.2261 -0.4578 -0.1753
 8800TIP3   OH247814   4.709   0.501   3.451 -0.9711 -0.7369 -0.5058
 8800TIP3    H147815   4.663   0.422   3.423  1.1149 -2.0100 -0.5897
 8800TIP3    H247816   4.745   0.538   3.370 -0.5100 -0.6713 -0.2741
 8801TIP3   OH247817   6.666   4.454  12.016  0.1290  0.2870  0.3973
 8801TIP3    H147818   6.748   4.475  11.972 -0.1821  2.7086  0.8404
 8801TIP3    H247819   6.623   4.539  12.030 -1.5161 -0.7187  1.9762
 8802TIP3   OH247820   4.628   3.805  13.645  0.1969  0.4476 -0.1433
 8802TIP3    H147821   4.630   3.885  13.697  1.5560 -0.3108  1.0357
 8802TIP3    H247822   4.536   3.777  13.648 -0.2949  1.9005 -0.5441
 8803TIP3   OH247823   5.477   6.752  16.491 -0.5201  0.3077  0.3326
 8803TIP3    H147824   5.431   6.820  16.541 -2.1023 -1.2694  1.1153
 8803TIP3    H247825   5.412   6.720  16.428 -0.6773 -2.1280  1.6078
 8804TIP3   OH247826   4.714   1.892   1.650  0.3337  0.0274 -0.0486
 8804TIP3    H147827   4.729   1.856   1.562 -1.8040  2.4897 -1.5921
 8804TIP3    H247828   4.678   1.819   1.700 -0.9351 -0.8361 -2.0731
 8805TIP3   OH247829   0.387   3.966   2.339  0.0162  0.1255  0.3520
 8805TIP3    H147830   0.392   3.875   2.366  0.4622  0.0619  0.0674
 8805TIP3    H247831   0.311   4.001   2.385 -1.8519 -1.0964 -1.6233
 8806TIP3   OH247832   3.865   0.459   2.957  0.5563 -0.5200  0.7182
 8806TIP3    H147833   3.928   0.476   3.026  0.5726 -0.5769  0.7177
 8806TIP3    H247834   3.782   0.447   3.003  0.7726 -1.7334  0.8396
 8807TIP3   OH247835   3.227   2.030   0.667 -0.3082  0.5895 -0.0758
 8807TIP3    H147836   3.220   1.940   0.633  0.3166  0.2854  0.5766
 8807TIP3    H247837   3.139   2.050   0.699 -0.2863 -0.0678  0.4265
 8808TIP3   OH247838   4.314   0.642  13.068  0.1284  0.4715  0.0468
 8808TIP3    H147839   4.406   0.615  13.073  0.1792  0.6216 -0.0999
 8808TIP3    H247840   4.290   0.664  13.158  0.8482  2.4961 -0.2047
 8809TIP3   OH247841   3.291   3.498  14.447  0.0272 -0.0670  0.2434
 8809TIP3    H147842   3.328   3.550  14.375 -0.1950 -0.2230  0.0148
 8809TIP3    H247843   3.231   3.437  14.404 -1.1072  0.7093  0.6770
 8810TIP3   OH247844   4.858   1.915   0.745 -0.3222 -0.3133  0.1261
 8810TIP3    H147845   4.949   1.886   0.757 -0.3074  0.3803  2.1956
 8810TIP3    H247846   4.823   1.857   0.678  1.0608 -1.9869  0.7597
 8811TIP3   OH247847   2.430   6.019   0.113 -0.3780 -0.3725 -0.1208
 8811TIP3    H147848   2.494   5.973   0.167 -0.4818  0.6839  0.9483
 8811TIP3    H247849   2.356   6.034   0.172 -0.6209  0.5388 -0.6450
 8812TIP3   OH247850   2.181   2.118  14.428  0.9765 -0.1632  0.4627
 8812TIP3    H147851   2.268   2.088  14.455  0.0404 -1.5066  2.2454
 8812TIP3    H247852   2.158   2.186  14.491  0.2404 -0.7420  0.8460
 8813TIP3   OH247853   3.200   2.011  12.510  0.0542 -0.5002  1.2630
 8813TIP3    H147854   3.112   2.047  12.520 -0.2918 -1.0595  0.3738
 8813TIP3    H247855   3.187   1.916  12.509  0.7109 -0.5956  1.5409
 8814TIP3   OH247856   4.418   1.689  16.739 -0.2001 -0.2775 -0.0454
 8814TIP3    H147857   4.474   1.767  16.736 -0.0029 -0.4475 -1.1970
 8814TIP3    H247858   4.380   1.683  16.651 -0.1385 -1.5444 -0.0008
 8815TIP3   OH247859   3.212   0.175  14.799 -0.0994  0.0974 -0.1899
 8815TIP3    H147860   3.202   0.270  14.789 -0.5558  0.1157  0.3545
 8815TIP3    H247861   3.300   0.164  14.835 -0.4929  0.4123  0.9018
 8816TIP3   OH247862   0.686   1.965   5.904 -0.6307 -0.2577  0.1649
 8816TIP3    H147863   0.663   1.883   5.861 -1.3326 -0.1389  0.3101
 8816TIP3    H247864   0.641   1.962   5.989 -2.4676  1.2050 -0.6794
 8817TIP3   OH247865   0.712   2.975   2.839  0.2039 -0.4773  0.1261
 8817TIP3    H147866   0.625   2.971   2.798  0.2037  1.8240 -0.2793
 8817TIP3    H247867   0.712   2.904   2.903 -2.1297 -0.3282  0.3771
 8818TIP3   OH247868   6.142   1.913  11.542 -0.1505 -0.2293  0.6925
 8818TIP3    H147869   6.100   1.972  11.479 -0.8980 -1.0419  0.4165
 8818TIP3    H247870   6.090   1.833  11.538  0.3739 -0.6260  1.6550
 8819TIP3   OH247871   4.400   0.347  14.811  0.0708  0.0296 -0.3453
 8819TIP3    H147872   4.472   0.410  14.811 -0.3163  0.6010  2.3895
 8819TIP3    H247873   4.442   0.262  14.809  0.7903  0.3652  0.2018
 8820TIP3   OH247874   1.844   4.452  12.137 -0.0692 -0.5992  0.8088
 8820TIP3    H147875   1.931   4.443  12.099 -0.9496 -1.9381 -1.0034
 8820TIP3    H247876   1.848   4.401  12.218  0.4143 -1.9596 -0.0414
 8821TIP3   OH247877   0.977   3.533   0.921 -0.3377  0.2813 -0.0602
 8821TIP3    H147878   0.945   3.461   0.867 -1.6967 -0.6530  1.8637
 8821TIP3    H247879   0.958   3.612   0.870  0.5685 -0.6527 -1.9143
 8822TIP3   OH247880   1.000   1.926  12.059  0.1256 -0.3781 -0.0403
 8822TIP3    H147881   0.917   1.890  12.027 -0.1289  0.4378 -0.3318
 8822TIP3    H247882   0.976   1.980  12.133  0.2963  0.4706 -0.5927
 8823TIP3   OH247883   5.370   0.553  16.626  0.1215 -0.5271 -0.4964
 8823TIP3    H147884   5.379   0.570  16.720  1.2870 -0.7133 -0.5585
 8823TIP3    H247885   5.388   0.637  16.585  1.7496 -0.9178 -0.6292
 8824TIP3   OH247886   2.269   4.302   3.007  0.2864  0.3902 -0.5287
 8824TIP3    H147887   2.201   4.248   2.968  0.6179  0.9384 -1.9310
 8824TIP3    H247888   2.335   4.239   3.037  0.2742 -0.0226 -1.3602
 8825TIP3   OH247889   4.890   0.760   5.342 -0.2319 -0.2811  0.6739
 8825TIP3    H147890   4.952   0.690   5.323  0.5246  0.7164 -0.6950
 8825TIP3    H247891   4.842   0.729   5.419  1.1892 -1.5693  1.0966
 8826TIP3   OH247892   1.197   0.265   3.783 -0.6023 -0.1682  0.2262
 8826TIP3    H147893   1.256   0.263   3.858 -1.0393  1.8339  0.6753
 8826TIP3    H247894   1.169   0.174   3.772  1.8239 -1.0333  0.5534
 8827TIP3   OH247895   3.223   0.262   0.998 -0.4011  0.2036  0.2870
 8827TIP3    H147896   3.161   0.216   0.942  1.2266 -0.9377 -0.6641
 8827TIP3    H247897   3.194   0.353   0.997 -1.7520 -0.2121 -0.5014
 8828TIP3   OH247898   6.098   4.934  13.929 -0.1144 -0.3663  0.2986
 8828TIP3    H147899   6.075   4.842  13.928  0.2127 -0.4505  0.3943
 8828TIP3    H247900   6.187   4.937  13.893 -0.4461  0.0050 -0.5202
 8829TIP3   OH247901   4.142   6.237  11.124 -0.3187  0.9216 -0.2741
 8829TIP3    H147902   4.093   6.262  11.046  0.3357  2.1554 -0.3198
 8829TIP3    H247903   4.210   6.177  11.091 -1.0146  0.1821 -0.3930
 8830TIP3   OH247904   1.622   1.257  12.475  0.1684 -0.2334  0.3771
 8830TIP3    H147905   1.659   1.324  12.418 -0.8668  0.9729  1.0589
 8830TIP3    H247906   1.635   1.291  12.564 -1.3834 -0.3492  0.6815
 8831TIP3   OH247907   5.813   5.403  12.701 -0.1266  0.2126  0.3465
 8831TIP3    H147908   5.824   5.315  12.738  1.2616  0.2995  0.2063
 8831TIP3    H247909   5.793   5.388  12.608 -0.9546  0.0400  0.5458
 8832TIP3   OH247910   2.673   2.868  14.408 -0.2061  0.0962  0.2134
 8832TIP3    H147911   2.616   2.943  14.426 -0.8433 -0.0370 -1.1109
 8832TIP3    H247912   2.621   2.792  14.434 -0.3495  0.0115 -0.3164
 8833TIP3   OH247913   1.168   3.859   4.021  0.2791  0.1204  0.2844
 8833TIP3    H147914   1.156   3.951   3.995 -2.0238  0.0885  1.0330
 8833TIP3    H247915   1.260   3.855   4.050  0.3910  2.2270  0.4086
 8834TIP3   OH247916   6.363   3.902  12.801  0.0247 -0.0013 -0.4554
 8834TIP3    H147917   6.298   3.971  12.790 -1.4898 -0.8506  2.0220
 8834TIP3    H247918   6.346   3.841  12.729  0.0684  1.2124 -1.5203
 8835TIP3   OH247919   2.613   1.275  13.390 -0.3304  0.0714  0.1565
 8835TIP3    H147920   2.541   1.329  13.358  0.6894  0.1087 -2.3032
 8835TIP3    H247921   2.582   1.185  13.380 -0.1119  0.0907 -0.8127
 8836TIP3   OH247922   0.374   0.056   2.146 -0.2184 -1.0966  0.4925
 8836TIP3    H147923   0.407   0.144   2.130 -3.1839 -0.2547 -1.9258
 8836TIP3    H247924   0.438  -0.002   2.104  1.0058 -0.0182  0.8109
 8837TIP3   OH247925   0.221   4.218   0.134  0.2718  0.2244  0.1948
 8837TIP3    H147926   0.135   4.177   0.129  0.5757 -0.5414  1.0339
 8837TIP3    H247927   0.267   4.171   0.203  1.9270 -0.4255 -1.2611
 8838TIP3   OH247928   4.477   4.486  14.334 -0.1897 -0.1817 -0.2114
 8838TIP3    H147929   4.490   4.557  14.272 -1.2978 -1.0255 -1.4856
 8838TIP3    H247930   4.383   4.488  14.353 -0.4092 -1.7838 -0.9380
 8839TIP3   OH247931   6.554   0.279  13.374 -0.0464 -0.7435  0.2965
 8839TIP3    H147932   6.487   0.249  13.436  0.0941 -2.8067 -0.4631
 8839TIP3    H247933   6.637   0.248  13.411  0.2302 -0.3713 -0.0039
 8840TIP3   OH247934   5.449   3.360  14.590  0.2264  0.0794  0.6622
 8840TIP3    H147935   5.417   3.407  14.513  2.0810  1.1861  0.5012
 8840TIP3    H247936   5.417   3.271  14.579  1.6810 -0.1938 -2.2165
 8841TIP3   OH247937   4.339   2.442   4.851 -0.8444 -0.6143  0.0691
 8841TIP3    H147938   4.411   2.460   4.912 -1.4340  0.6178  0.4368
 8841TIP3    H247939   4.382   2.423   4.768 -0.0798 -0.4855  0.4239
 8842TIP3   OH247940   1.526   1.056  11.688 -0.4939 -0.2986 -0.6559
 8842TIP3    H147941   1.473   0.982  11.717 -0.1298  0.2602  1.6486
 8842TIP3    H247942   1.489   1.131  11.735  1.5682  0.2918  0.1479
 8843TIP3   OH247943   4.423   0.317   1.965 -0.4091 -0.4128  0.2850
 8843TIP3    H147944   4.398   0.343   2.054 -1.6967  0.8542 -0.4139
 8843TIP3    H247945   4.519   0.316   1.967 -0.3878  0.8543  1.3582
 8844TIP3   OH247946   0.573   0.048  11.712  0.5351  0.6821 -0.0399
 8844TIP3    H147947   0.537   0.113  11.651 -0.0416  1.4916  1.1157
 8844TIP3    H247948   0.511   0.047  11.784  1.3914  0.0108  0.7039
 8845TIP3   OH247949   1.634   4.206  16.105  0.5838 -0.0363  0.3525
 8845TIP3    H147950   1.626   4.271  16.035  1.2348  1.0718  1.2790
 8845TIP3    H247951   1.721   4.221  16.141 -0.0418 -0.0591  1.9128
 8846TIP3   OH247952   1.070   3.404  12.328 -0.0945  0.1367 -0.1838
 8846TIP3    H147953   1.152   3.382  12.372  1.0696  0.7257 -1.9721
 8846TIP3    H247954   1.047   3.324  12.280 -0.7342 -0.1094  0.5023
 8847TIP3   OH247955   4.155   2.705  16.088  0.4178  0.0544 -0.0303
 8847TIP3    H147956   4.139   2.736  15.999 -0.6233  0.2479  0.2014
 8847TIP3    H247957   4.110   2.769  16.144 -0.7429 -1.1713  0.5106
 8848TIP3   OH247958   4.588   2.154   4.096 -0.0405 -0.4675 -0.5060
 8848TIP3    H147959   4.677   2.180   4.073 -0.4573 -0.1863 -1.8491
 8848TIP3    H247960   4.537   2.235   4.090 -0.2296 -0.4162  1.2270
 8849TIP3   OH247961   0.649   3.444  14.032  0.0739  0.1353 -0.0668
 8849TIP3    H147962   0.689   3.360  14.056 -0.8470 -0.0012  1.0583
 8849TIP3    H247963   0.604   3.473  14.111 -1.6350  0.5155 -1.1223
 8850TIP3   OH247964   4.936   6.603  11.616  0.9063  0.5733 -0.2129
 8850TIP3    H147965   4.874   6.531  11.601  0.6212  0.4725  1.3283
 8850TIP3    H247966   4.961   6.594  11.708  2.8565  0.9046 -0.6747
 8851TIP3   OH247967   5.389   5.360  14.299 -0.3521 -0.4181  0.0784
 8851TIP3    H147968   5.405   5.275  14.340  0.8295 -0.0179  0.4851
 8851TIP3    H247969   5.304   5.350  14.256 -0.0798 -1.9061 -0.1675
 8852TIP3   OH247970   4.290   3.832   0.675 -0.3317  0.4075  0.1193
 8852TIP3    H147971   4.364   3.811   0.732 -0.8238 -1.5421  0.1138
 8852TIP3    H247972   4.314   3.794   0.590 -0.9999  0.4525 -0.0948
 8853TIP3   OH247973   6.429   0.215   3.979  0.4780 -0.5321  0.0883
 8853TIP3    H147974   6.381   0.195   4.059 -2.3929 -1.8859 -1.7808
 8853TIP3    H247975   6.433   0.310   3.977 -0.7553 -0.4177  1.1489
 8854TIP3   OH247976   3.273   6.189  10.524 -0.5544  0.1054 -0.2093
 8854TIP3    H147977   3.279   6.275  10.565 -1.5486  0.1627 -0.1651
 8854TIP3    H247978   3.323   6.197  10.443  1.1875  0.0816  0.8136
 8855TIP3   OH247979   5.642   3.205  14.168  0.3574  0.1225 -0.2809
 8855TIP3    H147980   5.708   3.139  14.187  1.4816  1.1331 -0.5677
 8855TIP3    H247981   5.671   3.246  14.086 -1.8229 -0.9071 -1.6629
 8856TIP3   OH247982   6.414   6.032  17.152  0.4069 -0.1512 -0.0845
 8856TIP3    H147983   6.482   6.022  17.085  0.8972 -0.1022  0.4035
 8856TIP3    H247984   6.368   6.113  17.128 -0.3530 -0.8814 -1.1842
 8857TIP3   OH247985   2.975   3.149  11.290 -0.4770 -0.2711  0.4311
 8857TIP3    H147986   2.965   3.058  11.264  3.7963 -1.2756  1.5355
 8857TIP3    H247987   2.990   3.196  11.208 -3.0420 -0.3923 -0.1780
 8858TIP3   OH247988   6.067   5.266   3.378  0.6431 -0.1526  0.1214
 8858TIP3    H147989   6.003   5.309   3.321 -1.6667 -1.7747  1.3086
 8858TIP3    H247990   6.037   5.286   3.467  0.6490 -2.4706  0.6997
 8859TIP3   OH247991   1.644   4.457   5.784  0.4703 -0.3477  0.5732
 8859TIP3    H147992   1.701   4.380   5.775  2.4378  1.0698  0.2483
 8859TIP3    H247993   1.655   4.484   5.875 -0.1780 -0.4205  0.6729
 8860TIP3   OH247994   0.799   4.426  12.216 -0.0248  0.6132  0.6923
 8860TIP3    H147995   0.847   4.363  12.270 -0.9337 -1.3145 -0.6373
 8860TIP3    H247996   0.849   4.430  12.134 -0.7929  0.4564  0.2064
 8861TIP3   OH247997   1.243   3.584   1.026  0.2389  0.5955 -0.3735
 8861TIP3    H147998   1.266   3.510   1.082  2.0264  0.9314 -0.5926
 8861TIP3    H247999   1.153   3.605   1.049  0.1768 -0.7372  0.7129
 8862TIP3   OH248000   3.686   3.004   0.626 -0.0587 -0.0213 -0.0166
 8862TIP3    H148001   3.714   2.912   0.629 -2.1951 -0.8143 -1.6638
 8862TIP3    H248002   3.749   3.046   0.568  0.9520 -0.3910  0.7604
 8863TIP3   OH248003   6.392   2.584  16.939  0.2020  0.1308 -0.8415
 8863TIP3    H148004   6.322   2.554  16.997 -1.4473  2.5720 -1.3915
 8863TIP3    H248005   6.466   2.600  16.997 -0.2480 -0.8410  0.0308
 8864TIP3   OH248006   6.250   3.871   5.479 -0.1846 -0.2388 -0.5346
 8864TIP3    H148007   6.155   3.874   5.466 -0.5491  0.6480  1.9225
 8864TIP3    H248008   6.261   3.837   5.568  1.8953 -1.6827 -1.2678
 8865TIP3   OH248009   5.642   4.668  13.259 -0.1697  0.6940 -0.0752
 8865TIP3    H148010   5.631   4.595  13.199 -1.5647 -1.2417  2.3261
 8865TIP3    H248011   5.735   4.688  13.257  0.2511 -1.1883 -0.8017
 8866TIP3   OH248012   1.346   4.585   3.607  0.1377  0.2366 -0.1634
 8866TIP3    H148013   1.306   4.640   3.540  0.8003  1.1798  0.2006
 8866TIP3    H248014   1.427   4.555   3.568  0.4150  0.6008  0.1290
 8867TIP3   OH248015   3.574   4.301  12.894 -0.4463  0.0705  0.0328
 8867TIP3    H148016   3.551   4.266  12.808 -0.3954  1.2984 -0.5025
 8867TIP3    H248017   3.495   4.347  12.923  0.7036  2.9434 -1.1027
 8868TIP3   OH248018   0.247   3.651   5.187 -0.3445 -0.6811  0.2712
 8868TIP3    H148019   0.276   3.666   5.097  0.6933  1.0554  0.8259
 8868TIP3    H248020   0.292   3.572   5.215  0.0988 -0.6800 -0.4336
 8869TIP3   OH248021   5.331   4.553   0.647  0.4297 -0.3758  0.0648
 8869TIP3    H148022   5.331   4.473   0.594 -1.5753 -0.2595 -0.1982
 8869TIP3    H248023   5.349   4.623   0.585 -0.7621 -0.3571 -0.2864
 8870TIP3   OH248024   5.848   3.566  11.800 -0.4737  0.7373  0.1893
 8870TIP3    H148025   5.777   3.576  11.864 -0.7555 -0.5311  0.1115
 8870TIP3    H248026   5.895   3.488  11.829 -1.1323 -0.3972 -1.5949
 8871TIP3   OH248027   4.568   6.239  16.947  0.1849  0.6106  0.1315
 8871TIP3    H148028   4.639   6.195  16.994  0.5629  1.9321  0.8456
 8871TIP3    H248029   4.573   6.330  16.975 -4.0037  0.2645  3.1221
 8872TIP3   OH248030   2.201   2.691  13.442  0.0325 -0.5091  0.4749
 8872TIP3    H148031   2.230   2.753  13.375 -0.1463 -1.4194 -0.4677
 8872TIP3    H248032   2.175   2.746  13.516  0.1080  0.5203 -0.2461
 8873TIP3   OH248033   5.335   2.967   2.853  0.4140 -0.9153  0.0724
 8873TIP3    H148034   5.365   3.003   2.936  0.6065 -0.3888 -0.2241
 8873TIP3    H248035   5.341   2.872   2.865 -3.0180 -1.0561  1.9699
 8874TIP3   OH248036   0.317   5.436   5.590 -0.4226 -0.1730  0.2341
 8874TIP3    H148037   0.375   5.484   5.649 -1.4683  0.3456  0.8627
 8874TIP3    H248038   0.251   5.500   5.564 -0.2581 -0.5212 -1.1459
 8875TIP3   OH248039   6.312   5.799   3.134  0.2728 -0.5503  0.8637
 8875TIP3    H148040   6.234   5.832   3.177  0.7569  1.2348  0.4743
 8875TIP3    H248041   6.381   5.806   3.201  0.5237 -0.0517  0.5637
 8876TIP3   OH248042   3.598   4.798  10.918  0.2707 -0.0099 -0.0813
 8876TIP3    H148043   3.691   4.821  10.925  0.2676 -0.1200  0.3979
 8876TIP3    H248044   3.554   4.863  10.972  0.0847 -0.0618 -0.1711
 8877TIP3   OH248045   0.471   5.676   2.450  0.0854  0.2964 -0.3639
 8877TIP3    H148046   0.409   5.632   2.508  0.6003 -2.6958 -1.8882
 8877TIP3    H248047   0.557   5.651   2.483  0.3896 -1.1374 -2.0778
 8878TIP3   OH248048   5.934   6.678  11.640 -0.3676  0.7726 -0.3170
 8878TIP3    H148049   5.933   6.585  11.660  2.4326  0.7076 -0.1046
 8878TIP3    H248050   5.924   6.721  11.725 -0.3106  0.6302 -0.2376
 8879TIP3   OH248051   2.970   2.323  12.492  1.1035  0.7233  0.0453
 8879TIP3    H148052   3.056   2.340  12.531  1.5060 -0.4099 -0.3220
 8879TIP3    H248053   2.946   2.406  12.450  1.0020  1.7319  1.9990
 8880TIP3   OH248054   0.777   3.755  15.948 -0.3702 -0.3640 -0.7466
 8880TIP3    H148055   0.737   3.792  16.027 -0.6270 -0.0060 -1.0390
 8880TIP3    H248056   0.708   3.761  15.882  0.2359  0.4443 -1.3129
 8881TIP3   OH248057   0.644   2.693  11.054 -0.1812 -0.4261  0.1037
 8881TIP3    H148058   0.684   2.775  11.084 -0.7320 -0.9323  2.4182
 8881TIP3    H248059   0.709   2.655  10.995  0.1318  1.5956 -0.9405
 8882TIP3   OH248060   0.261   6.184  10.926 -0.4744 -0.5436 -0.2579
 8882TIP3    H148061   0.228   6.156  10.840  0.7213 -3.7228  0.1660
 8882TIP3    H248062   0.346   6.224  10.906 -0.9509  0.2589 -0.6921
 8883TIP3   OH248063   4.203   0.743   5.503 -0.9870  0.3370 -0.2545
 8883TIP3    H148064   4.154   0.662   5.497 -3.0347  1.5275 -0.6413
 8883TIP3    H248065   4.137   0.812   5.491  0.7000  2.0502 -0.1924
 8884TIP3   OH248066   3.091   2.538  12.003 -0.1587  0.3155  0.2337
 8884TIP3    H148067   3.168   2.587  11.976  0.2702  0.1169  1.0682
 8884TIP3    H248068   3.076   2.475  11.931  0.2317  0.5936 -0.0956
 8885TIP3   OH248069   3.850   2.765   2.091 -0.6174  0.0154 -0.2573
 8885TIP3    H148070   3.855   2.849   2.044 -1.9752  0.4571  0.3391
 8885TIP3    H248071   3.821   2.788   2.179  1.5869 -0.8344  0.7766
 8886TIP3   OH248072   4.942   5.291  13.382  0.5786  0.0410 -0.5716
 8886TIP3    H148073   4.949   5.207  13.337 -0.5300 -0.1931 -0.3347
 8886TIP3    H248074   4.885   5.343  13.324  2.0469  0.9875 -1.2203
 8887TIP3   OH248075   1.893   2.764   6.062 -0.1219 -0.0008  0.1551
 8887TIP3    H148076   1.824   2.829   6.044 -0.2088 -0.4045 -1.0736
 8887TIP3    H248077   1.928   2.789   6.147 -2.7642 -0.6176  1.5337
 8888TIP3   OH248078   1.737   6.338  10.981 -0.1503  0.5346 -0.2720
 8888TIP3    H148079   1.754   6.249  11.013 -0.9569  0.2703 -0.5638
 8888TIP3    H248080   1.666   6.370  11.035  0.4923  1.2179  0.1917
 8889TIP3   OH248081   2.295   3.675  10.436 -0.4467  0.4332 -0.7757
 8889TIP3    H148082   2.358   3.613  10.399  0.1748  1.0418 -0.7585
 8889TIP3    H248083   2.229   3.619  10.478 -0.5216 -0.2338 -1.7502
 8890TIP3   OH248084   0.835   5.023  11.851  0.1167 -0.3339 -0.2304
 8890TIP3    H148085   0.853   4.998  11.942 -2.2591  1.7568  0.9694
 8890TIP3    H248086   0.908   5.079  11.826 -0.6670  1.6946  1.6607
 8891TIP3   OH248087   5.678   6.298  15.628 -0.6208  0.0830  0.1198
 8891TIP3    H148088   5.728   6.216  15.630 -0.5796  0.1126  1.4063
 8891TIP3    H248089   5.737   6.362  15.589 -0.7997 -0.5785 -1.2833
 8892TIP3   OH248090   1.994   1.014  11.904  0.2305 -0.2766  0.1897
 8892TIP3    H148091   2.061   0.986  11.842 -0.1988  0.0834 -0.4415
 8892TIP3    H248092   2.044   1.047  11.980  0.7674 -0.0669 -0.2476
 8893TIP3   OH248093   5.902   5.388   1.212  0.1812 -0.3546  0.1160
 8893TIP3    H148094   5.852   5.460   1.174  1.8645 -0.4528 -2.5451
 8893TIP3    H248095   5.977   5.429   1.253  0.5371 -0.5066 -0.3765
 8894TIP3   OH248096   4.922   0.781   1.933 -0.3039 -0.5242  0.4697
 8894TIP3    H148097   4.927   0.722   1.858  0.7668  2.1194 -1.7064
 8894TIP3    H248098   5.005   0.829   1.932 -0.8283  0.5639  2.5658
 8895TIP3   OH248099   3.891   2.267  10.580 -0.0812  0.3263  0.0886
 8895TIP3    H148100   3.945   2.314  10.517 -1.3488  0.7446 -0.7381
 8895TIP3    H248101   3.951   2.241  10.649  0.8417  2.2966  0.0807
 8896TIP3   OH248102   6.778   1.500   0.391  0.3233 -0.0369  0.0799
 8896TIP3    H148103   6.871   1.478   0.391  0.2489 -0.5782 -1.8516
 8896TIP3    H248104   6.773   1.581   0.340 -0.3419 -0.5316 -0.6687
 8897TIP3   OH248105   2.881   4.576   3.506  0.0819  0.8084 -0.7033
 8897TIP3    H148106   2.938   4.636   3.458  0.2269  0.3282 -1.1408
 8897TIP3    H248107   2.794   4.589   3.467  0.1029  0.7709 -0.7622
 8898TIP3   OH248108   3.914   6.008   4.432 -0.0267  0.2074 -0.0078
 8898TIP3    H148109   3.992   6.062   4.445 -0.0762  2.0424 -5.0053
 8898TIP3    H248110   3.841   6.067   4.450 -0.0738  1.1125 -2.6850
 8899TIP3   OH248111   4.423   6.068   0.810  0.2526 -0.3119  0.3111
 8899TIP3    H148112   4.373   6.077   0.729 -0.6200  1.7906  0.9985
 8899TIP3    H248113   4.383   5.993   0.855 -1.2855  0.3657  0.1273
 8900TIP3   OH248114   4.379   1.919  13.766 -0.3650 -0.4987 -0.5342
 8900TIP3    H148115   4.296   1.876  13.784 -1.1020 -0.2402 -2.9038
 8900TIP3    H248116   4.366   2.010  13.795 -0.0612 -0.9709  1.1789
 8901TIP3   OH248117   4.661   4.738  11.047 -0.0039  0.2229  0.5679
 8901TIP3    H148118   4.721   4.696  11.108 -0.4188 -0.4996  0.4964
 8901TIP3    H248119   4.574   4.723  11.085 -0.7017 -3.6408 -1.9829
 8902TIP3   OH248120   1.711   2.907  12.775  0.2937 -0.5283  0.6947
 8902TIP3    H148121   1.708   2.923  12.681 -2.3042  0.1930  0.8297
 8902TIP3    H248122   1.719   2.993  12.814  0.7156 -0.7715  1.1529
 8903TIP3   OH248123   0.040   1.335  17.048 -0.0967  0.3204  0.6607
 8903TIP3    H148124  -0.017   1.347  16.972  0.8843  1.2453  0.0367
 8903TIP3    H248125  -0.008   1.376  17.120  0.6442  3.1061 -0.2967
 8904TIP3   OH248126   4.093   5.925  12.256 -0.2607  0.1445 -0.5248
 8904TIP3    H148127   4.021   5.988  12.267 -2.3956 -2.0657 -0.8350
 8904TIP3    H248128   4.070   5.877  12.177  2.0321 -0.1384 -1.0682
 8905TIP3   OH248129   5.015   6.005  17.136  0.1959  0.2870 -0.4837
 8905TIP3    H148130   5.042   6.040  17.051 -0.7830  3.3868  0.3191
 8905TIP3    H248131   4.925   5.975  17.122 -0.0064  0.9045 -0.5750
 8906TIP3   OH248132   5.815   4.160   4.013  0.0242  0.0266 -0.1272
 8906TIP3    H148133   5.824   4.161   3.917 -0.2146  0.5355 -0.1439
 8906TIP3    H248134   5.733   4.206   4.030  0.8988  1.4594  0.4232
 8907TIP3   OH248135   1.260   0.046   4.599 -0.1649  0.2768 -0.1371
 8907TIP3    H148136   1.341   0.009   4.563 -0.3623  0.3846 -0.7106
 8907TIP3    H248137   1.196  -0.025   4.591 -0.1527  0.2280  0.2127
 8908TIP3   OH248138   5.326   1.162   2.274  0.1980  0.2913 -0.1681
 8908TIP3    H148139   5.255   1.140   2.334  1.1391  0.1965  0.9487
 8908TIP3    H248140   5.297   1.242   2.230 -0.2168  0.7427  0.9104
 8909TIP3   OH248141   4.856   0.577  16.373 -0.0309 -0.3608  0.3782
 8909TIP3    H148142   4.841   0.487  16.343  1.7667 -0.9922  1.2585
 8909TIP3    H248143   4.922   0.569  16.442  0.1644  1.6419  0.4833
 8910TIP3   OH248144   1.892   0.612   0.033  0.1156  0.3526 -0.0493
 8910TIP3    H148145   1.815   0.574   0.076 -1.2386  1.6082 -1.2691
 8910TIP3    H248146   1.873   0.607  -0.060  1.7288  0.3209 -0.4123
 8911TIP3   OH248147   1.869   3.236   3.889  0.0228 -0.0708  0.2696
 8911TIP3    H148148   1.887   3.319   3.933  0.6710 -0.2386  0.3227
 8911TIP3    H248149   1.777   3.218   3.910 -0.2492  0.8284 -0.0674
 8912TIP3   OH248150   1.430   4.356   3.463  0.1439 -0.3095  0.0190
 8912TIP3    H148151   1.373   4.306   3.521 -0.4053 -0.2579 -0.4670
 8912TIP3    H248152   1.518   4.345   3.500 -0.2495  0.1029  1.1273
 8913TIP3   OH248153   0.819   5.796   2.744  0.3452  0.4542  0.1945
 8913TIP3    H148154   0.901   5.804   2.792  2.0598 -1.1642 -2.2231
 8913TIP3    H248155   0.829   5.856   2.670 -0.5237  0.0029 -0.3093
 8914TIP3   OH248156   0.919   5.170  14.028 -0.4648  0.1696  0.2330
 8914TIP3    H148157   0.976   5.234  13.986 -1.9065  1.6436  0.3887
 8914TIP3    H248158   0.867   5.133  13.957  0.0374 -0.4833  0.2021
 8915TIP3   OH248159   0.968   5.863  17.190  0.0244  0.1312  0.0908
 8915TIP3    H148160   0.983   5.949  17.150  0.0790 -0.6700 -1.6700
 8915TIP3    H248161   1.006   5.801  17.129 -0.3442 -1.1871  1.1684
 8916TIP3   OH248162   1.889   1.535   2.670  0.8013 -0.4008  0.7807
 8916TIP3    H148163   1.963   1.555   2.727 -0.4650  0.4887  2.2171
 8916TIP3    H248164   1.907   1.448   2.636  1.5953 -1.0131  2.6485
 8917TIP3   OH248165   6.643   5.180  13.335 -0.2458 -0.1506  0.2668
 8917TIP3    H148166   6.596   5.108  13.292 -0.1114 -1.4504  2.1633
 8917TIP3    H248167   6.579   5.217  13.396 -0.3131  1.3898 -0.6946
 8918TIP3   OH248168   2.660   1.178  15.954 -0.4512  0.2898  0.1426
 8918TIP3    H148169   2.570   1.206  15.938  0.4783  1.7976 -3.5245
 8918TIP3    H248170   2.693   1.239  16.020 -1.4153  1.2713 -0.2625
 8919TIP3   OH248171   2.787   0.663  11.538  0.3065  0.1727  0.0610
 8919TIP3    H148172   2.742   0.699  11.614  2.0814  1.6033  0.5181
 8919TIP3    H248173   2.723   0.605  11.497 -1.5994  1.3943  1.1584
 8920TIP3   OH248174   2.268   2.070  12.703 -0.3064  0.0824 -0.2704
 8920TIP3    H148175   2.291   2.125  12.629  0.7002  3.1373  2.1283
 8920TIP3    H248176   2.173   2.081  12.712 -0.0026  2.2387  0.7014
 8921TIP3   OH248177   0.656   2.136   1.200  0.4120 -0.0194  0.2948
 8921TIP3    H148178   0.609   2.123   1.118 -0.1625  1.7750  0.2982
 8921TIP3    H248179   0.590   2.125   1.268  0.0217  2.0504  0.3192
 8922TIP3   OH248180   0.954   2.076   5.908 -0.3052  0.1811  0.2315
 8922TIP3    H148181   0.996   1.991   5.922 -1.1450 -0.4385 -0.7702
 8922TIP3    H248182   0.860   2.057   5.914 -0.4873  1.1706  0.6452
 8923TIP3   OH248183   5.772   6.445  13.369  0.3091  0.6148  0.2464
 8923TIP3    H148184   5.802   6.527  13.330 -0.0772 -0.0712 -1.5852
 8923TIP3    H248185   5.773   6.462  13.464  1.3496  2.3249 -0.0281
 8924TIP3   OH248186   1.102   5.813  11.047  0.2558 -0.2539 -0.2217
 8924TIP3    H148187   1.062   5.769  10.972  0.1114 -1.0575  0.3131
 8924TIP3    H248188   1.029   5.860  11.089 -0.0587 -1.3382  0.4844
 8925TIP3   OH248189   2.940   5.525   2.833  0.4812 -0.6295  0.3840
 8925TIP3    H148190   2.912   5.436   2.813 -0.6207  0.1223 -1.7700
 8925TIP3    H248191   2.935   5.571   2.749 -0.9409  1.9739  1.7809
 8926TIP3   OH248192   3.649   0.109   4.463  0.2223 -0.4781  0.4194
 8926TIP3    H148193   3.595   0.151   4.529  0.0543 -1.9899  1.2754
 8926TIP3    H248194   3.737   0.142   4.480 -0.0671  0.3664  0.3568
 8927TIP3   OH248195   1.042   1.752  14.429  0.0571  0.4747 -0.2102
 8927TIP3    H148196   1.027   1.791  14.515 -0.7588  0.7404 -0.4657
 8927TIP3    H248197   1.080   1.823  14.377  0.7060  0.2667 -0.0259
 8928TIP3   OH248198   1.521   6.532  11.620  0.0069 -0.5167  0.5889
 8928TIP3    H148199   1.427   6.551  11.626  0.1653  0.7236 -0.4637
 8928TIP3    H248200   1.542   6.543  11.528  0.8307 -2.7117  0.4495
 8929TIP3   OH248201   4.885   6.678  16.630  0.4447  0.0341  0.1742
 8929TIP3    H148202   4.966   6.633  16.652 -0.1392 -1.8308 -1.1915
 8929TIP3    H248203   4.881   6.673  16.534 -0.6654  1.2123  0.1453
 8930TIP3   OH248204   2.929   3.042   0.285  0.0616  0.2526 -0.4324
 8930TIP3    H148205   2.889   3.128   0.299  0.3593  0.3558 -0.2154
 8930TIP3    H248206   2.866   2.980   0.322 -0.8155  0.2619 -1.8233
 8931TIP3   OH248207   1.175   0.262   4.948 -0.3594 -0.4271 -0.1121
 8931TIP3    H148208   1.119   0.336   4.971 -0.5974 -0.6039 -0.1161
 8931TIP3    H248209   1.192   0.273   4.854  2.3531  1.4758  0.5123
 8932TIP3   OH248210   3.132   1.726  12.619 -0.1195 -0.7618 -0.0713
 8932TIP3    H148211   3.109   1.759  12.705 -0.6893 -0.9023 -0.1647
 8932TIP3    H248212   3.051   1.735  12.567  0.6409  0.8372 -1.0623
 8933TIP3   OH248213   0.578   3.468   5.699 -0.0885 -0.2822 -0.4355
 8933TIP3    H148214   0.626   3.503   5.774 -0.9192  2.1824 -0.9580
 8933TIP3    H248215   0.489   3.456   5.732  0.1457 -1.9540 -0.3026
 8934TIP3   OH248216   4.080   1.569   4.588 -0.1160  0.5610  0.3375
 8934TIP3    H148217   4.096   1.527   4.672 -1.9399  1.9669  1.4789
 8934TIP3    H248218   4.095   1.662   4.605 -1.1088  0.9372 -0.7136
 8935TIP3   OH248219   3.184   4.481   0.016 -0.5508  0.1073 -0.3804
 8935TIP3    H148220   3.166   4.392   0.046  0.0430  0.3731  0.8104
 8935TIP3    H248221   3.279   4.484   0.005 -0.5600  0.6091 -0.3495
 8936TIP3   OH248222   6.203   0.344   1.368 -0.9036 -0.0160  0.3654
 8936TIP3    H148223   6.204   0.377   1.458  1.2511  0.5945  0.1853
 8936TIP3    H248224   6.283   0.379   1.329 -0.4363 -2.3916 -1.0056
 8937TIP3   OH248225   0.069   1.495  15.214  0.5141  0.6643 -0.7536
 8937TIP3    H148226   0.159   1.499  15.183  0.7173  0.3952 -0.2060
 8937TIP3    H248227   0.073   1.529  15.303  0.2035 -0.0767 -0.4544
 8938TIP3   OH248228   6.661   2.314   2.723  0.5411 -0.4033  1.1940
 8938TIP3    H148229   6.647   2.220   2.718 -1.9119 -0.0691  0.8058
 8938TIP3    H248230   6.664   2.333   2.817  1.0700 -0.8402  1.2747
 8939TIP3   OH248231   1.493   6.220   4.942  0.3603  0.3099 -0.2368
 8939TIP3    H148232   1.560   6.261   4.889  0.6295  1.4370  0.9217
 8939TIP3    H248233   1.475   6.283   5.012  0.4525 -1.3447  1.3667
 8940TIP3   OH248234   0.891   1.740   2.491 -0.2466 -0.0877 -1.0515
 8940TIP3    H148235   0.864   1.820   2.446  0.9960  1.4356  0.7887
 8940TIP3    H248236   0.829   1.731   2.563  0.5860  0.1304 -0.3010
 8941TIP3   OH248237   6.732   3.752   1.979  0.2911  0.1505  0.0768
 8941TIP3    H148238   6.754   3.668   2.019 -0.5170 -1.3297 -2.3582
 8941TIP3    H248239   6.707   3.730   1.889  2.7702  3.2685 -1.6013
 8942TIP3   OH248240   4.313   5.802  10.769 -0.2329  0.5850 -0.6436
 8942TIP3    H148241   4.284   5.861  10.699 -1.7890  1.9987  1.0804
 8942TIP3    H248242   4.362   5.734  10.724  2.1448  3.4170 -2.7558
 8943TIP3   OH248243   2.161   6.136  10.658 -0.2501  0.1373  0.5193
 8943TIP3    H148244   2.188   6.228  10.666 -2.0340  0.8831 -1.2282
 8943TIP3    H248245   2.243   6.087  10.668  0.6569  1.8181  2.2100
 8944TIP3   OH248246   1.213   2.513   4.748 -0.1192 -0.1947  0.0478
 8944TIP3    H148247   1.261   2.440   4.786 -1.0068 -0.3843  0.8446
 8944TIP3    H248248   1.280   2.566   4.704  0.5561 -1.3851 -0.3989
 8945TIP3   OH248249   1.386   6.502   4.323 -0.0163  0.1085  0.1595
 8945TIP3    H148250   1.291   6.504   4.308  0.1017 -0.4159 -0.7076
 8945TIP3    H248251   1.423   6.485   4.237  0.8305 -0.5051  0.6415
 8946TIP3   OH248252   4.470   3.727   2.949  0.0975 -0.5236 -0.5558
 8946TIP3    H148253   4.548   3.705   3.000 -0.8866 -1.3628  0.6626
 8946TIP3    H248254   4.495   3.805   2.899  1.2667  0.1032  0.9118
 8947TIP3   OH248255   3.401   6.613  10.989 -0.6524  0.5629 -0.6084
 8947TIP3    H148256   3.493   6.589  10.978 -1.1556 -1.2579 -1.1572
 8947TIP3    H248257   3.401   6.709  10.986  1.3634  0.6603  0.7247
 8948TIP3   OH248258   3.673   6.369  14.674  0.4445  0.0350 -0.3859
 8948TIP3    H148259   3.677   6.463  14.657 -2.5303  0.0388 -1.7064
 8948TIP3    H248260   3.715   6.357  14.759 -2.7831  3.2357  1.9111
 8949TIP3   OH248261   5.633   3.445  13.905 -0.1398  0.1609  0.7297
 8949TIP3    H148262   5.598   3.533  13.918  0.6680  0.8007 -1.1217
 8949TIP3    H248263   5.557   3.388  13.907 -0.6264  0.7991  2.4924
 8950TIP3   OH248264   5.517   3.670  16.771  0.0325 -0.0467  0.1326
 8950TIP3    H148265   5.463   3.665  16.850  0.6866 -0.9399  0.5335
 8950TIP3    H248266   5.455   3.694  16.701 -0.2787  2.5255  1.1811
 8951TIP3   OH248267   2.410   2.277   1.772  0.0508 -0.0278  0.0819
 8951TIP3    H148268   2.377   2.207   1.828 -1.3590 -0.2471 -0.9566
 8951TIP3    H248269   2.478   2.236   1.719 -0.1210 -0.3678  0.1207
 8952TIP3   OH248270   2.355   1.436   2.295 -0.2066 -0.2413  0.0869
 8952TIP3    H148271   2.435   1.471   2.256  0.0758  0.5831  1.3483
 8952TIP3    H248272   2.285   1.486   2.254  0.0356  0.0736  0.0469
 8953TIP3   OH248273   3.347   0.639  10.459 -0.3386 -0.2574  0.1791
 8953TIP3    H148274   3.252   0.627  10.468 -0.4672 -1.4234 -2.2123
 8953TIP3    H248275   3.381   0.552  10.440  1.0171  0.3954 -0.5161
 8954TIP3   OH248276   4.087   4.508  12.797 -0.1880  0.5646  0.4175
 8954TIP3    H148277   4.177   4.502  12.766 -0.6926 -1.7971 -0.8561
 8954TIP3    H248278   4.085   4.451  12.875 -0.4337  1.1829  0.8709
 8955TIP3   OH248279   6.053   4.059   2.848  0.1873 -0.3872 -0.2118
 8955TIP3    H148280   5.997   4.009   2.907 -2.5854  3.1645  0.5266
 8955TIP3    H248281   6.100   4.119   2.905  0.4999  0.4145 -1.2877
 8956TIP3   OH248282   0.206   1.111   2.076  0.1673 -0.2489 -0.8025
 8956TIP3    H148283   0.122   1.095   2.118 -0.8150  1.1085 -2.1279
 8956TIP3    H248284   0.199   1.199   2.040  1.5646 -0.6805 -2.3031
 8957TIP3   OH248285   6.693   1.689  16.802 -0.5482  0.3463 -0.2154
 8957TIP3    H148286   6.754   1.701  16.729 -1.2801 -4.0577 -1.9039
 8957TIP3    H248287   6.731   1.739  16.874  2.3275  1.8054 -2.5323
 8958TIP3   OH248288   6.312   5.151  11.163 -0.0359  0.0956  0.2679
 8958TIP3    H148289   6.343   5.241  11.149 -2.7003  1.0230 -0.2431
 8958TIP3    H248290   6.226   5.162  11.203 -1.1611 -2.2175 -1.3567
 8959TIP3   OH248291   4.145   0.285   1.615  0.4000 -0.1271 -0.2933
 8959TIP3    H148292   4.099   0.203   1.599  2.5870 -1.6603  0.7183
 8959TIP3    H248293   4.183   0.276   1.702  0.9169  1.8789 -0.2399
 8960TIP3   OH248294   4.365   6.186  15.612  0.5478  0.9204  0.4132
 8960TIP3    H148295   4.356   6.129  15.535 -0.3617  1.3289  0.2082
 8960TIP3    H248296   4.379   6.274  15.575 -2.7158  1.6390  0.5940
 8961TIP3   OH248297   2.899   0.842  15.472 -0.5897  0.1252  0.1590
 8961TIP3    H148298   2.924   0.926  15.510 -0.1354 -0.5636  1.4326
 8961TIP3    H248299   2.829   0.809  15.528 -1.7059  0.2454 -1.1147
 8962TIP3   OH248300   2.665   1.766   5.701 -0.0022  0.0434 -0.1638
 8962TIP3    H148301   2.668   1.755   5.606  0.9802  0.9280 -0.2526
 8962TIP3    H248302   2.726   1.699   5.734 -0.4032 -0.3165 -0.1441
 8963TIP3   OH248303   5.793   4.135  14.094  0.5790 -0.3246 -0.5648
 8963TIP3    H148304   5.866   4.083  14.059  2.5407  0.1154  2.5165
 8963TIP3    H248305   5.793   4.116  14.188 -1.4293  1.9552 -0.0113
 8964TIP3   OH248306   3.523   6.735   2.039  0.5042  0.0597  0.1392
 8964TIP3    H148307   3.547   6.732   1.947  1.0470 -0.8152  0.2928
 8964TIP3    H248308   3.563   6.815   2.072  0.7036  0.1361 -0.2834
 8965TIP3   OH248309   3.139   4.455  11.643  0.4152  0.6684 -0.1918
 8965TIP3    H148310   3.076   4.526  11.654  0.2722  0.7505 -1.4143
 8965TIP3    H248311   3.086   4.375  11.642  0.5061  0.5897  0.4140
 8966TIP3   OH248312   3.403   1.689   2.302 -0.3101 -0.0162 -0.5099
 8966TIP3    H148313   3.490   1.657   2.326 -0.3094  1.3301  1.5362
 8966TIP3    H248314   3.382   1.643   2.221  1.4848 -1.8182 -0.0337
 8967TIP3   OH248315   6.776   3.450   5.132 -0.5503 -0.8052 -0.3404
 8967TIP3    H148316   6.859   3.457   5.085 -0.4372 -0.9738 -0.1700
 8967TIP3    H248317   6.710   3.437   5.064 -0.6058  0.6022 -0.5768
 8968TIP3   OH248318   0.704   5.010  11.599 -0.4720 -0.1681  0.4604
 8968TIP3    H148319   0.758   5.019  11.677  1.9275  0.6984 -1.1846
 8968TIP3    H248320   0.653   5.091  11.596  2.1217  1.5373 -0.7077
 8969TIP3   OH248321   6.341   5.534  11.787 -0.4390  0.4323 -0.4565
 8969TIP3    H148322   6.256   5.561  11.752 -0.0414  0.7852 -1.1863
 8969TIP3    H248323   6.385   5.491  11.714  0.1206  0.5040 -0.1696
 8970TIP3   OH248324   2.894   3.499   6.459 -0.3344 -0.0862  0.4037
 8970TIP3    H148325   2.933   3.587   6.456 -1.1179  0.2378 -0.6152
 8970TIP3    H248326   2.967   3.442   6.484 -0.1592  1.0205  2.6691
 8971TIP3   OH248327   4.493   1.102  14.354 -0.1103 -0.3677 -0.0391
 8971TIP3    H148328   4.538   1.150  14.284 -0.1006  0.4504  0.5171
 8971TIP3    H248329   4.507   1.010  14.332  0.6948 -0.1271 -0.6053
 8972TIP3   OH248330   1.734   5.874   3.530  0.1571 -0.8914 -0.1348
 8972TIP3    H148331   1.648   5.879   3.488 -0.1254 -0.5762  0.4708
 8972TIP3    H248332   1.795   5.907   3.464 -0.6860  3.4618  0.9129
 8973TIP3   OH248333   6.779   1.776   2.960 -0.3611  0.1918 -0.0760
 8973TIP3    H148334   6.743   1.701   2.912 -1.6590  1.3105 -0.9199
 8973TIP3    H248335   6.797   1.743   3.048  1.0502 -1.6326 -0.9795
 8974TIP3   OH248336   1.161   2.142  14.470 -0.2070  0.2610  0.4128
 8974TIP3    H148337   1.171   2.077  14.400 -1.2387  0.7379 -0.1901
 8974TIP3    H248338   1.069   2.138  14.494 -0.3954  1.8175  0.0445
 8975TIP3   OH248339   4.395   4.216  11.181  0.7146  0.3659  0.3065
 8975TIP3    H148340   4.410   4.157  11.107  0.4126  0.9361 -0.2206
 8975TIP3    H248341   4.401   4.303  11.143  1.8110  0.6953  1.2070
 8976TIP3   OH248342   2.858   6.072  13.700 -0.0498 -0.2212 -0.5246
 8976TIP3    H148343   2.778   6.126  13.693 -0.4412 -0.7461 -0.1716
 8976TIP3    H248344   2.891   6.089  13.788 -0.6297 -1.1631 -0.1049
 8977TIP3   OH248345   1.827   2.796   3.112 -0.6694  0.2240  0.0818
 8977TIP3    H148346   1.819   2.769   3.020  1.4551 -1.5215  0.3408
 8977TIP3    H248347   1.872   2.880   3.109 -0.5395  0.1396 -0.4700
 8978TIP3   OH248348   4.387   3.397  10.517  0.2701  0.5880 -0.3775
 8978TIP3    H148349   4.481   3.382  10.504  0.3139  0.3062  0.2324
 8978TIP3    H248350   4.368   3.357  10.601 -0.4690  0.3399 -0.6532
 8979TIP3   OH248351   2.327   1.628  16.428  0.0814  0.1254  0.1654
 8979TIP3    H148352   2.384   1.655  16.501  0.8202  0.8514 -0.6592
 8979TIP3    H248353   2.384   1.577  16.371 -0.0945  0.8041 -0.6376
 8980TIP3   OH248354   2.953   1.831   3.639 -0.2345 -0.3158  0.3442
 8980TIP3    H148355   2.899   1.910   3.640 -1.0567 -0.7850 -1.6715
 8980TIP3    H248356   3.011   1.842   3.564  0.9877 -0.8121  1.1713
 8981TIP3   OH248357   1.131   3.573  14.549  0.1266 -0.7866  0.3492
 8981TIP3    H148358   1.177   3.627  14.612  0.7322 -0.9319  0.0426
 8981TIP3    H248359   1.058   3.627  14.519  0.0909 -0.5570  0.8464
 8982TIP3   OH248360   2.114   2.746   4.191 -0.3857 -0.0458  0.2252
 8982TIP3    H148361   2.034   2.789   4.219 -1.6019 -0.8617 -1.7606
 8982TIP3    H248362   2.124   2.671   4.250 -0.7474  0.3806  0.8395
 8983TIP3   OH248363   5.626   2.709  11.014 -0.2770 -0.4088  0.2355
 8983TIP3    H148364   5.568   2.722  10.938 -1.9761  1.2960  1.7357
 8983TIP3    H248365   5.620   2.615  11.032 -2.4968 -0.3360  0.2109
 8984TIP3   OH248366   1.544   3.767  14.292  0.3108  0.3543 -0.1224
 8984TIP3    H148367   1.495   3.685  14.306 -0.8302  0.9573 -0.4986
 8984TIP3    H248368   1.542   3.780  14.198  0.7864  0.6463 -0.0918
 8985TIP3   OH248369   5.271   3.037  16.124 -1.0724  0.0647 -0.1172
 8985TIP3    H148370   5.290   3.121  16.083 -0.2945 -0.4272 -0.7928
 8985TIP3    H248371   5.203   3.056  16.188 -0.2166  1.3848  0.4233
 8986TIP3   OH248372   4.050   4.261  12.702 -0.5355 -0.1179  0.5170
 8986TIP3    H148373   4.127   4.223  12.744 -0.7621  1.2112  2.2725
 8986TIP3    H248374   4.053   4.353  12.727 -0.6036  0.8591 -2.6291
 8987TIP3   OH248375   6.299   1.667  14.887 -0.0227  0.2181 -0.7035
 8987TIP3    H148376   6.257   1.709  14.962  0.1969  0.5035 -0.7342
 8987TIP3    H248377   6.278   1.574  14.895 -0.3736  0.3120 -0.5352
 8988TIP3   OH248378   0.281   4.706  16.195  0.0241 -0.3314  0.6454
 8988TIP3    H148379   0.223   4.778  16.168  0.4946 -0.7511 -1.7234
 8988TIP3    H248380   0.364   4.748  16.214 -0.6717  0.1367  2.9448
 8989TIP3   OH248381   0.554   3.905  16.102 -0.0776 -0.0189 -0.4487
 8989TIP3    H148382   0.469   3.916  16.146  0.2329 -0.9964  0.4322
 8989TIP3    H248383   0.609   3.973  16.141  0.4040 -1.3183  1.2889
 8990TIP3   OH248384   6.042   2.114   4.252  0.5527 -0.1057 -0.0814
 8990TIP3    H148385   5.976   2.138   4.317  0.4056 -0.1998 -0.1947
 8990TIP3    H248386   6.096   2.192   4.242  1.3976 -0.5081  1.1425
 8991TIP3   OH248387   6.126   1.350   3.707 -0.1590  0.0368  0.0057
 8991TIP3    H148388   6.061   1.360   3.776  0.3425  0.1322  0.4686
 8991TIP3    H248389   6.161   1.438   3.693  0.7988 -0.2157  0.6837
 8992TIP3   OH248390   0.474   5.319  10.832 -0.1916 -0.2891  0.1543
 8992TIP3    H148391   0.560   5.278  10.842 -1.4256 -2.7663  1.7186
 8992TIP3    H248392   0.469   5.342  10.739  3.1449  2.5493  0.5016
 8993TIP3   OH248393   2.842   0.399  11.275 -0.5158  0.2184 -1.3276
 8993TIP3    H148394   2.931   0.384  11.305 -0.7432 -0.9700 -1.1715
 8993TIP3    H248395   2.847   0.478  11.222  0.5677  0.3363 -1.0657
 8994TIP3   OH248396   4.896   1.034   5.270  0.0622 -0.2932  0.1320
 8994TIP3    H148397   4.918   0.945   5.298  2.0097  0.4870  1.2361
 8994TIP3    H248398   4.883   1.026   5.175 -3.5377 -2.3825  0.6025
 8995TIP3   OH248399   6.207   4.912   3.680  0.7042  0.0766  0.0901
 8995TIP3    H148400   6.235   4.879   3.594 -0.0378 -2.4288  0.7416
 8995TIP3    H248401   6.115   4.887   3.687  0.8786 -0.2132  1.8022
 8996TIP3   OH248402   3.944   4.094  16.995 -0.2734  0.2376 -0.3800
 8996TIP3    H148403   3.848   4.095  17.000 -0.3551  1.1378 -1.6017
 8996TIP3    H248404   3.969   4.013  17.039 -1.4803  0.8119  1.4599
 8997TIP3   OH248405   0.230   1.474   5.491  0.5875 -0.1837 -0.6852
 8997TIP3    H148406   0.141   1.440   5.499  1.0691 -1.6567 -1.1891
 8997TIP3    H248407   0.236   1.506   5.401  0.0655  1.5034 -0.1438
 8998TIP3   OH248408   5.624   1.324  12.053  0.0154 -1.0088  0.3085
 8998TIP3    H148409   5.544   1.364  12.019 -0.2448 -0.1279  1.8612
 8998TIP3    H248410   5.597   1.278  12.132  1.0278 -0.6338  0.8985
 8999TIP3   OH248411   1.952   4.579  14.688  0.4382  0.0716 -0.1822
 8999TIP3    H148412   2.017   4.649  14.693  1.2059 -0.5819 -0.6644
 8999TIP3    H248413   1.938   4.567  14.594  2.4411 -2.2843 -0.2790
 9000TIP3   OH248414   4.554   1.834  14.958 -0.2175  0.2751 -0.3024
 9000TIP3    H148415   4.540   1.875  14.872 -0.2130 -0.2461 -0.5575
 9000TIP3    H248416   4.521   1.898  15.021  2.6665  2.1065 -0.4712
 9001TIP3   OH248417   2.148   6.770  16.912 -0.0717 -0.0450 -0.5428
 9001TIP3    H148418   2.127   6.691  16.863 -0.8383 -0.8404  0.9920
 9001TIP3    H248419   2.229   6.802  16.872 -0.8155 -0.4383 -2.5097
 9002TIP3   OH248420   6.517   6.232   2.990 -0.3584 -0.1933  0.1412
 9002TIP3    H148421   6.597   6.282   2.974 -0.9682  0.9339  0.4745
 9002TIP3    H248422   6.542   6.141   2.976  0.4228  0.2910 -2.0891
 9003TIP3   OH248423   2.826   2.911  12.279  0.4956  0.4100  0.4392
 9003TIP3    H148424   2.785   2.973  12.339 -1.6712  1.0708 -1.5646
 9003TIP3    H248425   2.910   2.950  12.257  0.9518  0.5714  2.3199
 9004TIP3   OH248426   2.104   5.553   5.129  0.2694 -0.3175  0.2406
 9004TIP3    H148427   2.051   5.631   5.143  1.0611  0.1475  0.7057
 9004TIP3    H248428   2.086   5.498   5.205 -0.7557 -0.8736 -0.3835
 9005TIP3   OH248429   4.635   3.015   0.134  0.1191 -0.3471 -0.1558
 9005TIP3    H148430   4.681   2.942   0.177 -1.4506 -1.4212 -0.2014
 9005TIP3    H248431   4.639   2.993   0.041 -1.3767 -1.0379 -0.0819
 9006TIP3   OH248432   6.665   2.106   6.106  0.2516  0.4900  1.0029
 9006TIP3    H148433   6.688   2.068   6.191 -0.0016 -0.3100  0.7292
 9006TIP3    H248434   6.576   2.138   6.117  0.2467  0.4537  1.0671
 9007TIP3   OH248435   0.261   2.683  16.624 -0.0717  0.0817  0.3185
 9007TIP3    H148436   0.239   2.604  16.673  1.1689  0.7521  2.0551
 9007TIP3    H248437   0.352   2.702  16.648 -0.5089  2.3491  0.4472
 9008TIP3   OH248438   3.367   5.899  15.843 -0.4219  0.5154 -0.4994
 9008TIP3    H148439   3.458   5.903  15.873 -0.2263  2.1406 -1.1897
 9008TIP3    H248440   3.346   5.806  15.843 -0.5229  0.2302  4.6740
 9009TIP3   OH248441   5.562   6.541   3.021  0.6765  0.0153 -0.2901
 9009TIP3    H148442   5.582   6.617   3.074 -0.4193  0.3500 -0.3378
 9009TIP3    H248443   5.608   6.556   2.938  0.5025  0.6028 -0.2818
 9010TIP3   OH248444   3.523   2.188   0.075  0.3983  0.0545 -0.1400
 9010TIP3    H148445   3.446   2.146   0.114  0.1416 -0.0909 -0.8051
 9010TIP3    H248446   3.594   2.169   0.137  0.2344 -1.1621 -0.3065
 9011TIP3   OH248447   4.562   3.778   3.343  0.2709  0.0007  0.6606
 9011TIP3    H148448   4.597   3.699   3.386 -0.3465 -0.5480  0.1666
 9011TIP3    H248449   4.637   3.838   3.339  0.6065 -0.3421  1.5485
 9012TIP3   OH248450   2.092   5.982  15.219 -0.3378 -0.3763 -0.1510
 9012TIP3    H148451   2.102   6.028  15.303  0.0919  1.0735 -0.9553
 9012TIP3    H248452   2.130   5.895  15.235 -0.1954 -0.1042  1.1305
 9013TIP3   OH248453   0.002   3.128   5.578  0.2021  0.1291  0.2293
 9013TIP3    H148454  -0.079   3.113   5.625  0.1855 -0.4614  0.0142
 9013TIP3    H248455  -0.025   3.165   5.494  0.1767  0.2510  0.2911
 9014TIP3   OH248456   6.345   5.218   5.431 -0.3216 -0.5936 -0.0733
 9014TIP3    H148457   6.376   5.307   5.422  0.4507 -0.8450  0.0462
 9014TIP3    H248458   6.424   5.165   5.438 -0.7759 -1.1704  0.9805
 9015TIP3   OH248459   5.723   2.532  12.934 -0.1702 -0.7909 -0.2313
 9015TIP3    H148460   5.747   2.455  12.986 -0.7683 -1.9973 -1.6796
 9015TIP3    H248461   5.627   2.536  12.941 -0.0994  0.2195  0.3459
 9016TIP3   OH248462   5.833   3.217  11.868 -0.1706 -0.5436 -0.0865
 9016TIP3    H148463   5.902   3.185  11.811  1.6355  1.0275  1.0738
 9016TIP3    H248464   5.840   3.164  11.947 -0.4692 -0.5592 -0.0694
 9017TIP3   OH248465   3.810   3.584  11.057 -0.0446 -0.4802  0.4380
 9017TIP3    H148466   3.835   3.628  11.138  1.1173 -1.5922  0.7022
 9017TIP3    H248467   3.734   3.634  11.025  0.6129  1.0962  1.2370
 9018TIP3   OH248468   5.052   5.240  10.876 -0.2763  0.1013 -0.0671
 9018TIP3    H148469   5.138   5.223  10.839 -0.2340 -0.8359  0.4196
 9018TIP3    H248470   4.992   5.229  10.802  0.0807  1.6673 -0.6152
 9019TIP3   OH248471   2.996   0.211   1.200 -0.5744  0.0181  0.7333
 9019TIP3    H148472   3.090   0.204   1.215 -0.8062 -0.6661  2.1065
 9019TIP3    H248473   2.963   0.260   1.276 -1.3466  0.1623  0.3234
 9020TIP3   OH248474   2.502   3.996  12.142  0.3239  0.2352  0.3309
 9020TIP3    H148475   2.422   4.009  12.193 -0.4237 -0.5520 -0.6067
 9020TIP3    H248476   2.480   3.926  12.080  1.2536  1.0309 -0.9422
 9021TIP3   OH248477   1.810   6.240   5.256  0.6581 -0.5364 -0.0313
 9021TIP3    H148478   1.882   6.251   5.194  1.4091 -1.7358  0.5897
 9021TIP3    H248479   1.848   6.189   5.327 -0.6329 -0.5847  0.6422
 9022TIP3   OH248480   2.646   3.141  16.581  0.0099  0.6239 -0.1270
 9022TIP3    H148481   2.724   3.196  16.579  0.4751  0.0478 -3.0689
 9022TIP3    H248482   2.582   3.192  16.631  2.2678  0.9705  2.6192
 9023TIP3   OH248483   4.668   4.050  11.893  0.4426  0.4832 -0.0111
 9023TIP3    H148484   4.710   3.965  11.882 -0.7583  0.1058 -2.1113
 9023TIP3    H248485   4.580   4.028  11.925  0.6300  1.0600  0.9426
 9024TIP3   OH248486   1.355   2.937   2.435 -0.5360 -0.1168 -0.4742
 9024TIP3    H148487   1.447   2.934   2.463 -0.3513  0.3083 -1.0209
 9024TIP3    H248488   1.305   2.936   2.517  0.0058  1.1940 -0.1086
 9025TIP3   OH248489   1.370   5.987  16.155  0.1097  0.2659  0.2832
 9025TIP3    H148490   1.380   5.981  16.060  0.7744  1.6899  0.2322
 9025TIP3    H248491   1.441   5.933  16.190  0.3176  0.3286 -0.0412
 9026TIP3   OH248492   2.277   5.992  15.575 -0.3255  0.1427  0.5795
 9026TIP3    H148493   2.349   6.001  15.512 -0.0267 -1.9659  0.5573
 9026TIP3    H248494   2.204   6.039  15.533 -0.6646 -2.5841 -2.3042
 9027TIP3   OH248495   0.411   5.445  16.164 -0.2220 -0.4274  0.0944
 9027TIP3    H148496   0.358   5.449  16.085 -0.9586  1.4887  0.6382
 9027TIP3    H248497   0.349   5.455  16.236  0.8094  2.5818  0.7372
 9028TIP3   OH248498   5.642   3.079  17.079  0.1155 -0.4431  0.2671
 9028TIP3    H148499   5.553   3.098  17.048 -0.1052 -1.8895 -0.0683
 9028TIP3    H248500   5.678   3.020  17.013  2.5009  2.4129 -1.2672
 9029TIP3   OH248501   5.454   2.313   2.265 -0.0870 -0.2594  0.0654
 9029TIP3    H148502   5.484   2.398   2.299  0.7809  1.1059 -3.6633
 9029TIP3    H248503   5.533   2.259   2.262  0.4586  0.5570 -2.0936
 9030TIP3   OH248504   2.938   4.140   3.724  0.0505 -0.1699 -0.0407
 9030TIP3    H148505   2.956   4.233   3.737 -1.1418  0.5146 -2.7606
 9030TIP3    H248506   2.971   4.099   3.804  0.8540  2.5227  1.1410
 9031TIP3   OH248507   6.514   2.392  16.491 -0.3437 -0.0680 -0.0674
 9031TIP3    H148508   6.543   2.309  16.453  0.2051  0.7191 -1.4515
 9031TIP3    H248509   6.498   2.372  16.583 -0.7172 -1.8217 -0.4705
 9032TIP3   OH248510   0.824   5.151  15.111  0.4780 -0.2961 -0.4055
 9032TIP3    H148511   0.815   5.230  15.058  1.1554 -0.5503 -0.9238
 9032TIP3    H248512   0.738   5.110  15.109  0.6168 -0.5683 -1.7617
 9033TIP3   OH248513   5.290   2.382  16.896  0.4756  0.1674 -0.1343
 9033TIP3    H148514   5.288   2.438  16.973 -2.5079  0.3462 -0.2356
 9033TIP3    H248515   5.301   2.442  16.822  1.0133  0.2307 -0.0031
 9034TIP3   OH248516   6.667   1.875  13.069 -0.0630 -0.2347 -0.2517
 9034TIP3    H148517   6.624   1.890  13.153 -0.3086 -1.2380 -0.1841
 9034TIP3    H248518   6.631   1.791  13.038  2.5939 -1.6988  0.3038
 9035TIP3   OH248519   0.417   3.234   4.576 -0.3365  0.0968  0.5280
 9035TIP3    H148520   0.396   3.210   4.666 -2.7680  1.4254  0.4080
 9035TIP3    H248521   0.432   3.329   4.580  1.6509 -0.1259 -0.1864
 9036TIP3   OH248522   5.304   2.992   0.771  0.9384  0.2367 -0.5809
 9036TIP3    H148523   5.296   3.020   0.862  0.3234  1.0816 -0.8886
 9036TIP3    H248524   5.343   3.067   0.726  3.5802 -1.0438 -0.5786
 9037TIP3   OH248525   5.916   3.097   0.873  0.3536  0.1979 -0.4930
 9037TIP3    H148526   5.979   3.132   0.935  0.8294 -0.2708 -0.7063
 9037TIP3    H248527   5.831   3.119   0.910  0.6191 -0.5261  0.5810
 9038TIP3   OH248528   0.355   3.829   0.582  0.6153 -0.1339 -0.5909
 9038TIP3    H148529   0.404   3.770   0.524  1.6708  0.0703  0.0786
 9038TIP3    H248530   0.271   3.840   0.538  1.2807 -0.2184 -1.9399
 9039TIP3   OH248531   6.510   2.419  11.614  0.3036  0.5875  0.2234
 9039TIP3    H148532   6.581   2.370  11.654 -1.4146 -0.8579  1.7074
 9039TIP3    H248533   6.495   2.493  11.673  0.2416  0.6105  0.1796
 9040TIP3   OH248534   4.535   3.465  17.152 -0.3826  0.8901  0.0979
 9040TIP3    H148535   4.464   3.463  17.088 -1.4286 -1.6713  1.1933
 9040TIP3    H248536   4.601   3.406  17.116 -0.1338  0.9293  0.4837
 9041TIP3   OH248537   4.373   0.470   2.800  0.0230  0.4531  0.1019
 9041TIP3    H148538   4.443   0.407   2.817  1.8533  2.3220 -0.0841
 9041TIP3    H248539   4.351   0.458   2.708 -1.8765 -1.9493  0.7690
 9042TIP3   OH248540   4.513   1.124  13.722 -0.3138  0.0640  0.3628
 9042TIP3    H148541   4.445   1.191  13.723 -1.3479 -0.9208 -0.2915
 9042TIP3    H248542   4.476   1.051  13.772  0.5193 -0.2518  0.5394
 9043TIP3   OH248543   0.545   0.537   3.016 -0.3505  0.0452  0.0675
 9043TIP3    H148544   0.502   0.481   3.080 -0.4294 -0.2165 -0.2100
 9043TIP3    H248545   0.637   0.510   3.017 -0.3576  0.0199  0.0503
 9044TIP3   OH248546   1.394   0.282  11.485 -0.0006 -0.1764 -0.3061
 9044TIP3    H148547   1.462   0.336  11.445 -2.1689  3.1229  0.0869
 9044TIP3    H248548   1.416   0.282  11.578  1.3549 -2.2280 -0.5576
 9045TIP3   OH248549   6.328   3.530   0.626  0.3749 -0.5150  0.2238
 9045TIP3    H148550   6.356   3.622   0.625  0.0078 -0.3930  0.6295
 9045TIP3    H248551   6.384   3.489   0.692 -0.3651 -0.2718  1.0327
 9046TIP3   OH248552   1.183   2.839  11.575 -0.7657  0.0819  0.2491
 9046TIP3    H148553   1.270   2.798  11.575  0.2975  2.2050  0.2787
 9046TIP3    H248554   1.149   2.822  11.487 -1.5360 -3.0413  1.0275
 9047TIP3   OH248555   0.453   0.241   1.542 -0.3527  0.0490 -0.5488
 9047TIP3    H148556   0.423   0.310   1.603 -0.3776  0.4230 -0.9779
 9047TIP3    H248557   0.382   0.177   1.542 -1.0281  0.7741 -1.3100
 9048TIP3   OH248558   5.597   5.686  16.620 -0.1839 -0.1147  0.3604
 9048TIP3    H148559   5.668   5.744  16.644 -0.5387 -0.1176  1.4472
 9048TIP3    H248560   5.521   5.719  16.667 -1.1805  0.5306 -1.6076
 9049TIP3   OH248561   2.603   5.117  10.453 -0.1729 -0.0826 -0.2233
 9049TIP3    H148562   2.621   5.135  10.546  0.7941 -0.3246 -0.3459
 9049TIP3    H248563   2.568   5.199  10.419  0.5648  0.3838  0.0994
 9050TIP3   OH248564   1.209   6.141  11.521  0.4775  0.4568 -0.4850
 9050TIP3    H148565   1.170   6.094  11.447  1.2070 -1.9321  0.5427
 9050TIP3    H248566   1.135   6.181  11.566 -0.0499  1.3149 -2.0295
 9051TIP3   OH248567   5.333   5.828   4.196  0.4359 -0.0777 -0.0908
 9051TIP3    H148568   5.337   5.752   4.137  1.6285  0.0555 -0.2005
 9051TIP3    H248569   5.241   5.856   4.191 -0.3055 -2.0991  0.7310
 9052TIP3   OH248570   6.509   0.531  16.997  0.4841  0.0266 -0.8070
 9052TIP3    H148571   6.457   0.455  17.022  0.1926  0.2300 -0.7887
 9052TIP3    H248572   6.599   0.499  16.995  0.3548 -0.3353 -0.8700
 9053TIP3   OH248573   4.256   4.615  10.679  0.4508  0.0429 -0.2199
 9053TIP3    H148574   4.332   4.643  10.730  1.1826 -1.0379 -0.6795
 9053TIP3    H248575   4.284   4.533  10.637 -1.2671 -0.9007  0.3495
 9054TIP3   OH248576   6.306   0.443  16.721 -0.3839  0.2182  0.5507
 9054TIP3    H148577   6.337   0.528  16.753 -0.2157  1.2005 -1.9970
 9054TIP3    H248578   6.384   0.400  16.687 -0.7605 -0.1958  0.2024
 9055TIP3   OH248579   2.540   5.763   2.537 -0.0470 -0.0016 -0.7655
 9055TIP3    H148580   2.500   5.692   2.588  0.7441 -1.7076 -2.4299
 9055TIP3    H248581   2.619   5.786   2.586 -0.6780  0.2736  0.1620
 9056TIP3   OH248582   2.784   2.065  15.855  0.0353  0.0305  0.3131
 9056TIP3    H148583   2.863   2.020  15.882 -0.4491 -1.5292 -0.7505
 9056TIP3    H248584   2.718   1.996  15.848 -0.6990  0.8374 -1.5260
 9057TIP3   OH248585   0.949   0.260  12.229  0.2836 -0.0623 -0.2206
 9057TIP3    H148586   0.863   0.285  12.262  0.1140  0.1171 -0.7891
 9057TIP3    H248587   1.007   0.333  12.252  0.1172  0.1651 -0.5132
 9058TIP3   OH248588   0.659   1.475   5.487  0.0090 -0.3008 -0.1701
 9058TIP3    H148589   0.667   1.531   5.564  1.9825  3.0323 -2.5469
 9058TIP3    H248590   0.588   1.514   5.435 -1.4157 -2.5898 -0.0731
 9059TIP3   OH248591   0.865   0.356   5.996  0.4866  0.7792 -0.2841
 9059TIP3    H148592   0.942   0.373   6.050  0.5998 -0.9613  0.1673
 9059TIP3    H248593   0.820   0.285   6.041  0.1882 -0.2316 -2.0855
 9060TIP3   OH248594   1.840   6.155   6.109  0.0102 -0.2170 -0.2699
 9060TIP3    H148595   1.849   6.249   6.091 -0.1805 -0.3109 -0.9067
 9060TIP3    H248596   1.822   6.116   6.023 -0.4823 -0.7680  0.0752
 9061TIP3   OH248597   0.255   4.472   5.678  0.4571 -0.1870  0.0465
 9061TIP3    H148598   0.188   4.425   5.628 -0.8875  1.4423  0.2579
 9061TIP3    H248599   0.285   4.408   5.743  0.7404 -1.6630 -1.4607
 9062TIP3   OH248600   2.460   4.145  13.717 -0.3492  0.2153  0.1250
 9062TIP3    H148601   2.479   4.144  13.624 -1.2957 -0.2595 -0.0729
 9062TIP3    H248602   2.512   4.217  13.752  1.1879 -0.5606 -0.4995
 9063TIP3   OH248603   5.821   5.568   4.494 -0.1662 -0.1818 -0.2925
 9063TIP3    H148604   5.908   5.558   4.455  0.5909  1.7863  0.7865
 9063TIP3    H248605   5.792   5.655   4.469 -1.1662 -0.2094  0.6726
 9064TIP3   OH248606   3.215   3.656  12.968 -0.0004 -0.0033 -0.2220
 9064TIP3    H148607   3.129   3.693  12.986  0.4331  0.1171  2.0004
 9064TIP3    H248608   3.202   3.561  12.974  0.4662  0.0162  3.2412
 9065TIP3   OH248609   6.010   6.286  13.260 -0.3480 -0.3755 -0.0479
 9065TIP3    H148610   6.051   6.358  13.211 -2.5489  1.3978  0.5585
 9065TIP3    H248611   5.931   6.325  13.297 -1.5380 -3.1028  0.4690
 9066TIP3   OH248612   1.307   1.548  10.297 -0.0083  0.1199  0.0713
 9066TIP3    H148613   1.338   1.570  10.385  0.1521 -0.1939  0.0923
 9066TIP3    H248614   1.382   1.564  10.240 -0.3130  0.9990 -0.1137
 9067TIP3   OH248615   4.177   6.173  11.840 -0.3666 -0.2027  0.0773
 9067TIP3    H148616   4.243   6.206  11.779 -1.2296 -1.7904 -1.8230
 9067TIP3    H248617   4.144   6.093  11.799 -3.2137  0.3151  1.1143
 9068TIP3   OH248618   1.281   2.167   1.309  0.0941  0.0428  0.1979
 9068TIP3    H148619   1.240   2.171   1.395  0.7826 -0.6578  0.5728
 9068TIP3    H248620   1.363   2.120   1.324  1.0363  1.3889 -0.5324
 9069TIP3   OH248621   4.864   3.967   5.401 -0.3331  0.0567 -0.7450
 9069TIP3    H148622   4.833   3.884   5.436 -0.1772  0.7941  1.2656
 9069TIP3    H248623   4.791   4.028   5.412 -0.0516  0.4748 -1.1102
 9070TIP3   OH248624   0.436   5.972  10.770  0.3626 -0.7299 -0.2174
 9070TIP3    H148625   0.370   6.004  10.708  0.8152  2.3654  0.7312
 9070TIP3    H248626   0.514   6.022  10.749  1.8191 -2.7387  0.1315
 9071TIP3   OH248627   2.509   0.281  13.195 -0.2063  0.2154 -0.0888
 9071TIP3    H148628   2.517   0.368  13.234  0.5074  0.4755 -0.7978
 9071TIP3    H248629   2.477   0.296  13.106  3.4871  0.1394 -1.6257
 9072TIP3   OH248630   2.513   5.439  12.238 -0.2862 -0.1952  0.1240
 9072TIP3    H148631   2.439   5.499  12.232 -0.5423 -0.4424  0.7320
 9072TIP3    H248632   2.521   5.402  12.150 -0.1074  0.7358 -0.2629
 9073TIP3   OH248633   6.406   2.684  15.265 -0.3141  0.2373  0.1126
 9073TIP3    H148634   6.367   2.676  15.352 -0.5258  0.0341 -0.0025
 9073TIP3    H248635   6.386   2.774  15.238  1.5165  1.0205  1.1295
 9074TIP3   OH248636   6.109   1.728  11.987  0.3045  0.1102 -0.2418
 9074TIP3    H148637   6.134   1.658  11.926  0.3654  0.1255 -0.2349
 9074TIP3    H248638   6.046   1.687  12.046  0.4776  0.0107 -0.1256
 9075TIP3   OH248639   2.538   5.142  10.718  0.3294 -0.1620  0.2096
 9075TIP3    H148640   2.460   5.102  10.679 -0.3293  1.4862 -0.2406
 9075TIP3    H248641   2.538   5.112  10.809  0.0982 -1.4822 -0.2044
 9076TIP3   OH248642   3.239   0.364  11.590  0.3335  0.0346 -0.2560
 9076TIP3    H148643   3.244   0.387  11.683 -1.2288 -1.5612  0.2763
 9076TIP3    H248644   3.271   0.274  11.586  0.2269  0.0278 -1.2631
 9077TIP3   OH248645   4.597   3.715   0.078 -0.0770 -0.0613  0.4596
 9077TIP3    H148646   4.587   3.648   0.010  0.9906  1.0577 -0.8738
 9077TIP3    H248647   4.508   3.749   0.091 -0.0963  0.9128 -1.7188
 9078TIP3   OH248648   5.277   5.075  15.481  0.4198 -0.4364 -0.1612
 9078TIP3    H148649   5.315   5.111  15.400 -1.0404 -0.8541 -1.0759
 9078TIP3    H248650   5.195   5.124  15.492 -0.4076 -1.8024 -0.0976
 9079TIP3   OH248651   1.204   4.537  12.351 -0.1764  0.0074 -0.0736
 9079TIP3    H148652   1.278   4.571  12.402 -0.8505  1.2543  0.1188
 9079TIP3    H248653   1.244   4.485  12.282  0.8263 -0.3527  0.7487
 9080TIP3   OH248654   6.282   4.875   4.879 -0.2182 -0.1041 -0.1409
 9080TIP3    H148655   6.286   4.895   4.972  0.7199 -2.0712  0.2868
 9080TIP3    H248656   6.360   4.822   4.862 -1.4629 -1.6049 -1.5573
 9081TIP3   OH248657   4.057   3.495   2.737  0.1418  0.3456  0.0956
 9081TIP3    H148658   4.136   3.528   2.780  0.7283 -0.5813 -0.2504
 9081TIP3    H248659   4.057   3.536   2.651 -0.4515  1.3437  0.5508
 9082TIP3   OH248660   0.665   1.491  11.292 -0.1304 -0.1133 -0.0616
 9082TIP3    H148661   0.760   1.494  11.299 -0.2037  1.5470  0.5038
 9082TIP3    H248662   0.647   1.503  11.199  0.1945 -0.0112 -0.1108
 9083TIP3   OH248663   4.433   6.780   3.535 -0.3982 -0.1362 -0.0384
 9083TIP3    H148664   4.344   6.799   3.564  0.0245  0.3164  0.9899
 9083TIP3    H248665   4.486   6.853   3.567  0.4585 -0.7201 -0.0701
 9084TIP3   OH248666   5.148   1.630  12.663 -0.0221 -0.0797  0.2895
 9084TIP3    H148667   5.084   1.701  12.667 -0.3491 -0.3904  0.6928
 9084TIP3    H248668   5.222   1.666  12.614  0.6301  1.2105  2.0902
 9085TIP3   OH248669   0.378   6.754   2.757  0.2058 -0.2324  0.0225
 9085TIP3    H148670   0.460   6.713   2.729  0.3261  0.3747 -0.5286
 9085TIP3    H248671   0.315   6.729   2.689  0.7592  2.1968 -1.4908
 9086TIP3   OH248672   1.914   2.806   6.338 -0.2766 -0.0908  0.2966
 9086TIP3    H148673   1.985   2.870   6.344 -0.3271 -0.0900  1.0060
 9086TIP3    H248674   1.939   2.738   6.400  0.4771 -1.4773 -1.4457
 9087TIP3   OH248675   4.104   5.254   4.532 -0.3866 -0.5143 -0.2194
 9087TIP3    H148676   4.110   5.349   4.521 -2.7280 -0.3618 -0.7934
 9087TIP3    H248677   4.082   5.243   4.625 -3.0634 -0.2068 -0.7236
 9088TIP3   OH248678   5.044   5.130  15.608  0.3284  0.4337 -0.1443
 9088TIP3    H148679   5.025   5.040  15.582  1.3608 -0.0817  0.7938
 9088TIP3    H248680   4.985   5.183  15.556 -1.1265 -0.8587  0.1095
 9089TIP3   OH248681   4.462   3.810   0.359  0.1514  0.3572 -0.2484
 9089TIP3    H148682   4.380   3.766   0.338 -1.0134  0.6296  3.2223
 9089TIP3    H248683   4.528   3.740   0.356  0.0616  0.2346 -3.5747
 9090TIP3   OH248684   3.894   1.946  13.637 -0.1557 -0.1009  0.1412
 9090TIP3    H148685   3.858   1.860  13.618 -0.6188 -0.2456  1.5621
 9090TIP3    H248686   3.969   1.928  13.694  0.8227  0.3396 -0.9756
 9091TIP3   OH248687   4.243   6.248  17.178 -0.2667  0.8164  0.0173
 9091TIP3    H148688   4.257   6.161  17.141  1.6893  1.2537 -0.3557
 9091TIP3    H248689   4.151   6.248  17.205 -0.1949 -1.5089  0.4376
 9092TIP3   OH248690   1.886   0.748  16.771  0.9796  0.6970 -0.0922
 9092TIP3    H148691   1.937   0.765  16.850  0.8857  0.5450  0.0011
 9092TIP3    H248692   1.923   0.807  16.705  0.4632  1.4855  0.3103
 9093TIP3   OH248693   6.477   2.703   4.427  0.0542  0.8715 -0.0635
 9093TIP3    H148694   6.424   2.733   4.353 -0.1898  0.9809  0.1552
 9093TIP3    H248695   6.418   2.648   4.478  0.5506 -0.1470 -0.5610
 9094TIP3   OH248696   6.015   3.548   3.946 -0.4327 -0.0053 -0.2682
 9094TIP3    H148697   6.003   3.599   3.866  1.3617  3.0681  1.2184
 9094TIP3    H248698   5.989   3.608   4.017  2.0103 -0.9779  1.6170
 9095TIP3   OH248699   6.009   2.948  16.265  0.0039  0.0847 -0.0352
 9095TIP3    H148700   5.971   3.014  16.208 -0.5936  0.3673  0.6723
 9095TIP3    H248701   6.005   2.986  16.353  0.6259 -0.4616  0.2417
 9096TIP3   OH248702   5.305   5.490   1.398  0.1539 -0.2516 -0.4632
 9096TIP3    H148703   5.305   5.548   1.322  1.6812 -0.3710 -0.5852
 9096TIP3    H248704   5.317   5.549   1.473 -4.2688  0.2495  0.1310
 9097TIP3   OH248705   5.129   4.999   4.143  0.0422  0.6077 -0.0246
 9097TIP3    H148706   5.129   4.939   4.068  0.7567  1.2513 -0.5593
 9097TIP3    H248707   5.140   5.086   4.104  1.6355  0.8496  0.8746
 9098TIP3   OH248708   1.664   2.569  13.770 -0.1494  0.2381  0.3529
 9098TIP3    H148709   1.673   2.646  13.714 -3.5360 -1.1421 -2.3774
 9098TIP3    H248710   1.588   2.588  13.825 -0.6345 -0.8915  0.0892
 9099TIP3   OH248711   2.559   0.531   5.400 -0.4587  0.1047 -0.7029
 9099TIP3    H148712   2.475   0.514   5.443 -0.0051 -0.8231 -0.1493
 9099TIP3    H248713   2.625   0.506   5.465  0.2421 -0.9599 -1.7806
 9100TIP3   OH248714   1.702   2.174   2.106 -0.5310 -0.7501 -0.0414
 9100TIP3    H148715   1.688   2.108   2.173  1.4082  0.0946  1.2821
 9100TIP3    H248716   1.669   2.255   2.144  1.4023 -0.0875  0.3392
 9101TIP3   OH248717   4.919   3.751   2.876 -0.3721 -0.3281 -0.8698
 9101TIP3    H148718   4.927   3.777   2.785  2.7013 -0.2836 -0.7052
 9101TIP3    H248719   4.958   3.823   2.925 -3.6635  0.5344  0.7374
 9102TIP3   OH248720   4.400   0.829  13.796 -0.4085  0.8166  0.3107
 9102TIP3    H148721   4.495   0.819  13.785 -0.3579 -1.2983  1.8881
 9102TIP3    H248722   4.389   0.849  13.889 -1.5338  0.0786  0.3547
 9103TIP3   OH248723   5.050   1.446  13.234  0.4165 -0.3037  0.3612
 9103TIP3    H148724   5.053   1.351  13.237 -3.2044 -0.5395  1.5574
 9103TIP3    H248725   5.096   1.474  13.314  1.0494 -1.0616  0.2698
 9104TIP3   OH248726   4.659   0.014   4.278 -0.1151 -0.6862  0.2576
 9104TIP3    H148727   4.621   0.101   4.286 -0.6753 -0.6044 -2.4829
 9104TIP3    H248728   4.585  -0.046   4.289 -0.0747 -0.7451  0.2151
 9105TIP3   OH248729   1.279   6.048  13.772 -0.0199 -0.6468  0.0884
 9105TIP3    H148730   1.270   6.053  13.867  0.1689 -1.6237  0.1630
 9105TIP3    H248731   1.315   6.133  13.747 -1.4677  0.1817  0.7056
 9106TIP3   OH248732   0.652   4.000   0.280 -0.0568 -0.0208 -0.5651
 9106TIP3    H148733   0.582   4.057   0.310  0.2110 -0.3052  0.6374
 9106TIP3    H248734   0.619   3.961   0.199 -1.9768 -1.4196  0.8158
 9107TIP3   OH248735   1.851   0.655   6.227 -0.3141 -0.2051  0.0276
 9107TIP3    H148736   1.868   0.747   6.247  0.9480 -0.6016  0.8939
 9107TIP3    H248737   1.920   0.608   6.272 -0.1491 -1.5029 -1.5014
 9108TIP3   OH248738   0.721   5.512  17.064  0.2621  0.3450 -0.9318
 9108TIP3    H148739   0.634   5.522  17.026 -0.9086  0.8311  1.6343
 9108TIP3    H248740   0.709   5.449  17.136  0.9355  3.4840  2.2350
 9109TIP3   OH248741   4.151   4.861  12.653 -0.0666  0.1322 -0.0550
 9109TIP3    H148742   4.225   4.813  12.691  0.3156  2.9048  3.1799
 9109TIP3    H248743   4.075   4.832  12.703 -0.0006  1.9722  1.1954
 9110TIP3   OH248744   3.337   2.856  12.108  0.0620 -0.0695 -0.4948
 9110TIP3    H148745   3.296   2.917  12.047  1.1781  0.6137 -0.5850
 9110TIP3    H248746   3.281   2.856  12.185  0.0075  0.9975 -0.5311
 9111TIP3   OH248747   3.577   3.723   6.524 -1.3786 -0.3696 -0.5681
 9111TIP3    H148748   3.658   3.774   6.527 -2.7971  2.0019  0.9838
 9111TIP3    H248749   3.536   3.749   6.442 -1.5938  0.1820 -0.2911
 9112TIP3   OH248750   3.442   1.621  16.170  0.4603  0.6132  0.1195
 9112TIP3    H148751   3.499   1.638  16.095 -1.2342  0.0906 -1.3512
 9112TIP3    H248752   3.396   1.703  16.185 -1.1652 -0.0132 -1.1973
 9113TIP3   OH248753   6.571   5.087  15.680  0.0267  0.5950 -0.0967
 9113TIP3    H148754   6.540   4.996  15.674  0.5307  0.4669 -1.0773
 9113TIP3    H248755   6.595   5.098  15.772  1.0428 -0.6557 -0.1842
 9114TIP3   OH248756   6.675   1.314   1.936 -0.5670 -0.3755 -0.0839
 9114TIP3    H148757   6.756   1.285   1.893 -0.2350 -0.2356  0.4430
 9114TIP3    H248758   6.624   1.354   1.865  0.5407  1.0710 -0.1167
 9115TIP3   OH248759   6.342   5.775  11.497  0.4912 -0.2498 -0.2115
 9115TIP3    H148760   6.433   5.752  11.516 -0.0740 -2.6045 -0.0952
 9115TIP3    H248761   6.318   5.838  11.566  1.8776  0.0760  0.0006
 9116TIP3   OH248762   5.173   4.684  12.675 -0.0524  0.5198  0.2242
 9116TIP3    H148763   5.211   4.759  12.630  0.8088  0.3627  0.6669
 9116TIP3    H248764   5.248   4.641  12.718 -0.3103 -1.3131 -1.0525
 9117TIP3   OH248765   5.413   6.471   1.031 -0.0600  0.0458  0.8014
 9117TIP3    H148766   5.348   6.454   0.963  1.3527  0.1054 -0.6349
 9117TIP3    H248767   5.411   6.566   1.043  0.8701  0.2641 -0.4728
 9118TIP3   OH248768   0.844   0.157  11.361 -0.5093  0.3191 -0.8429
 9118TIP3    H148769   0.894   0.162  11.279  1.9199  0.2678  0.5174
 9118TIP3    H248770   0.847   0.246  11.396 -1.8127  0.4127 -0.9269
 9119TIP3   OH248771   1.375   6.670   0.441  0.5066  0.1318 -0.3930
 9119TIP3    H148772   1.319   6.734   0.397 -0.2415  1.5061  2.3298
 9119TIP3    H248773   1.324   6.590   0.442 -1.8889  1.5068  2.5677
 9120TIP3   OH248774   1.579   6.678   0.202 -0.3654  0.2643 -0.0837
 9120TIP3    H148775   1.569   6.593   0.158 -0.1251 -0.2245  0.7944
 9120TIP3    H248776   1.509   6.680   0.267 -0.5018  0.8350 -0.2432
 9121TIP3   OH248777   5.287   0.316  16.805 -0.1816  0.2514  0.4276
 9121TIP3    H148778   5.374   0.355  16.799 -0.1241  0.2508  1.1915
 9121TIP3    H248779   5.282   0.279  16.893 -0.2710 -1.4059 -0.2311
 9122TIP3   OH248780   2.069   1.681  11.348  0.0490  0.3160 -0.0031
 9122TIP3    H148781   1.996   1.625  11.374  0.2404  0.6298  1.2613
 9122TIP3    H248782   2.030   1.766  11.332 -0.0099  0.2243 -0.3509
 9123TIP3   OH248783   5.728   5.448  11.437  0.4889  0.1179 -0.3228
 9123TIP3    H148784   5.776   5.503  11.376  0.0615  0.5777 -0.2509
 9123TIP3    H248785   5.637   5.453  11.408  0.4134 -0.3811 -0.1868
 9124TIP3   OH248786   5.795   3.406  12.758 -0.9579 -0.0447  0.1794
 9124TIP3    H148787   5.729   3.476  12.759 -0.2923  0.6430 -1.0775
 9124TIP3    H248788   5.752   3.331  12.800 -2.1531  0.7070  0.3393
 9125TIP3   OH248789   1.053   0.861  14.033 -0.3371 -0.0900  0.8158
 9125TIP3    H148790   1.079   0.816  13.952  0.0098 -0.7790  1.2917
 9125TIP3    H248791   0.958   0.858  14.033 -0.4332  1.7178 -0.5452
 9126TIP3   OH248792   4.343   2.992  13.848 -0.1370 -0.3481  0.0058
 9126TIP3    H148793   4.356   3.058  13.917  2.9420 -0.6914 -0.1286
 9126TIP3    H248794   4.278   2.933  13.885  1.2132 -0.3860  2.5910
 9127TIP3   OH248795   4.388   5.582   0.194  0.3581  0.2111 -0.3134
 9127TIP3    H148796   4.455   5.520   0.166  0.5955  0.4243 -0.2261
 9127TIP3    H248797   4.321   5.579   0.126  0.5040  0.0671 -0.4496
 9128TIP3   OH248798   2.850   2.387   5.069  0.4680  0.3251  0.2173
 9128TIP3    H148799   2.831   2.415   4.980  1.9410  1.6209  0.2864
 9128TIP3    H248800   2.889   2.300   5.059 -0.1426  0.1062 -0.3203
 9129TIP3   OH248801   3.085   0.551  13.762 -0.0297  0.3002 -0.1323
 9129TIP3    H148802   3.114   0.529  13.850  0.2091  0.8474 -0.0690
 9129TIP3    H248803   3.165   0.570  13.714 -0.2721  2.7981  0.3133
 9130TIP3   OH248804   1.929   2.944  16.977  0.0545 -0.5572  0.1921
 9130TIP3    H148805   1.838   2.915  16.979 -0.5906  1.2047 -1.1321
 9130TIP3    H248806   1.943   2.985  17.062 -0.5650 -0.3083  0.1742
 9131TIP3   OH248807   3.658   0.660  15.522 -0.3951  0.1044  0.6550
 9131TIP3    H148808   3.646   0.744  15.564  0.7100  1.3755 -1.3861
 9131TIP3    H248809   3.745   0.631  15.550  0.3210  0.9285 -0.6057
 9132TIP3   OH248810   2.633   1.033   0.114  0.0752 -0.3756  0.0390
 9132TIP3    H148811   2.664   1.083   0.190 -0.9485  0.4203 -0.0545
 9132TIP3    H248812   2.713   0.995   0.077  0.5549 -1.2859  1.8450
 9133TIP3   OH248813   0.979   3.801   3.825  0.3276  0.7017  0.7602
 9133TIP3    H148814   0.903   3.805   3.883 -0.5873 -1.9639 -0.0899
 9133TIP3    H248815   1.054   3.813   3.883 -0.6021 -0.6833  2.3561
 9134TIP3   OH248816   1.478   3.672  15.745 -0.2257  0.0544  0.4350
 9134TIP3    H148817   1.486   3.628  15.829  2.7057  1.5159  1.0427
 9134TIP3    H248818   1.536   3.748  15.752 -0.3071  0.5330 -2.7093
 9135TIP3   OH248819   2.293   5.852   2.812 -0.0312 -0.2891 -0.7201
 9135TIP3    H148820   2.294   5.921   2.746  0.1886 -0.2678 -0.6972
 9135TIP3    H248821   2.300   5.899   2.895  4.8338 -0.3858 -0.7536
 9136TIP3   OH248822   2.312   1.508  11.260  0.2620 -0.0500  0.2678
 9136TIP3    H148823   2.300   1.487  11.167  1.4268 -0.6177  0.2190
 9136TIP3    H248824   2.262   1.589  11.273  0.0687  0.0344 -0.8524
 9137TIP3   OH248825   6.304   5.127  14.573  0.0682 -0.0627 -0.1048
 9137TIP3    H148826   6.397   5.105  14.567  0.0607 -0.4851  0.9956
 9137TIP3    H248827   6.267   5.056  14.626 -0.4871  1.1157  1.1565
 9138TIP3   OH248828   3.131   6.516  12.078 -0.6205 -0.0546  0.1826
 9138TIP3    H148829   3.193   6.563  12.133 -1.1353  0.4674  0.3234
 9138TIP3    H248830   3.186   6.471  12.013 -0.1104  0.6534  0.1081
 9139TIP3   OH248831   5.356   5.367   4.152  0.2510  0.0580 -0.3216
 9139TIP3    H148832   5.267   5.383   4.182 -0.6989 -1.3538 -2.1619
 9139TIP3    H248833   5.393   5.307   4.217  0.3247  1.5800  1.0940
 9140TIP3   OH248834   6.121   6.727  12.469  0.3729  0.5319 -0.3972
 9140TIP3    H148835   6.120   6.741  12.564  0.4044 -0.5842 -0.2117
 9140TIP3    H248836   6.033   6.693  12.449  1.0843 -1.5211 -0.3478
 9141TIP3   OH248837   5.117   5.625  11.891 -0.1228 -0.4277 -0.2328
 9141TIP3    H148838   5.096   5.533  11.877 -1.7038 -0.3267  1.2758
 9141TIP3    H248839   5.167   5.627  11.973 -0.0988  0.0668 -0.2525
 9142TIP3   OH248840   0.325   5.998  13.500  0.0902  0.0650  0.1367
 9142TIP3    H148841   0.291   6.076  13.455  1.3703  0.6535  0.1573
 9142TIP3    H248842   0.353   6.031  13.585 -0.0256 -0.5727  0.4217
 9143TIP3   OH248843   2.835   2.286   2.290 -0.1570  0.4108  0.0080
 9143TIP3    H148844   2.859   2.375   2.263  1.0793  0.0007 -0.3147
 9143TIP3    H248845   2.905   2.259   2.349 -1.3212  0.1943  1.3494
 9144TIP3   OH248846   1.499   2.230  14.440  0.0953  0.4749  0.1006
 9144TIP3    H148847   1.462   2.272  14.362 -0.7623  0.1493  0.3258
 9144TIP3    H248848   1.457   2.274  14.514  0.8425  0.7229  0.3895
 9145TIP3   OH248849   3.085   2.620   6.628 -0.6388 -0.4587 -0.1472
 9145TIP3    H148850   3.051   2.643   6.715  1.8895  3.0804  0.1577
 9145TIP3    H248851   3.088   2.525   6.628 -0.3255 -0.6503  3.9090
 9146TIP3   OH248852   4.043   1.444   6.039  0.1552  0.4980 -0.3763
 9146TIP3    H148853   4.006   1.356   6.035  0.8365  0.2303 -1.2971
 9146TIP3    H248854   4.031   1.471   6.130  0.1526 -0.6476 -0.0151
 9147TIP3   OH248855   4.139   2.490   4.075 -0.2408 -0.0852 -0.1404
 9147TIP3    H148856   4.139   2.585   4.059 -0.0440  0.0281  0.5133
 9147TIP3    H248857   4.093   2.454   3.999 -0.0612  0.5066 -0.5416
 9148TIP3   OH248858   3.019   6.605  11.844  0.1630  0.0544 -0.5176
 9148TIP3    H148859   2.942   6.553  11.821 -0.8701  0.6507  1.3695
 9148TIP3    H248860   3.048   6.570  11.929  1.3523  0.5274 -0.7044
 9149TIP3   OH248861   5.858   6.117   1.964  0.2673 -0.6107 -0.2906
 9149TIP3    H148862   5.913   6.152   2.034 -0.0622 -0.9390  0.1381
 9149TIP3    H248863   5.852   6.023   1.982 -4.0679 -0.1147  2.3430
 9150TIP3   OH248864   1.736   2.912  12.504  0.1157  0.1690 -0.0720
 9150TIP3    H148865   1.794   2.837  12.493  0.9012  0.7127  0.2119
 9150TIP3    H248866   1.776   2.981  12.452 -0.9818  0.2007 -0.8970
 9151TIP3   OH248867   2.015   0.230  12.060 -0.8736 -0.5565 -0.1411
 9151TIP3    H148868   1.954   0.188  12.119 -1.3688  0.9149  0.4497
 9151TIP3    H248869   2.097   0.183  12.072 -1.2367 -0.9387  0.9372
 9152TIP3   OH248870   0.370   2.689  10.784 -0.1702 -0.1977  0.0262
 9152TIP3    H148871   0.402   2.612  10.831 -0.6265 -0.5745 -0.2710
 9152TIP3    H248872   0.425   2.695  10.707  0.0024 -0.1017  0.1571
 9153TIP3   OH248873   2.964   0.730   0.429 -0.8205  0.4865  0.2225
 9153TIP3    H148874   2.908   0.797   0.470 -0.5225  0.7125  0.2607
 9153TIP3    H248875   3.051   0.769   0.427 -0.6303  0.0716  0.3009
 9154TIP3   OH248876   4.188   4.406  14.443  0.2822  0.1863  0.1807
 9154TIP3    H148877   4.093   4.391  14.437  0.2765  0.2416  0.1237
 9154TIP3    H248878   4.196   4.501  14.450  0.4126  0.3714 -1.8000
 9155TIP3   OH248879   6.027   1.769   6.033  0.1148  0.2196  0.4401
 9155TIP3    H148880   5.934   1.792   6.041  0.1002  1.4447 -2.1996
 9155TIP3    H248881   6.058   1.762   6.123 -2.4896 -0.0555  1.3883
 9156TIP3   OH248882   4.475   0.042  11.800 -1.0457 -0.4020 -0.3388
 9156TIP3    H148883   4.498  -0.048  11.820  0.6889 -0.1307 -0.9229
 9156TIP3    H248884   4.385   0.038  11.768 -0.8586 -1.9686 -0.7417
 9157TIP3   OH248885   3.112   0.189  16.290 -0.0876 -0.8730 -0.0365
 9157TIP3    H148886   3.140   0.210  16.201  2.5188 -1.9729  0.4240
 9157TIP3    H248887   3.106   0.093  16.291  0.6365 -0.9275  1.1262
 9158TIP3   OH248888   1.890   1.081  14.059  0.2909 -0.1697  0.3575
 9158TIP3    H148889   1.931   1.000  14.089  1.3035 -0.3830 -1.4550
 9158TIP3    H248890   1.812   1.090  14.113  1.6292 -0.8344  2.5321
 9159TIP3   OH248891   0.372   0.957   3.131  0.6980 -0.4676 -0.3042
 9159TIP3    H148892   0.338   1.044   3.152 -1.2336 -1.0228 -0.8969
 9159TIP3    H248893   0.389   0.959   3.037 -0.0988 -0.9273 -0.4741
 9160TIP3   OH248894   6.637   5.467   5.592  0.0426 -0.8637  0.1508
 9160TIP3    H148895   6.591   5.466   5.508 -1.1560 -0.3303  0.7744
 9160TIP3    H248896   6.729   5.461   5.569 -0.0668  1.6597 -1.3777
 9161TIP3   OH248897   2.640   1.034   3.778 -0.1938 -0.0996 -0.2801
 9161TIP3    H148898   2.714   0.983   3.810  0.1055  1.5325  1.8954
 9161TIP3    H248899   2.576   0.968   3.750  1.0518 -1.6026  0.2679
 9162TIP3   OH248900   4.741   5.776  13.957 -0.1575 -0.0995  0.5377
 9162TIP3    H148901   4.710   5.863  13.935  1.4164  0.5036  0.5511
 9162TIP3    H248902   4.671   5.737  14.008 -0.8298  1.2099  0.6458
 9163TIP3   OH248903   2.665   5.797   5.612  0.0917 -0.2411  0.1572
 9163TIP3    H148904   2.685   5.726   5.551 -0.8803  0.7795 -1.4298
 9163TIP3    H248905   2.659   5.754   5.697  0.4090 -1.9106 -0.6078
 9164TIP3   OH248906   1.372   5.555   2.532  0.0621  0.2274 -1.2428
 9164TIP3    H148907   1.449   5.504   2.555  0.1676  0.8330 -0.2155
 9164TIP3    H248908   1.313   5.492   2.491 -0.3441 -1.0486  1.1200
 9165TIP3   OH248909   6.679   1.026  16.300  0.1679  0.3193  0.0987
 9165TIP3    H148910   6.752   0.987  16.251  0.0626 -2.0471  1.6671
 9165TIP3    H248911   6.671   1.114  16.265  1.4461 -0.5419 -2.6482
 9166TIP3   OH248912   4.235   6.474   5.924  0.3911  0.4439  0.2209
 9166TIP3    H148913   4.151   6.435   5.901 -0.0339  1.5132 -0.0996
 9166TIP3    H248914   4.228   6.494   6.017  0.9483 -1.0218  0.6106
 9167TIP3   OH248915   1.161   2.131   0.948 -0.6938  0.8180 -0.6194
 9167TIP3    H148916   1.115   2.196   1.000 -0.3741 -1.0808  2.2575
 9167TIP3    H248917   1.104   2.054   0.948 -0.0670  0.3025 -1.9679
 9168TIP3   OH248918   3.361   4.312  13.383  0.5566 -0.3417 -0.1171
 9168TIP3    H148919   3.392   4.372  13.316  0.8384 -0.9997 -0.5846
 9168TIP3    H248920   3.328   4.236  13.335 -0.6824 -0.1781  0.4216
 9169TIP3   OH248921   3.791   5.793  11.240  0.4414 -0.3598 -0.1552
 9169TIP3    H148922   3.697   5.810  11.248  0.6160  0.4066  0.4208
 9169TIP3    H248923   3.830   5.880  11.236  1.2289 -0.6416  0.9445
 9170TIP3   OH248924   3.645   3.392  13.197  0.5178  0.7316  0.5152
 9170TIP3    H148925   3.614   3.405  13.286  1.7931  1.5678  0.8628
 9170TIP3    H248926   3.740   3.388  13.205  0.6475  0.7553 -0.7994
 9171TIP3   OH248927   5.600   0.587  12.460 -0.1498 -0.3867 -0.0535
 9171TIP3    H148928   5.525   0.645  12.444 -0.4317 -1.2414 -2.1658
 9171TIP3    H248929   5.564   0.499  12.449  0.7964 -0.8746  0.6631
 9172TIP3   OH248930   5.368   1.215   4.171 -0.2078 -0.1897  0.0388
 9172TIP3    H148931   5.316   1.139   4.199  0.0636 -0.6095 -0.5766
 9172TIP3    H248932   5.368   1.273   4.247 -2.8190  0.5280 -0.4162
 9173TIP3   OH248933   6.003   2.051  12.736  0.0720 -0.5021  0.1454
 9173TIP3    H148934   6.032   1.979  12.680 -1.4547 -0.8262 -0.2785
 9173TIP3    H248935   6.052   2.127  12.704  0.7767 -1.0941 -0.2247
 9174TIP3   OH248936   3.694   1.358  10.668 -0.2566 -0.4113 -0.3995
 9174TIP3    H148937   3.732   1.409  10.597 -0.3706 -0.4180 -0.4652
 9174TIP3    H248938   3.672   1.274  10.627  2.5770 -1.6304  0.3094
 9175TIP3   OH248939   3.478   3.215   3.452  0.1497 -0.7424  0.0863
 9175TIP3    H148940   3.531   3.228   3.374 -0.8300  1.3595 -0.2841
 9175TIP3    H248941   3.389   3.206   3.420 -0.2029 -0.3848  0.9189
 9176TIP3   OH248942   6.138   4.536  13.739 -0.0821 -0.5519  0.0434
 9176TIP3    H148943   6.103   4.581  13.662 -0.1964  2.2675  1.6247
 9176TIP3    H248944   6.233   4.549  13.733 -0.1133 -0.0854  0.4973
 9177TIP3   OH248945   6.564   1.030  12.205  0.4420  0.5616  0.1932
 9177TIP3    H148946   6.617   1.028  12.125  0.0973 -0.0155 -0.0285
 9177TIP3    H248947   6.571   0.942  12.241 -1.6650 -0.0548 -0.7335
 9178TIP3   OH248948   3.679   0.929   2.724  0.2538  0.6127 -0.2556
 9178TIP3    H148949   3.670   1.004   2.664 -0.5278  0.9551  0.2656
 9178TIP3    H248950   3.722   0.862   2.672  0.2290  1.1506 -0.9893
 9179TIP3   OH248951   0.055   0.343  14.845 -0.0038  0.3665  0.0020
 9179TIP3    H148952   0.005   0.295  14.911 -0.6366 -0.3503 -0.9763
 9179TIP3    H248953  -0.001   0.418  14.823 -1.3898 -1.1842 -2.1191
 9180TIP3   OH248954   5.574   2.405   2.898  0.1779  0.0033 -0.7728
 9180TIP3    H148955   5.558   2.413   2.992  0.2247  1.0008 -0.8313
 9180TIP3    H248956   5.489   2.418   2.857 -0.1511 -2.0855 -0.8279
 9181TIP3   OH248957   4.204   4.329   3.122 -0.1417  0.2187  0.1394
 9181TIP3    H148958   4.210   4.274   3.044 -3.0390 -0.4848  0.2906
 9181TIP3    H248959   4.253   4.282   3.189 -0.2817 -0.7871 -0.4530
 9182TIP3   OH248960   6.004   3.733   5.487 -0.2678 -0.2534  0.1512
 9182TIP3    H148961   6.008   3.774   5.574 -1.3308 -0.0494  0.1195
 9182TIP3    H248962   5.912   3.740   5.462  0.0199 -0.3520 -0.9776
 9183TIP3   OH248963   1.232   3.651   5.471  0.2686 -0.0414  0.0858
 9183TIP3    H148964   1.203   3.740   5.491  1.0719  0.6953 -1.7990
 9183TIP3    H248965   1.300   3.633   5.536  1.4623  1.4956 -0.6784
 9184TIP3   OH248966   5.420   5.547  16.145  0.4121  0.1673 -0.3916
 9184TIP3    H148967   5.404   5.637  16.173 -1.4340 -0.2548  0.0853
 9184TIP3    H248968   5.515   5.540  16.137  0.6615  1.7988  0.7223
 9185TIP3   OH248969   6.138   0.582  15.186 -0.3175  0.9860 -0.1235
 9185TIP3    H148970   6.097   0.635  15.255 -1.3628  0.4160 -0.2842
 9185TIP3    H248971   6.086   0.600  15.108  0.2923  0.9186 -0.5480
 9186TIP3   OH248972   6.030   1.928   0.323  0.6496 -0.0919  0.6366
 9186TIP3    H148973   6.059   1.896   0.238  0.4620  0.6683  0.2796
 9186TIP3    H248974   6.070   2.015   0.331 -2.6188  1.7193 -0.5702
 9187TIP3   OH248975   2.185   5.948   2.161 -0.0110 -0.2130  0.1870
 9187TIP3    H148976   2.138   5.974   2.240  1.1019 -0.0278  0.7950
 9187TIP3    H248977   2.276   5.936   2.189  0.4362  0.0235 -1.0929
 9188TIP3   OH248978   5.905   3.220   6.575 -0.0750  0.0891  0.1517
 9188TIP3    H148979   5.925   3.129   6.598  0.8343  0.0909 -0.5758
 9188TIP3    H248980   5.986   3.267   6.590  0.3575  0.2276 -2.2279
 9189TIP3   OH248981   1.987   0.958   3.503  0.1103  0.3235 -0.3348
 9189TIP3    H148982   2.079   0.939   3.524 -0.1121  0.7805  1.1916
 9189TIP3    H248983   1.984   1.054   3.500 -0.4989  0.3431  0.5900
 9190TIP3   OH248984   6.635   5.073  16.231  0.4938  0.7069  0.2001
 9190TIP3    H148985   6.622   5.149  16.174  1.1858  2.0345  1.7422
 9190TIP3    H248986   6.547   5.044  16.254  0.1515  2.7324  1.7050
 9191TIP3   OH248987   3.390   3.310   4.996 -0.1060 -0.3939 -0.3089
 9191TIP3    H148988   3.357   3.379   5.053  0.5563 -0.1048 -0.2659
 9191TIP3    H248989   3.355   3.229   5.034 -0.3094 -0.1382  0.0516
 9192TIP3   OH248990   6.353   2.916  16.526  0.5132 -0.1212 -0.1452
 9192TIP3    H148991   6.321   2.987  16.582 -1.3455 -1.5801  0.7635
 9192TIP3    H248992   6.361   2.841  16.585  3.7160 -0.4239 -0.8123
 9193TIP3   OH248993   0.531   6.436   0.783  0.1976 -0.7122  0.3384
 9193TIP3    H148994   0.618   6.435   0.824 -0.4057  3.6412  2.3561
 9193TIP3    H248995   0.548   6.457   0.691  1.3440  0.5533  0.8033
 9194TIP3   OH248996   3.047   4.182   0.914 -0.2771  0.1090 -0.0004
 9194TIP3    H148997   3.049   4.253   0.978 -2.1876  0.3045 -0.1051
 9194TIP3    H248998   3.099   4.215   0.841 -1.8124  1.8032 -0.4073
 9195TIP3   OH248999   5.139   5.285   5.465 -0.2074 -0.0523  0.1414
 9195TIP3    H149000   5.168   5.293   5.374 -0.0077  0.8609  0.2738
 9195TIP3    H249001   5.209   5.236   5.509  0.5694  1.0566  0.1837
 9196TIP3   OH249002   4.617   4.222  13.704 -0.3143 -0.1414  0.5405
 9196TIP3    H149003   4.545   4.165  13.676  0.1784 -0.5442  0.0759
 9196TIP3    H249004   4.647   4.264  13.624 -0.5083  0.5880  0.8432
 9197TIP3   OH249005   6.463   6.203   4.085  0.0451 -0.0355 -0.7088
 9197TIP3    H149006   6.435   6.144   4.155  0.7786 -1.4286 -1.5343
 9197TIP3    H249007   6.384   6.249   4.059 -0.3624  0.0488  0.5952
 9198TIP3   OH249008   0.137   3.266   4.222 -0.0742  0.2433 -0.5541
 9198TIP3    H149009   0.193   3.344   4.224  1.0322 -0.5257  0.2793
 9198TIP3    H249010   0.048   3.300   4.234  0.4422  1.3475  0.4269
 9199TIP3   OH249011   2.810   2.069  16.810  0.9014 -0.1931  0.0553
 9199TIP3    H149012   2.789   2.064  16.717  0.4466  1.7896  0.0037
 9199TIP3    H249013   2.724   2.068  16.854  1.0050  0.7664  0.3048
 9200TIP3   OH249014   3.676   1.383  14.310  0.2463  0.3130 -0.6779
 9200TIP3    H149015   3.760   1.396  14.266 -0.6116  0.6016 -2.3064
 9200TIP3    H249016   3.624   1.460  14.285 -0.9282 -0.4863 -0.7395
 9201TIP3   OH249017   0.591   3.596   2.823 -0.2951  0.2509  0.1746
 9201TIP3    H149018   0.532   3.624   2.892 -1.6279 -2.2004  0.1504
 9201TIP3    H249019   0.560   3.641   2.744 -2.3597 -1.1716  0.1173
 9202TIP3   OH249020   5.106   4.390   1.640  0.2454 -0.0663 -0.2888
 9202TIP3    H149021   5.155   4.308   1.633  0.7138  0.0787  1.0869
 9202TIP3    H249022   5.111   4.428   1.552  1.5995 -0.6350 -0.4830
 9203TIP3   OH249023   6.641   6.754  14.235  0.8690  0.2822  0.5337
 9203TIP3    H149024   6.608   6.801  14.311 -1.0438  2.4329 -1.4268
 9203TIP3    H249025   6.562   6.725  14.189  1.9658 -3.0166  0.4631
 9204TIP3   OH249026   3.658   3.456   1.806  0.0779  0.2967  0.6108
 9204TIP3    H149027   3.657   3.433   1.899  0.0156  0.6591  0.7014
 9204TIP3    H249028   3.728   3.521   1.799  1.7421 -1.4605 -0.0194
 9205TIP3   OH249029   3.727   6.775  14.043  0.3827  0.2324 -0.0657
 9205TIP3    H149030   3.681   6.752  14.123  1.5783 -0.6178  0.4092
 9205TIP3    H249031   3.696   6.863  14.022  0.1552  0.5323  1.4146
 9206TIP3   OH249032   0.956   1.098   1.780  0.0825 -0.4654 -0.2788
 9206TIP3    H149033   0.987   1.181   1.817  1.4580 -1.3373  0.5710
 9206TIP3    H249034   0.895   1.064   1.845 -1.5177  0.4618 -1.2184
 9207TIP3   OH249035   2.282   4.859  15.038  0.1608  0.1971 -0.0551
 9207TIP3    H149036   2.264   4.841  15.130  0.6716  1.7994  0.3943
 9207TIP3    H249037   2.203   4.903  15.006  1.0443  2.2370  0.4292
 9208TIP3   OH249038   3.158   0.419   0.734 -0.6602 -0.0122  0.0909
 9208TIP3    H149039   3.092   0.370   0.782 -0.1926 -0.7024  0.0437
 9208TIP3    H249040   3.145   0.510   0.762  0.0086 -0.4630  2.0348
 9209TIP3   OH249041   4.872   3.133  13.267  0.3109  0.3348  0.8153
 9209TIP3    H149042   4.914   3.179  13.195  0.8897 -1.0376  0.2214
 9209TIP3    H249043   4.841   3.051  13.228  2.8368 -1.6202  2.5249
 9210TIP3   OH249044   3.380   0.637  15.484 -0.0397 -0.0195 -0.4881
 9210TIP3    H149045   3.476   0.647  15.487  0.2637 -1.9477 -1.7096
 9210TIP3    H249046   3.364   0.591  15.402 -2.1600  1.1992 -0.8263
 9211TIP3   OH249047   3.415   1.731   0.545  0.7578  0.3264  0.0884
 9211TIP3    H149048   3.394   1.674   0.619  0.2548  0.7400  0.2698
 9211TIP3    H249049   3.506   1.758   0.560  1.3816 -1.2841 -0.5755
 9212TIP3   OH249050   6.166   4.820   2.192  0.3579  0.0526 -0.2199
 9212TIP3    H149051   6.195   4.730   2.182 -0.3164 -0.2582  0.4501
 9212TIP3    H249052   6.134   4.824   2.283 -2.0332  0.2326 -1.0025
 9213TIP3   OH249053   6.234   4.898  14.364  0.3813 -0.3082 -0.4570
 9213TIP3    H149054   6.293   4.823  14.375  2.2268  0.6095 -3.1160
 9213TIP3    H249055   6.273   4.968  14.416 -0.3290 -0.6223  0.5379
 9214TIP3   OH249056   4.067   2.760   5.651  0.1089  0.2424 -0.1085
 9214TIP3    H149057   4.096   2.701   5.721  1.0441  1.6850  0.7598
 9214TIP3    H249058   4.054   2.702   5.576 -1.0311 -1.3716  1.2589
 9215TIP3   OH249059   3.139   2.879  11.637  0.2171  0.0626 -0.2715
 9215TIP3    H149060   3.087   2.946  11.593  0.4484  0.0569 -0.5555
 9215TIP3    H249061   3.114   2.797  11.594  0.8459  0.1266 -0.7735
 9216TIP3   OH249062   5.835   4.913  15.854  0.3884  0.2206  0.4869
 9216TIP3    H149063   5.831   4.894  15.948  0.9897 -1.7990  0.1730
 9216TIP3    H249064   5.928   4.929  15.837  0.0733  2.2736  0.4742
 9217TIP3   OH249065   0.958   0.667   3.142 -0.4053  0.1918  0.0311
 9217TIP3    H149066   0.914   0.733   3.089 -0.6532 -0.2853 -0.3674
 9217TIP3    H249067   0.906   0.587   3.128  0.7614 -0.4614 -0.6751
 9218TIP3   OH249068   4.433   1.924  15.959 -0.3372 -0.2574  0.0061
 9218TIP3    H149069   4.529   1.917  15.959 -0.2395  0.7446 -1.2091
 9218TIP3    H249070   4.404   1.839  15.925 -0.0229 -1.4011  2.3671
 9219TIP3   OH249071   3.668   6.546   2.161 -0.1680  0.2474 -0.0256
 9219TIP3    H149072   3.684   6.583   2.248 -0.1379 -2.0336  1.0326
 9219TIP3    H249073   3.611   6.609   2.117  0.6820  1.9620  1.2381
 9220TIP3   OH249074   6.564   2.950  16.294 -0.3663 -0.0233  0.0958
 9220TIP3    H149075   6.495   2.980  16.353 -0.1874 -0.6960  0.6579
 9220TIP3    H249076   6.581   2.859  16.321 -1.3429 -0.8829 -1.9652
 9221TIP3   OH249077   3.020   1.221  15.319  0.7209 -0.4932  0.2304
 9221TIP3    H149078   3.007   1.307  15.279  2.2436  0.2332  1.2230
 9221TIP3    H249079   3.041   1.164  15.245  0.2195  0.0828 -0.3790
 9222TIP3   OH249080   5.506   1.488  11.383  0.0632 -0.0038  0.5771
 9222TIP3    H149081   5.510   1.421  11.314  0.9914  0.4666  0.1493
 9222TIP3    H249082   5.468   1.565  11.340  0.5269  0.2513  0.6117
 9223TIP3   OH249083   5.923   4.727  17.037  0.1975  0.5785 -0.3878
 9223TIP3    H149084   5.849   4.758  16.985 -0.5397  0.0694  0.3390
 9223TIP3    H249085   5.887   4.656  17.090  0.7839  1.4656  1.2572
 9224TIP3   OH249086   6.529   1.677  12.947 -0.5206  0.5539 -0.6514
 9224TIP3    H149087   6.576   1.594  12.949  1.4498  1.4750  3.3570
 9224TIP3    H249088   6.439   1.654  12.968  0.4682 -0.6286  3.2606
 9225TIP3   OH249089   3.904   0.600  12.311  0.1964 -0.1459 -1.0414
 9225TIP3    H149090   3.821   0.624  12.351  0.3669  0.0873 -0.8145
 9225TIP3    H249091   3.887   0.601  12.217  0.0276  0.2409 -1.0104
 9226TIP3   OH249092   2.746   2.301   5.318 -0.1008  0.6550 -0.0911
 9226TIP3    H149093   2.764   2.369   5.254  1.2564  0.5817  0.1828
 9226TIP3    H249094   2.653   2.281   5.307 -0.2840  1.8600 -0.8337
 9227TIP3   OH249095   4.410   5.649   2.891 -0.1915  0.8803  0.1968
 9227TIP3    H149096   4.318   5.637   2.916 -0.2278  1.6130  0.4182
 9227TIP3    H249097   4.425   5.743   2.897  0.6985  0.7266  0.6095
 9228TIP3   OH249098   5.768   5.028   4.823  0.3534 -0.1067 -0.2040
 9228TIP3    H149099   5.698   5.067   4.771 -2.2542 -2.9196  0.8707
 9228TIP3    H249100   5.776   5.085   4.899 -0.3122  0.5959 -0.6489
 9229TIP3   OH249101   1.182   2.943  14.222 -0.1026 -0.0407 -0.0329
 9229TIP3    H149102   1.152   3.016  14.167  0.2867 -0.1618 -0.4141
 9229TIP3    H249103   1.102   2.892  14.239 -0.1582 -0.2669 -0.8985
 9230TIP3   OH249104   5.228   3.315   5.505  0.0249  0.5867 -0.2105
 9230TIP3    H149105   5.199   3.247   5.444  1.2801  0.3301 -0.5388
 9230TIP3    H249106   5.159   3.318   5.572  0.5706 -1.9684  0.5863
 9231TIP3   OH249107   2.697   0.093  11.881  0.4566 -0.0906  0.2090
 9231TIP3    H149108   2.735   0.099  11.793 -4.3962 -0.0321 -2.1633
 9231TIP3    H249109   2.642   0.170  11.890 -1.8919 -1.8051  1.7788
 9232TIP3   OH249110   2.793   5.447  11.142 -0.4427 -0.2029  0.4324
 9232TIP3    H149111   2.814   5.499  11.064  1.9590 -1.3538  0.2405
 9232TIP3    H249112   2.817   5.504  11.216  1.1433 -0.5681  0.2344
 9233TIP3   OH249113   1.637   2.274   4.862  0.2182  0.1290 -0.4626
 9233TIP3    H149114   1.575   2.345   4.847 -0.0527 -0.1321 -0.5920
 9233TIP3    H249115   1.630   2.219   4.784  2.1508  1.2031 -1.4514
 9234TIP3   OH249116   2.677   1.073   4.046  0.2756  0.5709  0.2672
 9234TIP3    H149117   2.646   1.047   3.960  2.9147 -0.2953 -0.4898
 9234TIP3    H249118   2.722   1.156   4.032 -0.7237  1.3016  1.1610
 9235TIP3   OH249119   4.615   2.020   5.900 -0.2523 -0.6039  0.1142
 9235TIP3    H149120   4.521   2.008   5.909 -0.2086 -1.6850 -0.6564
 9235TIP3    H249121   4.648   2.021   5.990 -1.1046  0.9498  0.4339
 9236TIP3   OH249122   4.571   6.360   2.426 -0.5088 -0.4279 -0.6416
 9236TIP3    H149123   4.535   6.334   2.341 -0.5703 -1.6416 -0.2540
 9236TIP3    H249124   4.501   6.342   2.489 -0.5642  0.7161 -0.3445
 9237TIP3   OH249125   1.341   2.667  15.113 -0.1040 -0.0339  0.0231
 9237TIP3    H149126   1.253   2.675  15.150 -0.1017 -2.1510  0.5927
 9237TIP3    H249127   1.348   2.576  15.085  0.8811  0.7716 -2.7889
 9238TIP3   OH249128   5.508   5.522   0.808  0.0916 -0.4496 -0.6001
 9238TIP3    H149129   5.536   5.606   0.845 -0.9765  0.8529 -2.5436
 9238TIP3    H249130   5.541   5.457   0.869  0.9689  1.3736  0.9986
 9239TIP3   OH249131   1.644   5.423   3.338  0.3289 -0.4099 -0.0386
 9239TIP3    H149132   1.561   5.468   3.325 -0.1593 -1.4519 -0.5746
 9239TIP3    H249133   1.704   5.492   3.368 -0.7660  0.3121  0.5510
 9240TIP3   OH249134   2.748   2.168  13.100  0.0610 -0.1633  0.1658
 9240TIP3    H149135   2.769   2.256  13.069  1.0512 -0.3300  0.3216
 9240TIP3    H249136   2.657   2.174  13.130 -0.0058  0.7028 -0.1666
 9241TIP3   OH249137   4.363   0.355  14.243  0.5178  0.1311 -0.2883
 9241TIP3    H149138   4.315   0.332  14.322  1.7932  2.0364  1.1335
 9241TIP3    H249139   4.452   0.324  14.259  0.9382  1.0732 -0.6958
 9242TIP3   OH249140   0.011   5.159   2.359 -0.2279  0.6102  0.3260
 9242TIP3    H149141  -0.015   5.250   2.368  0.8648  1.0193 -0.4043
 9242TIP3    H249142   0.098   5.163   2.320 -0.8747 -0.7877 -1.3595
 9243TIP3   OH249143   6.092   4.296  11.320 -0.0594 -0.0271  0.5184
 9243TIP3    H149144   6.015   4.252  11.284  0.4465 -0.3832 -0.1737
 9243TIP3    H249145   6.133   4.338  11.244 -0.3174  1.3212  1.1068
 9244TIP3   OH249146   5.527   3.650   1.311 -0.4957  0.1692 -0.5297
 9244TIP3    H149147   5.568   3.727   1.272  0.7737  2.5134  4.5874
 9244TIP3    H249148   5.441   3.680   1.341 -0.5784 -0.8037  0.3067
 9245TIP3   OH249149   1.995   6.631  11.280  0.6316  0.2878  0.0720
 9245TIP3    H149150   2.070   6.687  11.300  0.1047  1.2057 -0.4495
 9245TIP3    H249151   2.019   6.587  11.198  0.8226  0.1430  0.2025
 9246TIP3   OH249152   6.196   0.055   1.333 -0.3408 -0.8726 -0.4847
 9246TIP3    H149153   6.251   0.054   1.255 -0.0520 -1.3176 -0.2816
 9246TIP3    H249154   6.206   0.143   1.369 -0.0384 -0.8413 -0.6445
 9247TIP3   OH249155   3.453   6.249   6.310 -0.2848 -0.2677  0.1127
 9247TIP3    H149156   3.369   6.204   6.301 -0.4656 -0.1331  1.0215
 9247TIP3    H249157   3.511   6.183   6.349 -0.2777 -0.0255  0.5172
 9248TIP3   OH249158   2.737   4.365  14.565  0.0216 -0.0640 -0.3100
 9248TIP3    H149159   2.817   4.316  14.584 -0.8625 -1.2979  0.4031
 9248TIP3    H249160   2.673   4.298  14.541 -0.8633  0.8687 -0.6184
 9249TIP3   OH249161   0.820   4.353  15.424  0.1896 -0.3753  0.0975
 9249TIP3    H149162   0.793   4.312  15.507  1.4676 -1.0781  0.1983
 9249TIP3    H249163   0.844   4.279  15.368 -2.6003 -0.0791 -1.7017
 9250TIP3   OH249164   6.622   1.514  16.339  1.0759 -0.3871  0.0701
 9250TIP3    H149165   6.653   1.575  16.407  0.2368 -0.9204  0.9579
 9250TIP3    H249166   6.533   1.543  16.320  0.6352 -1.3767  0.5712
 9251TIP3   OH249167   1.317   1.667   2.175  0.0228  0.7674 -0.6920
 9251TIP3    H149168   1.258   1.732   2.212 -2.6727 -0.7031 -2.0644
 9251TIP3    H249169   1.289   1.584   2.214  1.9786  0.1134 -0.5618
 9252TIP3   OH249170   0.379   5.551   4.016 -0.0650 -0.2956  0.3305
 9252TIP3    H149171   0.358   5.639   3.986  0.4763 -0.7614 -1.5352
 9252TIP3    H249172   0.462   5.560   4.062  0.7358 -0.0299 -1.1248
 9253TIP3   OH249173   5.501   3.142   6.131  0.1305 -0.0916 -0.0523
 9253TIP3    H149174   5.467   3.121   6.218 -1.4511  0.1065 -0.5908
 9253TIP3    H249175   5.544   3.226   6.142 -0.4712  0.1590  0.4517
 9254TIP3   OH249176   2.984   3.394   5.053 -0.0433  0.5059  0.0241
 9254TIP3    H149177   3.034   3.476   5.047  0.2719  0.3372  0.2914
 9254TIP3    H249178   2.893   3.421   5.044  0.0177  0.9579  0.6556
 9255TIP3   OH249179   0.540   0.174   2.798 -0.1623  0.5675  0.6041
 9255TIP3    H149180   0.487   0.249   2.773  1.7402  1.1757 -2.0208
 9255TIP3    H249181   0.488   0.098   2.772 -1.2250  1.0128  1.3745
 9256TIP3   OH249182   5.381   2.030   1.424  0.2519 -0.1527 -0.2045
 9256TIP3    H149183   5.347   1.970   1.490 -0.6332 -2.8573 -2.8882
 9256TIP3    H249184   5.464   2.062   1.460 -1.0611  0.0196  2.9301
 9257TIP3   OH249185   1.554   1.361   1.096  0.0015 -0.3020 -0.4262
 9257TIP3    H149186   1.612   1.425   1.136 -0.1040  0.0161 -0.7827
 9257TIP3    H249187   1.466   1.393   1.116 -0.0535 -0.6995 -0.0204
 9258TIP3   OH249188   0.487   1.535  14.252 -0.4994 -0.0526 -0.0695
 9258TIP3    H149189   0.420   1.536  14.184  0.5858 -1.5503 -1.2121
 9258TIP3    H249190   0.549   1.602  14.226 -0.9436  0.5421  0.3751
 9259TIP3   OH249191   5.826   4.804  14.786 -0.1418 -0.2130  0.2894
 9259TIP3    H149192   5.888   4.812  14.714  0.1358 -2.0086  0.2738
 9259TIP3    H249193   5.740   4.817  14.745  0.1064  0.3161 -0.0655
 9260TIP3   OH249194   2.554   3.627  16.815 -0.3744  0.3495  0.1450
 9260TIP3    H149195   2.554   3.714  16.855  0.1618  0.8024 -0.7856
 9260TIP3    H249196   2.563   3.566  16.888  1.1838  1.1680  0.6719
 9261TIP3   OH249197   2.303   3.280   5.110 -0.1338  0.3188  0.2395
 9261TIP3    H149198   2.297   3.186   5.095 -0.0916  0.6365 -2.1592
 9261TIP3    H249199   2.212   3.311   5.106 -0.1202  0.4162  0.6906
 9262TIP3   OH249200   6.059   0.671   5.799 -0.5293  0.3093 -0.2872
 9262TIP3    H149201   6.015   0.656   5.882 -0.6154  0.5297 -0.2936
 9262TIP3    H249202   6.070   0.584   5.762 -2.1874  0.3447 -0.9318
 9263TIP3   OH249203   3.969   2.103   5.378 -0.4611 -0.3455 -0.4897
 9263TIP3    H149204   3.950   2.127   5.287 -0.1006  1.1527 -0.1959
 9263TIP3    H249205   3.907   2.033   5.398 -2.1120  0.8694 -1.1811
 9264TIP3   OH249206   3.253   0.214  13.704  0.2512  0.7348 -0.1707
 9264TIP3    H149207   3.201   0.261  13.640  0.5861 -0.9087 -1.6988
 9264TIP3    H249208   3.201   0.218  13.785 -1.4282  0.5728 -1.2042
 9265TIP3   OH249209   1.240   4.494   4.015 -0.1942  0.7232 -0.4497
 9265TIP3    H149210   1.149   4.475   4.038 -0.0778 -0.9426 -1.1844
 9265TIP3    H249211   1.235   4.569   3.956 -1.2772 -0.3583 -1.8032
 9266TIP3   OH249212   0.324   1.177   5.575 -0.3665 -0.1988  0.3877
 9266TIP3    H149213   0.336   1.120   5.651  1.9716 -0.5016 -0.1416
 9266TIP3    H249214   0.297   1.261   5.612  2.3744  0.1882  1.8129
 9267TIP3   OH249215   5.952   3.302  14.433 -0.6238 -0.0340  0.6197
 9267TIP3    H149216   6.000   3.384  14.423 -0.6796 -0.2805 -2.8085
 9267TIP3    H249217   5.882   3.323  14.495 -0.2760  2.3596  0.3040
 9268TIP3   OH249218   5.717   6.388   5.620 -0.1189  0.1076 -0.5570
 9268TIP3    H149219   5.726   6.403   5.714  1.6816  0.2404 -0.7136
 9268TIP3    H249220   5.645   6.325   5.613  1.5542 -2.2123  1.1831
 9269TIP3   OH249221   4.032   6.269  11.432  0.3508  0.2125 -0.3911
 9269TIP3    H149222   4.104   6.231  11.382  1.0338 -1.1456  1.5055
 9269TIP3    H249223   3.954   6.223  11.400  0.8131 -0.8325 -0.0860
 9270TIP3   OH249224   3.411   1.001   0.481 -0.1046 -0.0368 -0.1325
 9270TIP3    H149225   3.402   1.090   0.447 -1.5841  1.0475  2.7384
 9270TIP3    H249226   3.369   1.004   0.567  1.8631 -2.9308  1.0975
 9271TIP3   OH249227   0.095   6.737   4.228  0.2370  0.4271  0.2733
 9271TIP3    H149228   0.056   6.795   4.163  0.1861 -0.1416 -0.2146
 9271TIP3    H249229   0.033   6.665   4.237  1.8751 -1.4160 -1.8333
 9272TIP3   OH249230   6.567   0.010   5.260 -0.2437 -0.0586  0.1225
 9272TIP3    H149231   6.588  -0.075   5.298  0.5501  0.3414  0.5948
 9272TIP3    H249232   6.631   0.070   5.297 -3.0466  1.5587  2.8276
 9273TIP3   OH249233   0.173   0.736  11.163  0.5978 -0.1419  0.1516
 9273TIP3    H149234   0.180   0.712  11.255  0.7434  0.6458  0.3546
 9273TIP3    H249235   0.104   0.679  11.128  1.0644 -0.9684  0.5613
 9274TIP3   OH249236   2.359   0.735   5.586 -0.0640  0.3892  0.2040
 9274TIP3    H149237   2.362   0.825   5.619 -0.8854  0.0409  1.3230
 9274TIP3    H249238   2.418   0.734   5.512 -0.8495  2.1314 -0.5037
 9275TIP3   OH249239   5.608   1.950  16.955  0.7488 -0.1097 -0.1516
 9275TIP3    H149240   5.694   1.975  16.922  0.6963  1.4256  0.7382
 9275TIP3    H249241   5.559   1.923  16.877  1.7420 -0.1006 -0.7969
 9276TIP3   OH249242   3.627   0.227  13.943  0.0418  0.2704 -0.3196
 9276TIP3    H149243   3.665   0.251  14.028  0.0156 -0.9322  0.0549
 9276TIP3    H249244   3.616   0.310  13.897  0.6552  0.8805  0.6050
 9277TIP3   OH249245   4.656   3.131  12.145 -0.3945 -0.4203  0.0588
 9277TIP3    H149246   4.562   3.144  12.154  0.0543  2.1920  2.0806
 9277TIP3    H249247   4.672   3.043  12.179 -1.9323 -0.2719  1.2652
 9278TIP3   OH249248   3.998   4.155   1.887  0.4597  0.6632 -0.5429
 9278TIP3    H149249   3.986   4.102   1.966 -3.7320  0.0507 -1.3549
 9278TIP3    H249250   3.944   4.232   1.901  2.8939  2.6263 -1.2723
 9279TIP3   OH249251   4.253   0.031   2.988 -0.0784  0.7270  0.1145
 9279TIP3    H149252   4.310   0.011   3.063  0.8707  2.4473 -0.0853
 9279TIP3    H249253   4.256  -0.048   2.934  0.8810  0.2160  0.8783
 9280TIP3   OH249254   4.348   6.423   5.151 -0.6186  0.6650  0.2507
 9280TIP3    H149255   4.317   6.463   5.070  0.9040  1.4022  0.0176
 9280TIP3    H249256   4.333   6.329   5.138 -0.7910  0.8146 -0.6935
 9281TIP3   OH249257   5.330   1.548   6.027  0.7749  0.6515  0.1116
 9281TIP3    H149258   5.337   1.585   5.939 -0.3649 -1.6693 -1.0494
 9281TIP3    H249259   5.417   1.514   6.046  1.2088  1.7767  0.2004
 9282TIP3   OH249260   4.475   5.217  13.271  0.5572 -0.6155  0.0454
 9282TIP3    H149261   4.558   5.243  13.232  0.2792  1.6660  0.7897
 9282TIP3    H249262   4.453   5.289  13.330  0.2250 -3.1764  3.2978
 9283TIP3   OH249263   1.363   4.030  12.280  0.4699  0.1068 -0.5496
 9283TIP3    H149264   1.394   4.110  12.324 -0.7120  0.1160  0.2968
 9283TIP3    H249265   1.356   4.055  12.188 -0.2198  1.0992 -0.2431
 9284TIP3   OH249266   6.605   3.472  13.731  0.2192  0.1967 -0.0199
 9284TIP3    H149267   6.545   3.425  13.788 -0.6891  1.0540 -0.2355
 9284TIP3    H249268   6.569   3.459  13.643  1.8943 -1.5535 -0.5147
 9285TIP3   OH249269   2.861   6.210   1.390 -0.2322  0.8910 -0.2312
 9285TIP3    H149270   2.854   6.128   1.440 -0.9638  0.8333 -0.4163
 9285TIP3    H249271   2.900   6.183   1.306  0.8801  0.9696  0.2468
 9286TIP3   OH249272   3.889   0.503  14.168 -0.0059 -0.3140 -0.3538
 9286TIP3    H149273   3.905   0.460  14.083 -0.2317 -0.1848 -0.4642
 9286TIP3    H249274   3.969   0.551  14.186  1.0317 -2.3395  0.7244
 9287TIP3   OH249275   1.723   5.921  16.521 -0.2929  0.2550  0.1200
 9287TIP3    H149276   1.706   5.920  16.427 -0.0846  0.1833  0.0837
 9287TIP3    H249277   1.642   5.889  16.560  0.2052 -1.3906 -0.1303
 9288TIP3   OH249278   1.902   1.816  16.484  0.0662 -0.4314  0.2252
 9288TIP3    H149279   1.842   1.794  16.555 -2.2716 -1.0994 -1.8266
 9288TIP3    H249280   1.944   1.733  16.462 -0.5818 -0.6188 -0.3390
 9289TIP3   OH249281   4.399   2.158   4.409  0.6798 -0.6164 -0.0775
 9289TIP3    H149282   4.327   2.097   4.399  1.1588 -1.0221 -1.2775
 9289TIP3    H249283   4.399   2.209   4.328 -0.3462  1.7387  1.2875
 9290TIP3   OH249284   5.523   2.007   1.827 -0.2077 -0.2445  0.3535
 9290TIP3    H149285   5.544   2.068   1.897 -1.3658  1.1006 -0.4331
 9290TIP3    H249286   5.469   1.940   1.869  0.1491 -0.1321  1.0005
 9291TIP3   OH249287   3.494   1.080   4.162  0.0231  0.2064  0.0342
 9291TIP3    H149288   3.555   1.052   4.231  1.6527  0.4175 -1.2641
 9291TIP3    H249289   3.532   1.161   4.128 -1.4549  0.8034 -0.2650
 9292TIP3   OH249290   3.772   2.968   2.545  0.2940 -0.8112  0.3852
 9292TIP3    H149291   3.687   2.946   2.585  0.9245 -0.4332  2.0293
 9292TIP3    H249292   3.809   3.033   2.605  1.7574 -0.9910 -0.3020
 9293TIP3   OH249293   5.780   1.642   0.428 -0.2897 -0.1285 -0.2824
 9293TIP3    H149294   5.807   1.561   0.384 -1.3213 -0.6648  0.0405
 9293TIP3    H249295   5.848   1.658   0.493 -0.9730 -1.7833  0.9214
 9294TIP3   OH249296   5.178   5.766  11.663  0.6243  0.8431  0.1087
 9294TIP3    H149297   5.171   5.719  11.746  0.9734 -0.5612 -0.6219
 9294TIP3    H249298   5.156   5.701  11.597 -1.8361  2.5153 -0.8277
 9295TIP3   OH249299   3.505   5.247  16.220 -0.0757 -0.4232  0.1416
 9295TIP3    H149300   3.415   5.260  16.193 -0.0802  1.8803  1.0881
 9295TIP3    H249301   3.556   5.251  16.139 -0.7391 -1.1181 -0.3223
 9296TIP3   OH249302   4.482   0.220  15.545  0.0487  0.0830 -0.0849
 9296TIP3    H149303   4.533   0.140  15.531  0.8511  0.5104  0.3334
 9296TIP3    H249304   4.515   0.281  15.478  1.6929  1.0940  1.5321
 9297TIP3   OH249305   4.805   1.943  14.299  0.0707 -0.7179  0.4651
 9297TIP3    H149306   4.751   1.898  14.364 -0.8056 -1.1394 -0.5207
 9297TIP3    H249307   4.799   1.887  14.221  3.2492 -1.6595  0.7539
 9298TIP3   OH249308   4.787   1.878   4.681 -0.2493 -0.3680 -0.2134
 9298TIP3    H149309   4.844   1.857   4.607  0.7278 -1.6871  0.8696
 9298TIP3    H249310   4.729   1.947   4.647  1.6588  0.7143 -1.4889
 9299TIP3   OH249311   1.111   1.530  12.869 -0.0921 -0.2996  0.5547
 9299TIP3    H149312   1.021   1.524  12.836 -0.2461 -0.6702  1.0315
 9299TIP3    H249313   1.106   1.500  12.959  0.7399 -1.6318  0.1855
 9300TIP3   OH249314   4.500   1.089   4.667  0.5292 -0.2469 -0.2162
 9300TIP3    H149315   4.475   1.004   4.631 -1.5554  0.2472 -0.0913
 9300TIP3    H249316   4.422   1.144   4.656  2.2768  2.1698 -1.7544
 9301TIP3   OH249317   4.075   0.335  14.380 -0.4253 -0.0461  0.1120
 9301TIP3    H149318   4.131   0.351  14.457 -1.4560 -0.1252  0.9094
 9301TIP3    H249319   4.024   0.416  14.371  0.4717  0.3955 -1.1942
 9302TIP3   OH249320   3.958   3.614   4.597  0.0928 -0.4040 -0.2062
 9302TIP3    H149321   3.951   3.668   4.676 -0.2862  0.4656 -0.8252
 9302TIP3    H249322   4.005   3.535   4.626  1.6367  0.7128  0.4816
 9303TIP3   OH249323   0.330   1.737   5.134  0.4019  0.2694 -0.0499
 9303TIP3    H149324   0.240   1.754   5.162  0.8139  0.5902  1.1521
 9303TIP3    H249325   0.338   1.782   5.050 -0.0130  1.8505  0.7122
 9304TIP3   OH249326   2.477   2.343   4.891 -0.6921  0.4086  0.4452
 9304TIP3    H149327   2.464   2.277   4.959  0.5332 -0.1307  0.1755
 9304TIP3    H249328   2.430   2.420   4.923  0.5163  0.4364  2.2940
 9305TIP3   OH249329   5.368   6.364  14.755  0.1790 -0.3197 -0.0461
 9305TIP3    H149330   5.373   6.460  14.761  1.2121 -0.2788 -1.2229
 9305TIP3    H249331   5.299   6.348  14.690 -0.3355 -0.4062  0.5068
 9306TIP3   OH249332   4.489   5.473   4.236 -0.2856 -0.1373 -0.3505
 9306TIP3    H149333   4.530   5.516   4.310  0.9610 -1.7372 -0.0447
 9306TIP3    H249334   4.395   5.479   4.253 -0.1723  2.2307 -0.2599
 9307TIP3   OH249335   2.123   6.613   2.966  0.5926  0.0470  0.2663
 9307TIP3    H149336   2.168   6.532   2.944  0.8784  0.7822 -2.1597
 9307TIP3    H249337   2.102   6.605   3.059  0.1223 -3.0171 -0.0026
 9308TIP3   OH249338   3.816   2.272   2.565  0.2274 -0.4963  0.4182
 9308TIP3    H149339   3.778   2.248   2.649  0.5537  1.3331  1.1486
 9308TIP3    H249340   3.741   2.298   2.511  0.1313 -0.2982  0.6442
 9309TIP3   OH249341   2.475   2.445  16.600 -1.3603 -0.6574 -0.0146
 9309TIP3    H149342   2.418   2.510  16.641 -1.9116 -0.8737 -0.4277
 9309TIP3    H249343   2.521   2.494  16.532 -2.9432 -0.9964 -1.4092
 9310TIP3   OH249344   6.492   0.263   5.591 -0.0773  0.0043  0.0203
 9310TIP3    H149345   6.536   0.178   5.591  0.7744  0.4148  1.3744
 9310TIP3    H249346   6.527   0.309   5.515 -0.9750 -1.0427 -1.0624
 9311TIP3   OH249347   2.653   5.001  15.262 -0.3212 -0.0822 -0.1731
 9311TIP3    H149348   2.596   4.962  15.196  1.5424 -2.3832 -0.5801
 9311TIP3    H249349   2.709   5.061  15.213  1.5537 -2.3209 -1.0011
 9312TIP3   OH249350   4.732   4.268  17.163 -0.0362  0.1154  0.6090
 9312TIP3    H149351   4.803   4.270  17.227 -0.9210  0.4513  1.6170
 9312TIP3    H249352   4.652   4.257  17.216 -0.8608  1.1768 -0.3569
 9313TIP3   OH249353   1.845   5.059   4.226  0.1222  0.4436  0.0493
 9313TIP3    H149354   1.894   4.986   4.187 -1.4750 -0.3733 -0.5056
 9313TIP3    H249355   1.758   5.023   4.245 -0.7944  2.2611 -0.4413
 9314TIP3   OH249356   2.733   4.660  12.961 -0.1400 -0.1221 -0.7037
 9314TIP3    H149357   2.688   4.578  12.938  2.0891 -1.2368 -1.3293
 9314TIP3    H249358   2.813   4.659  12.908  1.1598  1.2663  1.1222
 9315TIP3   OH249359   4.465   6.110   4.402 -0.6262 -0.0673  0.1215
 9315TIP3    H149360   4.514   6.029   4.389 -0.9812 -0.1663 -0.6565
 9315TIP3    H249361   4.375   6.088   4.378 -0.8412  0.4000  0.4846
 9316TIP3   OH249362   6.226   5.009  15.509 -0.0469 -0.2590  0.4262
 9316TIP3    H149363   6.306   4.989  15.461  0.2028  2.8313 -0.6232
 9316TIP3    H249364   6.197   5.093  15.474 -2.5451 -0.2161  2.3443
 9317TIP3   OH249365   6.071   6.419   5.002  0.0448  0.2482 -0.1787
 9317TIP3    H149366   6.128   6.494   5.019  0.0033  0.0372  0.9972
 9317TIP3    H249367   6.122   6.364   4.943  0.9664  0.1960  0.6261
 9318TIP3   OH249368   1.235   1.080   4.302  0.0490  0.5029  0.1338
 9318TIP3    H149369   1.288   1.018   4.252 -2.4003 -1.7334  0.1230
 9318TIP3    H249370   1.278   1.085   4.387 -0.2529 -2.1830  0.5337
 9319TIP3   OH249371   6.668   5.074   1.301  0.6162 -0.1703  0.1443
 9319TIP3    H149372   6.587   5.084   1.250  0.5315  0.7789  0.4413
 9319TIP3    H249373   6.709   4.995   1.265 -0.9513 -1.2916  0.7146
 9320TIP3   OH249374   0.903   2.745  14.559 -0.4133  0.1873 -0.0410
 9320TIP3    H149375   0.905   2.677  14.627  0.2362 -1.2861 -1.4894
 9320TIP3    H249376   0.828   2.799  14.584 -2.0224 -2.0221  0.2828
 9321TIP3   OH249377   5.060   3.449   4.823 -0.4708 -0.6105  0.1270
 9321TIP3    H149378   5.081   3.541   4.839 -0.1927 -0.5486 -0.5810
 9321TIP3    H249379   4.992   3.428   4.888  0.6830 -0.3966  1.4506
 9322TIP3   OH249380   0.449   0.905  15.922 -0.2527 -0.6044  0.0741
 9322TIP3    H149381   0.491   0.827  15.959 -1.2454 -0.4164  1.7292
 9322TIP3    H249382   0.357   0.895  15.944 -0.6018  0.4008 -0.8726
 9323TIP3   OH249383   5.758   2.835  14.998  0.1324  0.4879 -0.6313
 9323TIP3    H149384   5.758   2.930  15.008  2.9973  0.5693 -0.8243
 9323TIP3    H249385   5.803   2.819  14.915  0.3377 -1.0766 -0.2458
 9324TIP3   OH249386   0.611   5.840   5.295  0.1448 -0.5075 -0.7363
 9324TIP3    H149387   0.639   5.755   5.328  0.9576 -0.3206 -0.9141
 9324TIP3    H249388   0.523   5.825   5.260 -0.8755 -0.6486  1.7302
 9325TIP3   OH249389   6.526   3.978  12.200 -0.1744  1.0280  0.0539
 9325TIP3    H149390   6.433   3.980  12.177 -0.4822 -0.5438  0.9937
 9325TIP3    H249391   6.562   4.059  12.164 -2.3678  2.8411  1.6949
 9326TIP3   OH249392   4.005   0.275   5.209  0.7615 -0.1493 -0.1233
 9326TIP3    H149393   4.010   0.184   5.181  2.2429 -0.1537  0.1116
 9326TIP3    H249394   4.089   0.313   5.185  0.1941  1.1383 -0.1334
 9327TIP3   OH249395   5.790   3.776  13.936  0.0165  0.3247 -0.3393
 9327TIP3    H149396   5.805   3.863  13.897 -0.9511  1.0598  0.8292
 9327TIP3    H249397   5.697   3.759  13.920  0.4553 -1.0626 -1.5945
 9328TIP3   OH249398   2.780   6.115  15.109 -0.0068  0.1948  0.2563
 9328TIP3    H149399   2.864   6.077  15.135 -0.2273 -1.1853 -0.9318
 9328TIP3    H249400   2.788   6.129  15.014 -1.4222 -0.8530 -0.0540
 9329TIP3   OH249401   0.075   0.206   1.855  0.1236 -0.1794 -0.7331
 9329TIP3    H149402   0.015   0.157   1.798 -0.2584 -0.8688  0.2437
 9329TIP3    H249403   0.023   0.230   1.931  0.8372  0.0570 -0.3032
 9330TIP3   OH249404   4.252   2.792  13.282  0.0092 -0.4201  0.0928
 9330TIP3    H149405   4.170   2.779  13.330 -0.8933 -0.6086 -1.4248
 9330TIP3    H249406   4.236   2.752  13.196  0.9728  1.3076 -0.9515
 9331TIP3   OH249407   4.847   3.851   2.634 -0.1887 -0.4912 -0.1732
 9331TIP3    H149408   4.786   3.781   2.609 -0.8341  0.5690 -1.7063
 9331TIP3    H249409   4.844   3.913   2.561  0.8078  0.8577  0.8779
 9332TIP3   OH249410   1.019   4.727  12.596 -0.1638  0.2122 -0.3488
 9332TIP3    H149411   1.000   4.794  12.662  0.8562 -1.2914  1.5836
 9332TIP3    H249412   1.101   4.756  12.555 -0.0501  0.4724  0.0580
 9333TIP3   OH249413   3.115   0.981   3.814  0.1676  0.2791 -0.4089
 9333TIP3    H149414   3.185   0.947   3.870 -0.0007  0.7496  0.0898
 9333TIP3    H249415   3.062   1.036   3.871  0.4752  1.4526 -1.2128
 9334TIP3   OH249416   5.285   3.393  16.209  0.3952  0.1542 -0.0268
 9334TIP3    H149417   5.309   3.466  16.152  0.3628  0.8197  0.7864
 9334TIP3    H249418   5.365   3.375  16.259  0.5607 -0.7251 -0.5834
 9335TIP3   OH249419   5.938   1.067   3.897  0.5040  0.1395  0.5577
 9335TIP3    H149420   5.934   1.155   3.860  0.8461  0.2405  0.7606
 9335TIP3    H249421   6.012   1.025   3.853 -0.2034 -0.3441 -0.1825
 9336TIP3   OH249422   4.610   3.378   2.737 -0.0977  0.0235  0.0674
 9336TIP3    H149423   4.637   3.309   2.797 -0.2168  0.5541  0.7401
 9336TIP3    H249424   4.528   3.411   2.774 -1.3043 -1.0390 -1.5141
 9337TIP3   OH249425   0.546   1.588  15.495  0.6205 -0.2005 -0.6244
 9337TIP3    H149426   0.512   1.616  15.580  2.0589  1.2027 -0.4443
 9337TIP3    H249427   0.496   1.510  15.473 -0.8021  0.2508  0.8176
 9338TIP3   OH249428   2.831   4.225   3.434  0.1082  0.5058 -0.0014
 9338TIP3    H149429   2.911   4.248   3.387  0.5110 -2.8112 -1.1577
 9338TIP3    H249430   2.854   4.236   3.527  0.5563  3.2950 -0.3497
 9339TIP3   OH249431   5.141   1.801  11.431  0.7090 -0.4713  0.1269
 9339TIP3    H149432   5.107   1.880  11.388 -0.3847 -1.1999 -0.3955
 9339TIP3    H249433   5.083   1.731  11.401  1.5459 -1.4484  0.7313
 9340TIP3   OH249434   1.510   2.368   2.909  0.4037 -0.0428 -0.5517
 9340TIP3    H149435   1.599   2.403   2.910  0.2101  0.6581 -2.7564
 9340TIP3    H249436   1.457   2.438   2.946  0.6826 -0.2415  0.2425
 9341TIP3   OH249437   4.442   3.274   3.353  0.7739 -0.2819 -0.1726
 9341TIP3    H149438   4.464   3.181   3.355 -2.6209 -1.2445  2.1230
 9341TIP3    H249439   4.371   3.280   3.289  1.5291  0.9189 -0.9214
 9342TIP3   OH249440   5.387   5.432  14.914 -0.3004  0.2531 -0.0371
 9342TIP3    H149441   5.340   5.515  14.929  0.5815  0.5433  1.3171
 9342TIP3    H249442   5.459   5.434  14.977  0.5144 -0.9677 -0.8916
 9343TIP3   OH249443   2.387   6.448  12.324 -0.4223  0.4138  0.3611
 9343TIP3    H149444   2.300   6.435  12.287 -0.0665 -0.5323 -0.1613
 9343TIP3    H249445   2.438   6.488  12.253 -0.2977  0.5061  0.5021
 9344TIP3   OH249446   2.769   0.119  16.783  0.0579  0.0896 -0.1904
 9344TIP3    H149447   2.724   0.157  16.859  1.8149  0.6519  0.6214
 9344TIP3    H249448   2.709   0.134  16.710 -1.0478  0.8520  0.8254
 9345TIP3   OH249449   0.146   4.304   2.556 -0.2158  0.0297  0.5109
 9345TIP3    H149450   0.198   4.257   2.620 -0.1990  0.0618  0.5209
 9345TIP3    H249451   0.055   4.291   2.584 -0.1975  0.2071  0.6533
 9346TIP3   OH249452   4.108   2.340  16.975 -0.4297  0.8527  0.0722
 9346TIP3    H149453   4.129   2.255  16.938  0.0539 -0.4684  3.1039
 9346TIP3    H249454   4.023   2.327  17.017 -0.1706  1.7429  0.9006
 9347TIP3   OH249455   1.646   0.334   3.259  0.7767 -0.1210 -0.2497
 9347TIP3    H149456   1.722   0.295   3.215  2.2937  0.5569  1.6032
 9347TIP3    H249457   1.674   0.343   3.351 -1.1630  1.1245  0.2737
 9348TIP3   OH249458   4.860   4.092   0.749  0.0568  0.2948 -0.9002
 9348TIP3    H149459   4.782   4.074   0.698 -1.4336 -0.9507  1.5927
 9348TIP3    H249460   4.835   4.163   0.808  1.0159  0.3117 -0.4841
 9349TIP3   OH249461   3.198   4.655   1.424  0.6771 -0.0949  0.3656
 9349TIP3    H149462   3.106   4.637   1.407  1.2697 -0.3842 -3.4371
 9349TIP3    H249463   3.237   4.569   1.442  0.4565 -0.2063  0.3117
 9350TIP3   OH249464   2.682   0.002  13.685  0.1757  0.2358  0.1996
 9350TIP3    H149465   2.661  -0.079  13.731 -2.0786 -0.0310 -1.1533
 9350TIP3    H249466   2.768  -0.015  13.646  1.3173 -0.1712  2.6906
 9351TIP3   OH249467   4.525   0.197   3.068  0.2087 -0.0652 -0.2576
 9351TIP3    H149468   4.566   0.112   3.052  1.2101  0.4113 -0.3064
 9351TIP3    H249469   4.486   0.189   3.155 -1.6934 -1.3076 -1.1457
 9352TIP3   OH249470   4.711   2.586   2.523  0.3434 -0.2756 -0.1222
 9352TIP3    H149471   4.713   2.680   2.506  0.8455  0.3289  2.7067
 9352TIP3    H249472   4.618   2.565   2.530  0.2533  0.3374  0.6511
 9353TIP3   OH249473   4.894   5.631  11.178  0.8853  0.2169  0.7820
 9353TIP3    H149474   4.903   5.568  11.106  0.5798  0.7614  0.2523
 9353TIP3    H249475   4.880   5.577  11.256  0.9583 -0.3770  0.3902
 9354TIP3   OH249476   4.832   5.528   1.334  0.1068 -0.0286  0.2959
 9354TIP3    H149477   4.886   5.517   1.256 -0.5904  1.8591 -0.5183
 9354TIP3    H249478   4.893   5.561   1.400  0.5063 -0.6833  0.2616
 9355TIP3   OH249479   6.106   3.763  14.317 -0.0640  0.3344  0.4460
 9355TIP3    H149480   6.112   3.829  14.248  0.3415  1.3836  1.4559
 9355TIP3    H249481   6.197   3.737  14.333 -0.1338  0.2625  0.7253
 9356TIP3   OH249482   5.275   4.186   6.417 -0.4248  0.8968 -0.0935
 9356TIP3    H149483   5.273   4.124   6.490 -1.1722  1.6500  0.5493
 9356TIP3    H249484   5.312   4.266   6.454 -2.7586  1.9805  0.0705
 9357TIP3   OH249485   5.764   0.879  11.931 -0.3955  0.4848 -1.2035
 9357TIP3    H149486   5.835   0.824  11.964 -0.3904 -0.2398 -2.3308
 9357TIP3    H249487   5.687   0.849  11.978  0.1036  1.6620  0.4428
 9358TIP3   OH249488   4.225   6.168  12.853  0.0568  0.3363  0.0723
 9358TIP3    H149489   4.272   6.167  12.936  1.4717 -1.4995 -0.6862
 9358TIP3    H249490   4.134   6.187  12.877  0.1469 -1.6149  2.2181
 9359TIP3   OH249491   3.590   1.872   0.875  0.1061  0.0107 -0.4237
 9359TIP3    H149492   3.539   1.805   0.922  0.0374 -0.7658 -1.5657
 9359TIP3    H249493   3.657   1.899   0.938 -0.4544 -0.4384  0.3880
 9360TIP3   OH249494   1.361   4.759   1.410  0.2892 -0.3214 -0.0192
 9360TIP3    H149495   1.351   4.670   1.444 -1.0129 -0.9109 -1.8000
 9360TIP3    H249496   1.315   4.814   1.474  0.6148 -0.9728  0.7962
 9361TIP3   OH249497   4.484   2.293  12.914 -0.5415 -0.2356  0.7830
 9361TIP3    H149498   4.423   2.222  12.894 -1.1643  0.6631 -0.7190
 9361TIP3    H249499   4.548   2.254  12.974  0.5048 -2.7999 -1.7206
 9362TIP3   OH249500   1.958   2.982   4.547  0.1125 -0.2199 -0.0035
 9362TIP3    H149501   1.973   3.011   4.457 -1.9580 -0.5856 -0.4996
 9362TIP3    H249502   2.031   2.922   4.565  0.2857 -0.5466 -1.6189
 9363TIP3   OH249503   2.372   3.435   3.669  0.0958  0.0623  0.0320
 9363TIP3    H149504   2.465   3.412   3.665  0.0493 -0.3930  1.2762
 9363TIP3    H249505   2.336   3.381   3.739 -1.8000 -2.0109 -2.3531
 9364TIP3   OH249506   2.245   4.515   0.552  0.1625 -0.8348 -0.1813
 9364TIP3    H149507   2.202   4.436   0.521  1.8269 -2.6291  1.7631
 9364TIP3    H249508   2.338   4.499   0.539  0.5910  0.4473  0.9963
 9365TIP3   OH249509   3.375   4.761  12.344  0.3183 -0.4180  0.5710
 9365TIP3    H149510   3.441   4.772  12.275 -2.4651 -0.2214 -2.2875
 9365TIP3    H249511   3.386   4.671  12.373  1.6839 -0.4565  0.0434
 9366TIP3   OH249512   6.234   6.599   5.114 -0.0770 -0.5696 -0.2771
 9366TIP3    H149513   6.158   6.653   5.136  1.5522  1.8133 -0.0228
 9366TIP3    H249514   6.255   6.553   5.196 -0.2532  0.0717  0.1358
 9367TIP3   OH249515   3.739   6.465  11.778 -0.2386  0.5079 -0.2756
 9367TIP3    H149516   3.738   6.467  11.873 -1.8775 -0.1585 -0.2455
 9367TIP3    H249517   3.709   6.552  11.751 -2.8458 -0.2456 -0.0862
 9368TIP3   OH249518   4.054   2.588   0.385  0.4003 -0.2618 -0.2267
 9368TIP3    H149519   3.961   2.568   0.376  0.5953 -1.7487  0.7273
 9368TIP3    H249520   4.096   2.534   0.317  0.7825 -1.8717  1.2232
 9369TIP3   OH249521   2.113   5.035  15.682  0.4473  0.0824 -0.0329
 9369TIP3    H149522   2.059   5.081  15.746  0.2878 -0.4651  0.2391
 9369TIP3    H249523   2.133   5.100  15.615 -2.9126 -0.3603 -1.6678
 9370TIP3   OH249524   2.221   5.283   4.527  0.5481  0.0646  0.0935
 9370TIP3    H149525   2.241   5.264   4.618 -0.2969  0.6418  0.4126
 9370TIP3    H249526   2.145   5.341   4.530  1.7179  1.7435 -0.8946
 9371TIP3   OH249527   3.495   6.696   2.910  0.0765 -0.3338  0.3339
 9371TIP3    H149528   3.442   6.651   2.976  0.3936 -3.3315 -1.2619
 9371TIP3    H249529   3.584   6.662   2.923  0.2082 -0.7177 -1.3418
 9372TIP3   OH249530   6.015   5.843   0.749  0.4661  0.5554  0.1550
 9372TIP3    H149531   6.005   5.749   0.756 -0.9497  0.6295 -0.6285
 9372TIP3    H249532   5.932   5.879   0.782  1.0255  1.5320  0.5543
 9373TIP3   OH249533   6.487   2.865   2.388 -0.1484 -0.5326 -0.7355
 9373TIP3    H149534   6.534   2.800   2.439  1.1666 -0.2050 -1.4859
 9373TIP3    H249535   6.442   2.814   2.320  1.3292 -0.6634 -1.6662
 9374TIP3   OH249536   6.538   6.469   2.643  0.2072  0.1078  0.0576
 9374TIP3    H149537   6.608   6.407   2.623  1.5214  1.6593 -0.3294
 9374TIP3    H249538   6.464   6.439   2.589  1.1440 -0.4852 -0.9480
 9375TIP3   OH249539   1.457   1.544  13.017  1.1638  0.9394  0.1854
 9375TIP3    H149540   1.435   1.520  12.927 -0.5051  0.4273  0.6986
 9375TIP3    H249541   1.382   1.594  13.048 -0.6650 -2.9523  2.8297
 9376TIP3   OH249542   1.732   1.095   2.001 -0.0557 -0.4487 -0.3385
 9376TIP3    H149543   1.682   1.109   2.081  2.2026 -0.6881  1.2194
 9376TIP3    H249544   1.666   1.090   1.932 -2.1070 -0.3437  1.4990
 9377TIP3   OH249545   3.281   6.726  11.834  0.4297 -0.2144  0.1505
 9377TIP3    H149546   3.191   6.720  11.867  1.0910  0.9684  2.3248
 9377TIP3    H249547   3.331   6.666  11.889  1.3638  0.8538  0.5045
 9378TIP3   OH249548   1.548   1.339  13.929 -0.6586 -0.0893 -0.1707
 9378TIP3    H149549   1.634   1.301  13.912 -0.2106  1.0164 -0.4700
 9378TIP3    H249550   1.502   1.333  13.846 -1.4663 -2.0707  0.3607
 9379TIP3   OH249551   4.415   2.161   2.794 -1.2229  0.5463  0.5864
 9379TIP3    H149552   4.357   2.173   2.718 -2.6930 -3.5392  0.8085
 9379TIP3    H249553   4.355   2.144   2.867  0.2299 -0.3705  1.6170
 9380TIP3   OH249554   4.641   0.267   0.034  0.0545  0.5900 -0.1937
 9380TIP3    H149555   4.625   0.302   0.121  1.8686  0.8030  0.0827
 9380TIP3    H249556   4.683   0.183   0.049  0.0450  0.4545 -0.8725
 9381TIP3   OH249557   4.114   2.535   2.046  0.0401 -0.2726 -0.3205
 9381TIP3    H149558   4.061   2.495   2.115 -0.2129 -0.6188 -0.7102
 9381TIP3    H249559   4.052   2.549   1.974 -0.3890  2.7786  0.5331
 9382TIP3   OH249560   0.686   1.982  15.251  0.0121  0.1447  0.2624
 9382TIP3    H149561   0.686   1.969  15.156  0.1343  0.3839  0.2287
 9382TIP3    H249562   0.736   1.908  15.285  0.8837  0.6196  0.0571
 9383TIP3   OH249563   3.399   5.137   3.372  0.0054  0.0824 -0.2939
 9383TIP3    H149564   3.348   5.161   3.294  1.3461  0.3651 -1.1147
 9383TIP3    H249565   3.438   5.053   3.350 -1.9866 -1.3766  1.2861
 9384TIP3   OH249566   1.902   0.161  15.122  0.6002 -0.6294 -0.0415
 9384TIP3    H149567   1.936   0.186  15.208  0.5551 -1.7347  0.3062
 9384TIP3    H249568   1.978   0.128  15.074  1.0992  1.9729 -1.2567
 9385TIP3   OH249569   0.699   0.890   1.454  0.2075 -0.3867  0.3101
 9385TIP3    H149570   0.677   0.885   1.546 -0.0576 -1.1977  0.2092
 9385TIP3    H249571   0.770   0.955   1.450  1.6463 -1.8050  1.3589
 9386TIP3   OH249572   6.238   2.448  11.961  0.6251  0.4863 -0.1922
 9386TIP3    H149573   6.248   2.537  11.993 -0.8626  0.3197  0.8305
 9386TIP3    H249574   6.312   2.400  11.999  0.7051  0.9975  0.3040
 9387TIP3   OH249575   3.261   1.273  15.548  0.3733 -0.1606  0.0814
 9387TIP3    H149576   3.184   1.272  15.490  0.0182 -1.0621  0.5359
 9387TIP3    H249577   3.245   1.347  15.607 -0.2671 -0.4779  0.3174
 9388TIP3   OH249578   3.569   4.662   4.738 -0.2521  0.0947  0.6846
 9388TIP3    H149579   3.628   4.639   4.810 -1.2484  0.5661  1.6961
 9388TIP3    H249580   3.506   4.590   4.733  0.9060 -0.8589 -1.0060
 9389TIP3   OH249581   3.303   2.989  12.741 -0.4453  0.9303  0.1670
 9389TIP3    H149582   3.367   2.930  12.703 -0.3027  0.7564  0.6769
 9389TIP3    H249583   3.307   2.972  12.835  0.2891  2.4050  0.4398
 9390TIP3   OH249584   5.317   4.028  15.024  0.0833  0.5155 -0.1794
 9390TIP3    H149585   5.356   3.994  14.945  1.0619 -0.3634  0.6560
 9390TIP3    H249586   5.370   4.105  15.047  0.9270 -0.2617  0.5633
 9391TIP3   OH249587   2.598   0.213  16.617  0.0406  0.2768  0.0446
 9391TIP3    H149588   2.518   0.246  16.656 -0.8614 -0.3925 -1.1827
 9391TIP3    H249589   2.574   0.190  16.528  1.6287  0.1623 -0.3959
 9392TIP3   OH249590   4.824   2.015   2.952  0.1127 -0.4790  0.4066
 9392TIP3    H149591   4.917   2.032   2.939 -0.1575 -0.2858 -1.7463
 9392TIP3    H249592   4.814   2.002   3.046  2.2189 -0.0033  0.7403
 9393TIP3   OH249593   4.129   5.715   5.056  0.5050  0.0677 -0.3801
 9393TIP3    H149594   4.038   5.739   5.069 -0.0698 -1.6516 -0.9666
 9393TIP3    H249595   4.149   5.655   5.127  1.1776  0.3855 -0.2915
 9394TIP3   OH249596   5.041   3.328   2.634  0.0849  0.7032 -0.3654
 9394TIP3    H149597   4.948   3.349   2.641  0.1702  0.8505  0.3846
 9394TIP3    H249598   5.066   3.299   2.721  0.7438  0.6485 -0.5655
 9395TIP3   OH249599   0.524   0.625  15.451 -0.4692 -0.3549 -0.4279
 9395TIP3    H149600   0.582   0.566  15.403 -0.8121  0.2287 -1.6081
 9395TIP3    H249601   0.477   0.674  15.382 -1.9947 -0.4620  0.4862
 9396TIP3   OH249602   5.552   4.128  13.025  0.8727 -0.0395  0.2547
 9396TIP3    H149603   5.458   4.127  13.006  0.8303 -0.8021  0.4908
 9396TIP3    H249604   5.576   4.221  13.022  0.3365  0.0694 -0.8704
 9397TIP3   OH249605   3.743   5.548  11.136  0.1100  0.0919  0.2071
 9397TIP3    H149606   3.734   5.637  11.170 -3.0549 -1.0424  2.9838
 9397TIP3    H249607   3.729   5.556  11.042 -0.7260  2.4662  0.4728
 9398TIP3   OH249608   6.243   6.040  14.901 -0.0938 -0.5639 -0.2867
 9398TIP3    H149609   6.218   6.092  14.824 -2.3298  0.7569  1.2278
 9398TIP3    H249610   6.324   6.081  14.931  0.8127 -1.0934 -1.8757
 9399TIP3   OH249611   2.534   5.271  15.851 -0.2313 -0.4431 -0.5062
 9399TIP3    H149612   2.455   5.219  15.834 -0.3568  0.2260 -2.1707
 9399TIP3    H249613   2.558   5.307  15.765  0.4296  1.4295  0.4036
 9400TIP3   OH249614   3.766   0.854  12.192  0.2413 -0.4338 -0.4751
 9400TIP3    H149615   3.731   0.939  12.164  2.7065  0.6380 -0.6108
 9400TIP3    H249616   3.730   0.840  12.279  1.0051  1.5994  0.2365
 9401TIP3   OH249617   1.528   2.427  15.646  0.2134  0.1662 -0.3592
 9401TIP3    H149618   1.470   2.491  15.605  0.2149  0.4710  0.1051
 9401TIP3    H249619   1.583   2.396  15.574  0.8847  1.4293 -0.4286
 9402TIP3   OH249620   4.991   1.422   0.261 -0.6532 -0.7172  0.6483
 9402TIP3    H149621   5.083   1.450   0.263 -0.7361 -0.3757 -0.0130
 9402TIP3    H249622   4.944   1.500   0.230 -0.9656 -1.3937 -0.6307
 9403TIP3   OH249623   0.679   1.048   1.706 -0.3882  0.3206 -0.2963
 9403TIP3    H149624   0.622   1.093   1.643 -1.7462  0.3565  0.9005
 9403TIP3    H249625   0.766   1.085   1.690 -0.3736 -0.7457 -3.1208
 9404TIP3   OH249626   0.102   3.629  14.254 -0.1686 -0.1505  0.2049
 9404TIP3    H149627   0.142   3.702  14.207 -0.2302  0.1381  0.6016
 9404TIP3    H249628   0.040   3.670  14.315  4.0132  0.0597  4.9674
 9405TIP3   OH249629   5.363   3.917  15.591 -0.2074 -0.0143 -0.1428
 9405TIP3    H149630   5.434   3.858  15.565  0.4798  0.6776  0.1243
 9405TIP3    H249631   5.384   3.941  15.681  0.2334  1.6213 -0.6426
 9406TIP3   OH249632   0.375   6.647   3.555 -0.1878  0.7498  0.6620
 9406TIP3    H149633   0.431   6.599   3.616 -3.0548  0.5293  3.3509
 9406TIP3    H249634   0.391   6.739   3.573  0.5511  0.7299  0.1474
 9407TIP3   OH249635   6.030   2.984  16.544  0.1197  0.1441  0.8964
 9407TIP3    H149636   6.109   2.988  16.598 -0.5777  1.0116  1.8768
 9407TIP3    H249637   5.986   2.903  16.572  0.1486  0.1933  1.0858
 9408TIP3   OH249638   0.288   6.143   0.604 -0.0706 -0.0783 -0.2577
 9408TIP3    H149639   0.371   6.110   0.570  0.1723  0.1113  0.1427
 9408TIP3    H249640   0.265   6.216   0.546  0.5075  0.4566  0.1721
 9409TIP3   OH249641   3.237   4.073   2.410 -0.9374 -0.2699  0.6690
 9409TIP3    H149642   3.205   4.012   2.343  0.1093 -0.0868 -0.0188
 9409TIP3    H249643   3.277   4.144   2.360 -1.5133  0.6546  1.4756
 9410TIP3   OH249644   3.638   2.597  14.651  0.3118  0.8863 -0.5702
 9410TIP3    H149645   3.648   2.588  14.746 -0.5105 -1.5749 -0.6601
 9410TIP3    H249646   3.721   2.563  14.615 -0.9641 -2.3286 -0.7759
 9411TIP3   OH249647   1.436   6.754   1.273 -0.1211 -0.2580  0.0748
 9411TIP3    H149648   1.524   6.790   1.266 -0.5612  0.6309 -1.0389
 9411TIP3    H249649   1.450   6.661   1.293  1.1170 -0.5967 -2.1248
 9412TIP3   OH249650   1.869   6.039  14.751  0.6830 -0.3324  0.6242
 9412TIP3    H149651   1.888   6.046  14.844 -1.5465  0.6294  1.0836
 9412TIP3    H249652   1.801   5.972  14.745 -1.4920  1.7348  0.1946
 9413TIP3   OH249653   0.189   1.604  14.807  0.1633  0.2511 -0.6311
 9413TIP3    H149654   0.247   1.535  14.840 -1.0140 -0.0213  0.9566
 9413TIP3    H249655   0.199   1.676  14.869 -1.0371  0.2823 -0.4634
 9414TIP3   OH249656   4.706   4.424   2.030 -0.6749 -0.2367 -0.1951
 9414TIP3    H149657   4.621   4.453   2.064 -0.8337 -0.5176 -0.3427
 9414TIP3    H249658   4.683   4.359   1.963 -0.3458 -0.2234 -0.3194
 9415TIP3   OH249659   2.422   1.821   2.891 -0.2076  0.1617 -0.3983
 9415TIP3    H149660   2.400   1.732   2.866 -0.2520  0.2784 -0.7791
 9415TIP3    H249661   2.341   1.858   2.925 -0.1141 -0.0408  0.0501
 9416TIP3   OH249662   4.558   2.295  13.384  0.5739 -0.0998  0.6891
 9416TIP3    H149663   4.579   2.388  13.389  1.8187 -0.1022 -2.2585
 9416TIP3    H249664   4.464   2.293  13.367  0.3111  0.5219  1.9698
 9417TIP3   OH249665   2.213   1.409  15.333  0.2823  0.0821 -0.2057
 9417TIP3    H149666   2.280   1.430  15.268 -0.2839  0.3624 -0.7032
 9417TIP3    H249667   2.192   1.317  15.317 -2.5202  1.0281 -2.9473
 9418TIP3   OH249668   1.893   0.903   2.307  0.2123 -0.2312  0.3142
 9418TIP3    H149669   1.855   0.820   2.279  2.7302 -1.1706 -0.6423
 9418TIP3    H249670   1.930   0.885   2.394  0.8965 -0.1752  0.0423
 9419TIP3   OH249671   5.675   1.374  12.699 -0.3034  0.3440 -0.4734
 9419TIP3    H149672   5.735   1.347  12.630  1.6547  0.0847  1.2410
 9419TIP3    H249673   5.599   1.316  12.690 -0.7252  1.1884 -3.1763
 9420TIP3   OH249674   1.236   2.801   6.838  0.0248  0.2241  0.0396
 9420TIP3    H149675   1.184   2.788   6.758 -2.5062 -0.4897  1.6779
 9420TIP3    H249676   1.230   2.895   6.855  0.2921  0.3261 -0.4046
 9421TIP3   OH249677   5.967   3.632   2.030  0.1657 -0.2487  0.3056
 9421TIP3    H149678   5.916   3.710   2.053 -0.9901 -0.2625 -1.8935
 9421TIP3    H249679   5.942   3.614   1.939  2.1405 -1.8474  0.0194
 9422TIP3   OH249680   0.761   4.877  13.609  0.0253 -0.3646 -0.7251
 9422TIP3    H149681   0.672   4.911  13.599  0.5253  0.5340 -2.9273
 9422TIP3    H249682   0.762   4.797  13.556  0.7473  0.1441 -1.5055
 9423TIP3   OH249683   4.929   6.405  12.541 -0.1358 -0.5761  0.4403
 9423TIP3    H149684   4.885   6.341  12.596 -2.5764  2.0076  1.7753
 9423TIP3    H249685   4.998   6.441  12.597 -1.6494  0.9879  1.4042
 9424TIP3   OH249686   5.520   6.447   4.993  0.3474 -0.2306 -0.2398
 9424TIP3    H149687   5.593   6.411   5.042  0.0584  0.6336  0.8625
 9424TIP3    H249688   5.557   6.519   4.942  0.7132 -1.3393 -1.5971
 9425TIP3   OH249689   0.443   4.376   4.467  0.3459 -0.2773 -0.2848
 9425TIP3    H149690   0.363   4.402   4.421  0.3277 -0.0755 -0.1410
 9425TIP3    H249691   0.412   4.326   4.542  0.3663 -0.4212 -0.3722
 9426TIP3   OH249692   2.917   0.540  17.022 -0.0115 -0.3500  0.4423
 9426TIP3    H149693   2.899   0.471  16.959 -0.0699 -0.8540  0.9954
 9426TIP3    H249694   2.883   0.620  16.982 -0.1766 -0.6879 -0.0934
 9427TIP3   OH249695   2.951   6.381  13.924  0.4348 -0.0158 -0.3634
 9427TIP3    H149696   2.897   6.401  14.001  0.6346  0.3716 -0.3189
 9427TIP3    H249697   2.987   6.466  13.898 -0.4671  0.0428 -1.5168
 9428TIP3   OH249698   3.379   5.929   2.648 -0.4503 -0.0200 -0.3730
 9428TIP3    H149699   3.342   6.017   2.655 -0.0121  0.3695 -2.4596
 9428TIP3    H249700   3.364   5.890   2.735 -0.7281  2.0610  0.5747
 9429TIP3   OH249701   5.696   0.024  15.410 -0.2337 -0.0224  0.6354
 9429TIP3    H149702   5.644  -0.043  15.365  0.8480  0.1769 -0.9731
 9429TIP3    H249703   5.638   0.100  15.416 -0.3265  0.0273 -0.6618
 9430TIP3   OH249704   2.225   3.612  11.697 -0.0058  0.1826  0.2435
 9430TIP3    H149705   2.184   3.586  11.779  1.2527  1.4926  1.3488
 9430TIP3    H249706   2.202   3.542  11.635  0.3741 -1.7139  2.1280
 9431TIP3   OH249707   5.134   2.139  13.783  0.5542  0.4748 -0.0447
 9431TIP3    H149708   5.139   2.118  13.690 -0.2234 -2.1524  0.4063
 9431TIP3    H249709   5.075   2.214  13.788  1.0165  0.9830 -1.6926
 9432TIP3   OH249710   4.089   5.713   0.541 -0.2109  0.2138  0.2735
 9432TIP3    H149711   4.134   5.756   0.613 -0.2129  1.0786 -0.2314
 9432TIP3    H249712   4.159   5.683   0.483 -0.2138 -0.3843  0.5718
 9433TIP3   OH249713   6.089   4.755  15.436  0.0963 -0.0457 -0.3189
 9433TIP3    H149714   5.995   4.772  15.424  0.2590  0.6042 -0.7109
 9433TIP3    H249715   6.128   4.842  15.446  0.5402 -0.3578  0.7821
 9434TIP3   OH249716   1.701   6.335   1.553  0.4171  0.7420  0.0460
 9434TIP3    H149717   1.685   6.374   1.467 -2.1791 -1.2070 -0.4865
 9434TIP3    H249718   1.718   6.242   1.534 -2.2197 -0.1740  1.6358
 9435TIP3   OH249719   3.444   3.097  15.888 -0.0759 -0.4844  0.3365
 9435TIP3    H149720   3.508   3.082  15.958  0.2954  0.9183  0.3174
 9435TIP3    H249721   3.483   3.057  15.810  0.5545 -0.0653  0.4341
 9436TIP3   OH249722   5.410   0.597  10.782 -0.2774  0.1426 -0.2509
 9436TIP3    H149723   5.435   0.531  10.847 -1.5893 -0.1546 -0.0178
 9436TIP3    H249724   5.390   0.547  10.703  1.2952  0.5010 -0.9168
 9437TIP3   OH249725   3.121   6.236   2.390  0.0086 -0.1364 -0.6620
 9437TIP3    H149726   3.210   6.263   2.415 -0.0773 -0.1694 -0.3281
 9437TIP3    H249727   3.126   6.141   2.383 -0.0169 -0.1438 -0.5784
 9438TIP3   OH249728   6.079   5.690   1.114 -0.1618  0.1567  0.7324
 9438TIP3    H149729   6.016   5.718   1.048 -0.2225  0.9144  1.1134
 9438TIP3    H249730   6.072   5.754   1.185  3.0994  2.1004 -0.4581
 9439TIP3   OH249731   4.506   2.034   3.130  0.8149  0.0480  0.1293
 9439TIP3    H149732   4.433   2.020   3.069 -0.0042  0.8893  0.8759
 9439TIP3    H249733   4.474   2.103   3.189  2.1709  0.3402  0.5536
 9440TIP3   OH249734   2.721   4.371   4.821 -0.1979 -0.8675  0.3126
 9440TIP3    H149735   2.665   4.319   4.764 -0.7556  0.2882 -0.2386
 9440TIP3    H249736   2.737   4.452   4.772 -0.2560 -0.0620  1.5547
 9441TIP3   OH249737   0.349   4.504   3.124  0.4944 -0.2027  0.5221
 9441TIP3    H149738   0.314   4.592   3.138 -1.2629 -0.1853 -3.0257
 9441TIP3    H249739   0.433   4.517   3.081 -0.7502 -0.1017 -2.0728
 9442TIP3   OH249740   0.197   2.932   5.552  0.1349  0.8773  0.4096
 9442TIP3    H149741   0.223   2.972   5.468 -0.1214 -0.4249 -0.3091
 9442TIP3    H249742   0.116   2.977   5.575  0.2353  1.2841 -0.0075
 9443TIP3   OH249743   0.694   0.039   4.439  0.0314 -0.3913  0.0410
 9443TIP3    H149744   0.607  -0.001   4.439 -0.3466  0.3396  1.6452
 9443TIP3    H249745   0.700   0.083   4.354 -1.6616  0.5033  0.3375
 9444TIP3   OH249746   3.205   4.891   0.999 -0.3484 -0.2061 -0.5258
 9444TIP3    H149747   3.148   4.946   0.946 -0.1362  0.3365 -0.2033
 9444TIP3    H249748   3.282   4.877   0.944  0.2057  0.9842 -0.1043
 9445TIP3   OH249749   3.091   5.997   3.872 -0.0294  0.0181 -0.0315
 9445TIP3    H149750   3.151   5.923   3.887 -0.1041  0.4065  2.7766
 9445TIP3    H249751   3.142   6.060   3.822 -0.0328 -1.9347 -2.7270
 9446TIP3   OH249752   3.285   4.717  15.553 -0.0567 -0.4646  0.1362
 9446TIP3    H149753   3.195   4.684  15.553 -0.2124 -0.1268  1.6820
 9446TIP3    H249754   3.339   4.638  15.545 -0.4805 -0.8004  0.5073
 9447TIP3   OH249755   6.548   3.207  11.797 -0.4332  0.4423 -0.0886
 9447TIP3    H149756   6.486   3.275  11.771 -0.6240 -0.0428 -0.9532
 9447TIP3    H249757   6.494   3.131  11.817 -0.2134  0.4937  0.7642
 9448TIP3   OH249758   6.467   3.418  12.138  0.0954  0.2595 -0.0917
 9448TIP3    H149759   6.549   3.466  12.149  0.0166  0.9312 -2.0960
 9448TIP3    H249760   6.492   3.326  12.142  0.9696  0.4555 -0.7882
 9449TIP3   OH249761   5.889   1.540  14.829 -0.2011  0.1068 -0.7745
 9449TIP3    H149762   5.916   1.461  14.783  1.0810 -0.4225  0.7757
 9449TIP3    H249763   5.958   1.604  14.812  0.0547  0.0525 -0.0110
 9450TIP3   OH249764   0.654   6.403   6.347 -0.0670 -0.3106 -0.0138
 9450TIP3    H149765   0.564   6.431   6.335 -0.5012 -2.3690 -2.7876
 9450TIP3    H249766   0.652   6.308   6.329  2.4484 -0.6517  1.0590
 9451TIP3   OH249767   1.031   4.553  14.561  0.2831 -0.2745  0.7651
 9451TIP3    H149768   1.003   4.463  14.577  0.8153 -0.8157 -1.1403
 9451TIP3    H249769   1.011   4.568  14.469  0.7209  1.3850  0.9117
 9452TIP3   OH249770   1.782   6.655  16.043  0.3820  0.2323 -0.0169
 9452TIP3    H149771   1.833   6.718  15.992  0.3664 -1.0639 -1.7200
 9452TIP3    H249772   1.741   6.599  15.977 -0.8868 -0.5741  1.4066
 9453TIP3   OH249773   0.481   2.316   4.138 -0.7426  0.5859  0.8656
 9453TIP3    H149774   0.421   2.258   4.185 -0.3458 -0.6215 -0.0719
 9453TIP3    H249775   0.425   2.372   4.085 -1.1224  0.9788  1.6621
 9454TIP3   OH249776   1.800   4.715  11.390 -0.3268  0.3382 -0.2018
 9454TIP3    H149777   1.818   4.629  11.425  0.4336  1.0139  1.1379
 9454TIP3    H249778   1.762   4.764  11.462 -2.2581  0.6771 -1.3859
 9455TIP3   OH249779   2.473   6.634  10.860 -0.0641  0.5421  0.2872
 9455TIP3    H149780   2.492   6.583  10.781  0.3806  1.3468 -0.1404
 9455TIP3    H249781   2.397   6.686  10.837 -0.4033  0.2217  0.6615
 9456TIP3   OH249782   5.855   0.105  12.058 -0.2132  0.0833 -0.2268
 9456TIP3    H149783   5.844   0.153  12.140 -0.3073  0.4015 -0.4260
 9456TIP3    H249784   5.948   0.116  12.035 -0.0692 -0.4207  0.0930
 9457TIP3   OH249785   4.611   1.820  13.989  0.0666 -0.0128  0.5293
 9457TIP3    H149786   4.611   1.796  13.896  1.0680 -1.1088  0.7927
 9457TIP3    H249787   4.600   1.738  14.035 -0.0015  0.4742  1.3971
 9458TIP3   OH249788   5.027   2.088  16.063  0.5048 -0.4185  0.5323
 9458TIP3    H149789   5.101   2.069  16.121  0.0856  1.5249  1.8057
 9458TIP3    H249790   4.986   2.166  16.101 -0.9764 -0.2200 -1.3095
 9459TIP3   OH249791   1.586   0.991  11.969  1.0562  0.2895  0.1264
 9459TIP3    H149792   1.649   0.922  11.991 -0.0353 -1.2681 -1.3559
 9459TIP3    H249793   1.511   0.943  11.933 -0.3740  2.1826  0.4646
 9460TIP3   OH249794   2.189   5.127   3.088  0.3926 -0.3284  0.2848
 9460TIP3    H149795   2.275   5.095   3.062  0.4202  1.1986 -1.7243
 9460TIP3    H249796   2.204   5.217   3.117 -0.5367  0.1333 -0.5631
 9461TIP3   OH249797   5.575   1.889  12.430 -0.1460  0.3060 -0.2069
 9461TIP3    H149798   5.593   1.796  12.438  1.1434  0.5289 -0.3716
 9461TIP3    H249799   5.659   1.928  12.406 -0.4696  1.6200  0.6869
 9462TIP3   OH249800   3.391   2.084  16.533  0.3790 -0.6046 -0.4661
 9462TIP3    H149801   3.333   2.124  16.598 -0.3192 -1.5008 -0.5302
 9462TIP3    H249802   3.457   2.151  16.516  0.1113 -0.0541  0.5713
 9463TIP3   OH249803   3.479   6.264  16.025  0.2301  0.1252 -0.0765
 9463TIP3    H149804   3.574   6.265  16.031  0.3788  1.4241 -1.8661
 9463TIP3    H249805   3.453   6.182  16.066  2.2458 -1.0374 -0.9858
 9464TIP3   OH249806   2.328   5.944  14.190 -0.1080 -0.3867  0.2967
 9464TIP3    H149807   2.285   6.019  14.149  2.6303 -0.3150 -2.8900
 9464TIP3    H249808   2.411   5.977  14.223  0.0629 -1.5549  1.1104
 9465TIP3   OH249809   3.065   1.414   4.147  0.2085  0.6924 -0.8610
 9465TIP3    H149810   3.144   1.377   4.187 -0.6916 -0.9201 -0.5357
 9465TIP3    H249811   2.995   1.398   4.210 -0.9155 -0.4027 -2.3073
 9466TIP3   OH249812   0.498   5.546  15.262  0.3123 -0.1923 -0.4218
 9466TIP3    H149813   0.502   5.564  15.168  2.8317  1.0752 -0.1714
 9466TIP3    H249814   0.519   5.453  15.269 -0.0367 -0.3330 -1.1146
 9467TIP3   OH249815   1.283   6.250   4.693  0.2376 -0.4747  0.4897
 9467TIP3    H149816   1.206   6.196   4.674  1.0053 -1.2304 -0.5513
 9467TIP3    H249817   1.328   6.204   4.764 -0.0159 -0.2755  0.7838
 9468TIP3   OH249818   2.933   0.361  16.816 -0.7770 -0.1310 -0.7982
 9468TIP3    H149819   2.959   0.277  16.855  1.7848  1.1353  0.4986
 9468TIP3    H249820   2.869   0.338  16.749 -1.1403 -2.9780  0.3868
 9469TIP3   OH249821   6.077   2.706   3.657  0.8258 -0.4115 -0.9748
 9469TIP3    H149822   6.093   2.793   3.621  0.3341 -0.5394 -1.5155
 9469TIP3    H249823   6.148   2.652   3.622  0.7852 -0.3641 -1.1305
 9470TIP3   OH249824   3.494   3.092  13.888 -0.2869 -0.4673 -0.2167
 9470TIP3    H149825   3.529   3.177  13.917  0.3482 -1.2797  1.5261
 9470TIP3    H249826   3.409   3.114  13.849  0.5902  1.1455 -1.3508
 9471TIP3   OH249827   0.173   3.243   3.193  0.6175 -0.0353  0.0680
 9471TIP3    H149828   0.160   3.152   3.167  1.8630  0.1773 -1.4632
 9471TIP3    H249829   0.162   3.243   3.288 -2.7747 -1.1350 -0.1913
 9472TIP3   OH249830   4.025   3.040  14.131  0.4758 -0.6111  0.0654
 9472TIP3    H149831   4.102   2.984  14.125  0.5019 -0.6061  0.3387
 9472TIP3    H249832   4.049   3.109  14.192  0.7567  0.2236 -0.9563
 9473TIP3   OH249833   5.926   2.405  13.485  0.4739 -0.1384  0.0470
 9473TIP3    H149834   5.983   2.334  13.514  2.1929  0.5534 -1.4261
 9473TIP3    H249835   5.854   2.406  13.548  2.8042 -0.1665  2.9220
 9474TIP3   OH249836   0.005   2.400  11.771 -0.4721 -0.0269 -0.2011
 9474TIP3    H149837   0.046   2.481  11.742  1.3184  0.2694  2.7671
 9474TIP3    H249838   0.073   2.334  11.761  0.5085  0.2032  3.4962
 9475TIP3   OH249839   0.693   0.272  14.655 -0.1790  0.7891 -0.4652
 9475TIP3    H149840   0.660   0.346  14.706 -1.5212 -0.4870  0.6166
 9475TIP3    H249841   0.718   0.207  14.721  1.0362  0.2869 -1.3838
 9476TIP3   OH249842   5.766   0.827  16.014 -0.1631  0.7241  0.4978
 9476TIP3    H149843   5.791   0.738  16.039  2.5828  1.4685  0.7621
 9476TIP3    H249844   5.702   0.853  16.079 -0.9236 -1.0001  0.4939
 9477TIP3   OH249845   1.795   4.117  14.720 -0.2428  0.2315 -0.7945
 9477TIP3    H149846   1.869   4.072  14.680 -0.2336 -0.8612  0.3655
 9477TIP3    H249847   1.833   4.194  14.762  0.1204  0.0848 -0.8539
 9478TIP3   OH249848   5.314   3.269   0.689 -0.4157 -0.6648 -0.2528
 9478TIP3    H149849   5.240   3.287   0.631 -1.0254  0.6385  0.8634
 9478TIP3    H249850   5.353   3.355   0.705  1.7229 -1.3890 -1.2594
 9479TIP3   OH249851   0.969   0.476   0.006  0.0875 -0.4033 -0.6157
 9479TIP3    H149852   0.901   0.410   0.022  0.7924 -1.0434 -0.1719
 9479TIP3    H249853   1.005   0.453  -0.080  1.1432 -1.3517  0.0555
 9480TIP3   OH249854   3.404   6.276   5.214  0.4425 -0.1989  0.1974
 9480TIP3    H149855   3.404   6.193   5.262  0.0007 -0.5835 -0.4587
 9480TIP3    H249856   3.332   6.325   5.253  1.3018  0.2787  1.2416
 9481TIP3   OH249857   1.802   0.878   0.182  0.4504  0.3176  0.2020
 9481TIP3    H149858   1.768   0.850   0.267 -3.2521 -3.0213 -2.0223
 9481TIP3    H249859   1.840   0.799   0.144  0.1401  1.1694 -2.0036
 9482TIP3   OH249860   1.918   4.099  16.808  0.1752 -0.1895  0.0749
 9482TIP3    H149861   1.845   4.148  16.845  0.4579  0.2455  0.0603
 9482TIP3    H249862   1.898   4.094  16.714 -0.5749 -1.3502  0.2686
 9483TIP3   OH249863   2.138   4.097   2.871  0.3560  0.4879  0.2070
 9483TIP3    H149864   2.223   4.063   2.843  1.4050  1.0524  2.4263
 9483TIP3    H249865   2.104   4.031   2.931 -0.6964  0.3633 -0.5067
 9484TIP3   OH249866   6.157   1.672  13.487  0.0253 -0.1979 -0.1205
 9484TIP3    H149867   6.206   1.634  13.414 -0.7378 -1.0366 -0.2194
 9484TIP3    H249868   6.102   1.600  13.518 -1.3451  0.7753 -0.1943
 9485TIP3   OH249869   5.627   4.942  10.622  0.0141  0.2873  0.5804
 9485TIP3    H149870   5.550   4.930  10.567  0.3775  0.4454  0.0255
 9485TIP3    H249871   5.701   4.923  10.565  0.3580 -0.9811  1.4079
 9486TIP3   OH249872   4.194   6.424  14.986  0.5535 -0.8632  0.0566
 9486TIP3    H149873   4.205   6.334  15.016 -0.7950 -1.0058  0.1816
 9486TIP3    H249874   4.274   6.444  14.938  0.4976 -2.4390 -0.7380
 9487TIP3   OH249875   2.134   3.438  16.843 -0.0256 -0.1105 -0.2209
 9487TIP3    H149876   2.062   3.401  16.894 -0.9116  0.6924 -0.8449
 9487TIP3    H249877   2.201   3.369  16.840 -0.7650 -0.8648  0.3756
 9488TIP3   OH249878   0.456   0.377   4.248  0.2539  0.6163 -0.1147
 9488TIP3    H149879   0.454   0.442   4.319  2.4628  1.9962 -1.1990
 9488TIP3    H249880   0.475   0.429   4.170 -2.4456 -0.8041 -1.8662
 9489TIP3   OH249881   5.809   2.906   5.595  0.3647  0.2969  0.3051
 9489TIP3    H149882   5.743   2.975   5.593  0.0719  0.1190  2.1048
 9489TIP3    H249883   5.807   2.868   5.507 -1.1109  1.0317 -0.0088
 9490TIP3   OH249884   1.132   5.812  12.305  0.0918  0.4338 -0.3235
 9490TIP3    H149885   1.137   5.890  12.359  2.6846  0.9132 -1.0989
 9490TIP3    H249886   1.212   5.815  12.252 -0.3188 -2.1357 -1.2193
 9491TIP3   OH249887   6.168   1.343  12.748 -0.3495 -0.3395  0.4197
 9491TIP3    H149888   6.210   1.398  12.682  0.1165 -0.4683  0.6094
 9491TIP3    H249889   6.148   1.403  12.820 -0.5264 -0.2727  0.3171
 9492TIP3   OH249890   1.680   3.891   2.141 -0.0853 -0.2978  0.0331
 9492TIP3    H149891   1.741   3.893   2.215 -1.2343 -0.1984  1.0146
 9492TIP3    H249892   1.610   3.832   2.169 -0.5409 -0.2552 -0.9829
 9493TIP3   OH249893   1.979   1.679  15.612  0.7967 -0.4943  0.1354
 9493TIP3    H149894   2.009   1.685  15.521 -0.8131 -0.6298 -0.4375
 9493TIP3    H249895   2.031   1.608  15.650  1.8288 -0.1220 -0.5159
 9494TIP3   OH249896   1.395   1.884   2.342 -0.1411 -0.3987  0.3974
 9494TIP3    H149897   1.480   1.891   2.299  0.0121  0.8177  0.8549
 9494TIP3    H249898   1.409   1.823   2.414 -0.2309 -1.9183 -0.8143
 9495TIP3   OH249899   3.602   2.908  14.263 -0.0679  0.0154  0.1328
 9495TIP3    H149900   3.579   3.001  14.252 -2.1441 -0.7072 -2.9034
 9495TIP3    H249901   3.585   2.890  14.355 -1.3311  2.2601  0.4090
 9496TIP3   OH249902   4.652   5.752  15.988  0.4148 -0.8044  0.2418
 9496TIP3    H149903   4.735   5.745  15.940  1.3243  0.4638  1.5544
 9496TIP3    H249904   4.645   5.845  16.008 -1.0377 -0.9958  0.6798
 9497TIP3   OH249905   6.482   2.246  11.369  0.5977 -0.0328  0.0948
 9497TIP3    H149906   6.424   2.195  11.312  3.0510 -1.3896 -1.3696
 9497TIP3    H249907   6.554   2.273  11.311  1.6374  1.2353  1.8941
 9498TIP3   OH249908   3.074   6.328  12.263  0.5438 -0.1192 -0.1950
 9498TIP3    H149909   2.987   6.298  12.236 -0.1074  0.9050  0.6757
 9498TIP3    H249910   3.088   6.409  12.213  1.0898 -0.3859 -0.4822
 9499TIP3   OH249911   0.701   3.360  12.009 -0.1503 -0.0169  0.2309
 9499TIP3    H149912   0.618   3.319  12.035 -0.6959  0.9907  0.1303
 9499TIP3    H249913   0.738   3.392  12.091  0.5777 -1.2032  0.3941
 9500TIP3   OH249914   5.399   3.007  11.715  0.1310  0.0703 -0.2886
 9500TIP3    H149915   5.326   3.054  11.755  0.1060  1.1773 -1.5907
 9500TIP3    H249916   5.420   3.056  11.635  2.2339 -0.2807 -0.0187
 9501TIP3   OH249917   1.713   6.083   0.373 -0.3951 -0.2416 -0.2567
 9501TIP3    H149918   1.786   6.022   0.382 -0.3013  0.1220  1.9148
 9501TIP3    H249919   1.645   6.048   0.432 -1.2933  0.4105 -0.8771
 9502TIP3   OH249920   0.867   0.229  16.684 -0.4129  0.0967 -0.0470
 9502TIP3    H149921   0.836   0.177  16.610 -1.1682 -0.3869  0.5891
 9502TIP3    H249922   0.948   0.186  16.711 -0.8672 -0.5817  0.2774
 9503TIP3   OH249923   3.826   2.398   4.079  0.3028 -0.4689  0.0737
 9503TIP3    H149924   3.856   2.379   3.990 -1.1183 -0.5616 -0.4155
 9503TIP3    H249925   3.849   2.320   4.129  1.5899 -0.2069 -0.0593
 9504TIP3   OH249926   6.367   6.234   0.704  0.0950  0.0211  0.0983
 9504TIP3    H149927   6.439   6.176   0.729 -0.7325  0.0872  2.8986
 9504TIP3    H249928   6.331   6.194   0.625  0.7070 -2.2716  0.9038
 9505TIP3   OH249929   3.973   2.283  12.656  0.5090 -0.4567 -0.3114
 9505TIP3    H149930   4.030   2.309  12.584 -0.5561  1.3959 -0.5573
 9505TIP3    H249931   3.964   2.188  12.646  0.2636 -0.2446 -2.7526
 9506TIP3   OH249932   1.721   4.837   5.025 -0.6835 -0.4789  0.7955
 9506TIP3    H149933   1.651   4.801   5.080  1.0036  0.2909  3.6263
 9506TIP3    H249934   1.787   4.768   5.021 -0.9509 -0.6778 -0.6838
 9507TIP3   OH249935   3.835   3.656  11.802 -0.1873  0.6164  0.5286
 9507TIP3    H149936   3.752   3.608  11.801  1.4093 -2.3623  0.7411
 9507TIP3    H249937   3.862   3.656  11.893  1.2512 -0.7567  0.1341
 9508TIP3   OH249938   2.486   1.212  16.786  0.3254  0.0127 -0.4803
 9508TIP3    H149939   2.556   1.267  16.750  0.7317 -0.3839 -0.3102
 9508TIP3    H249940   2.532   1.137  16.823 -0.2608 -0.7849 -1.3239
 9509TIP3   OH249941   5.295   6.573   2.923  0.1401  0.0092 -0.0526
 9509TIP3    H149942   5.377   6.528   2.944  0.7709  1.5230  0.9124
 9509TIP3    H249943   5.240   6.505   2.883  1.3315 -1.3940  0.5727
 9510TIP3   OH249944   4.507   5.698  15.576 -0.2384 -0.4085 -0.8592
 9510TIP3    H149945   4.427   5.742  15.605 -0.8459 -1.2882 -1.1721
 9510TIP3    H249946   4.479   5.609  15.554  1.0320 -1.0651  0.0966
 9511TIP3   OH249947   0.073   6.510   2.449 -0.3225 -0.2146 -0.3914
 9511TIP3    H149948  -0.015   6.473   2.446  0.0126 -1.1623  0.6089
 9511TIP3    H249949   0.112   6.485   2.365 -0.8437 -0.1962 -0.6424
 9512TIP3   OH249950   6.601   2.891   6.179  0.1907 -0.4322 -1.1623
 9512TIP3    H149951   6.670   2.881   6.245 -0.7354 -1.9461 -0.3743
 9512TIP3    H249952   6.647   2.919   6.101  1.2835  1.8224  0.1944
 9513TIP3   OH249953   6.120   3.161   4.744  0.5278 -0.4261 -0.9124
 9513TIP3    H149954   6.056   3.232   4.749  0.7460 -0.3069  1.5784
 9513TIP3    H249955   6.179   3.177   4.818 -0.2129 -3.8879  0.6324
 9514TIP3   OH249956   1.531   1.870   6.430 -0.5049 -0.0334 -0.3248
 9514TIP3    H149957   1.536   1.962   6.403  0.7883 -0.0066 -0.0933
 9514TIP3    H249958   1.593   1.825   6.372  0.7288 -0.3237  1.1444
 9515TIP3   OH249959   6.468   3.109   4.788 -0.1169 -0.0468 -0.3726
 9515TIP3    H149960   6.506   3.022   4.776 -0.1794 -0.0793 -0.3389
 9515TIP3    H249961   6.409   3.099   4.863  0.6916  0.2779  0.3357
 9516TIP3   OH249962   0.763   2.260  17.075 -0.8103  0.0608 -0.1119
 9516TIP3    H149963   0.668   2.265  17.080 -0.7915  0.8096 -0.3534
 9516TIP3    H249964   0.780   2.203  17.000 -1.0889  1.6011 -1.3996
 9517TIP3   OH249965   0.466   3.041  11.546  0.4023  0.3917 -0.1009
 9517TIP3    H149966   0.513   2.964  11.514  0.0873 -0.0142  0.4095
 9517TIP3    H249967   0.507   3.114  11.500  0.7977 -0.0645 -0.4851
 9518TIP3   OH249968   6.382   1.023   0.214  0.1681  0.2489 -0.8125
 9518TIP3    H149969   6.319   1.018   0.286 -0.6332 -0.4481 -1.5389
 9518TIP3    H249970   6.447   0.956   0.235  0.8617  1.1686  0.0903
 9519TIP3   OH249971   5.729   6.149   2.637 -0.2381 -0.6460  1.0420
 9519TIP3    H149972   5.817   6.152   2.674  0.3093 -0.2312 -0.2374
 9519TIP3    H249973   5.673   6.186   2.706  0.5051 -1.3115  2.0368
 9520TIP3   OH249974   3.876   1.548  16.555  0.2313  0.5769 -0.0438
 9520TIP3    H149975   3.934   1.584  16.623  0.6004 -1.6087  0.8775
 9520TIP3    H249976   3.847   1.464  16.590 -0.1932 -0.2756 -2.2650
 9521TIP3   OH249977   5.770   0.730  17.152  0.1349 -0.0523  0.3095
 9521TIP3    H149978   5.725   0.789  17.213 -0.4918  0.5572 -0.7170
 9521TIP3    H249979   5.711   0.654  17.144 -2.0867  1.7828 -2.9162
 9522TIP3   OH249980   4.625   5.641   5.392 -0.2367 -0.2459  0.5664
 9522TIP3    H149981   4.716   5.668   5.400 -0.4176  0.7634 -0.5357
 9522TIP3    H249982   4.596   5.625   5.482  0.4635  1.3118  1.0989
 9523TIP3   OH249983   0.174   5.584  16.509 -0.1685 -0.3798 -0.0719
 9523TIP3    H149984   0.115   5.522  16.552  1.2146 -1.1610  0.7893
 9523TIP3    H249985   0.261   5.561  16.542  0.4985  1.4709 -0.4028
 9524TIP3   OH249986   3.819   3.878   6.513 -0.2688 -0.2501 -0.6947
 9524TIP3    H149987   3.844   3.954   6.564 -1.4581 -1.0574  1.1886
 9524TIP3    H249988   3.901   3.833   6.494  0.2114  0.1292  0.4297
 9525TIP3   OH249989   6.145   2.434  13.926  0.4539  0.0401 -0.0692
 9525TIP3    H149990   6.227   2.386  13.916  1.4861  1.8980 -0.8730
 9525TIP3    H249991   6.100   2.423  13.843  0.7648  0.5741 -0.3121
 9526TIP3   OH249992   5.306   4.756   1.342 -0.3932  0.3189  0.7209
 9526TIP3    H149993   5.299   4.681   1.402 -0.5462 -0.8544 -0.7186
 9526TIP3    H249994   5.389   4.798   1.366 -0.5509  0.0083  1.8800
 9527TIP3   OH249995   3.956   1.841   0.650 -0.1647  0.0183  0.4308
 9527TIP3    H149996   3.987   1.873   0.735 -0.5538  1.2087  0.1427
 9527TIP3    H249997   4.014   1.769   0.629  0.7006  0.4848  1.1540
 9528TIP3   OH249998   1.877   5.902  11.877  0.1420  0.1355  0.0049
 9528TIP3    H149999   1.962   5.930  11.910  1.3903 -2.0745 -1.0950
 9528TIP3    H250000   1.896   5.856  11.795 -2.1133 -0.3819 -0.3164
 9529TIP3   OH250001   5.890   2.785   3.816 -0.1770  0.1946  0.0713
 9529TIP3    H150002   5.800   2.756   3.802 -0.4758  1.6730 -1.4255
 9529TIP3    H250003   5.941   2.737   3.752  0.1004 -0.5625  0.8464
 9530TIP3   OH250004   1.093   3.880  12.847 -0.2361 -0.5313 -0.4503
 9530TIP3    H150005   1.156   3.808  12.846 -0.3110 -0.5994 -1.0894
 9530TIP3    H250006   1.022   3.849  12.903 -0.1875 -0.8874 -0.5802
 9531TIP3   OH250007   0.895   0.458  15.435  0.1582 -0.2061 -0.5270
 9531TIP3    H150008   0.949   0.384  15.409  0.5005  0.1001 -0.7004
 9531TIP3    H250009   0.947   0.535  15.412  0.0536  0.0837  0.1694
 9532TIP3   OH250010   5.578   1.850   4.388  0.0990 -0.1265 -0.4710
 9532TIP3    H150011   5.559   1.896   4.470 -0.0903  0.9858 -1.1283
 9532TIP3    H250012   5.496   1.806   4.366 -0.4985  1.2456 -1.1069
 9533TIP3   OH250013   5.631   3.682   3.978  0.2881 -0.3279 -0.0224
 9533TIP3    H150014   5.660   3.666   3.888  0.3173 -0.1220 -0.0498
 9533TIP3    H250015   5.618   3.594   4.015  2.0519 -0.4595  0.3535
 9534TIP3   OH250016   0.792   1.812  13.145 -0.3760  0.3216 -0.0054
 9534TIP3    H150017   0.761   1.748  13.082  0.8800 -1.1693  0.8144
 9534TIP3    H250018   0.717   1.826  13.203 -0.1260 -1.9617  0.9774
 9535TIP3   OH250019   1.936   2.731  13.725 -0.2428 -0.4236  0.1357
 9535TIP3    H150020   1.890   2.799  13.775 -0.7571 -0.0805 -0.7823
 9535TIP3    H250021   1.986   2.779  13.660  1.5084 -0.7941  1.1567
 9536TIP3   OH250022   0.886   6.682   5.112  0.2840 -0.1345  0.2427
 9536TIP3    H150023   0.942   6.608   5.136  1.1740  0.7623  1.0659
 9536TIP3    H250024   0.928   6.757   5.153 -0.8197  0.7730 -0.2384
 9537TIP3   OH250025   2.529   6.152   5.763 -0.5058  0.0323  1.0889
 9537TIP3    H150026   2.532   6.088   5.691  0.2145  1.8783 -0.6505
 9537TIP3    H250027   2.470   6.114   5.827 -1.4186 -1.6172 -0.6159
 9538TIP3   OH250028   5.370   0.326   0.335 -0.2698 -0.0837 -0.3114
 9538TIP3    H150029   5.397   0.418   0.334  0.6677 -0.3521  0.2655
 9538TIP3    H250030   5.324   0.316   0.418 -1.4654  0.1555 -0.9149
 9539TIP3   OH250031   3.773   3.963   4.633  0.6676 -0.1959  0.1953
 9539TIP3    H150032   3.804   3.872   4.628  0.9677 -0.0647 -0.5037
 9539TIP3    H250033   3.850   4.013   4.658  0.5241 -0.1204  0.4859
 9540TIP3   OH250034   6.599   6.072   4.378  0.3590 -0.0060  0.1178
 9540TIP3    H150035   6.515   6.040   4.347  0.5343  1.5693 -2.1896
 9540TIP3    H250036   6.582   6.104   4.467 -1.7072  1.1435 -0.6508
 9541TIP3   OH250037   6.496   6.041   1.859 -0.1351 -0.2015 -0.0931
 9541TIP3    H150038   6.428   5.983   1.894  1.0949 -0.8985  1.2617
 9541TIP3    H250039   6.557   5.982   1.815  1.0095  0.0426  1.1047
 9542TIP3   OH250040   6.736   5.230   5.421 -0.2734 -0.2287  0.2570
 9542TIP3    H150041   6.672   5.159   5.421  0.2115 -0.6803 -0.2157
 9542TIP3    H250042   6.790   5.213   5.499  0.8683 -1.3603 -0.7245
 9543TIP3   OH250043   0.639   4.958  14.519  0.0055  0.4875  0.6350
 9543TIP3    H150044   0.652   5.027  14.453 -0.2020  1.4027  1.5221
 9543TIP3    H250045   0.615   4.881  14.468 -1.1480  1.4309 -0.3092
 9544TIP3   OH250046   1.135   5.714  12.604 -0.3157  0.3373  0.0932
 9544TIP3    H150047   1.133   5.701  12.509  1.6653 -2.7731  0.3249
 9544TIP3    H250048   1.218   5.757  12.620 -0.8301  1.2268  0.4176
 9545TIP3   OH250049   3.187   5.931   0.266 -0.2409  0.3070  0.4114
 9545TIP3    H150050   3.243   5.907   0.340 -1.0517  0.8920  1.2475
 9545TIP3    H250051   3.214   6.020   0.244  0.7696 -0.2674 -0.7602
 9546TIP3   OH250052   5.378   5.138  15.240  0.3469 -0.2255 -0.3051
 9546TIP3    H150053   5.423   5.083  15.177 -0.6296 -0.8931 -0.4436
 9546TIP3    H250054   5.419   5.224  15.231  0.7826 -0.5234 -1.2374
 9547TIP3   OH250055   4.342   3.829   1.443  0.1667 -0.1292 -0.0765
 9547TIP3    H150056   4.249   3.825   1.463 -0.2382  0.4330 -1.7216
 9547TIP3    H250057   4.380   3.880   1.515 -0.3858 -2.1536  1.7846
 9548TIP3   OH250058   6.537   0.329   0.858 -0.0356  0.1948  0.1381
 9548TIP3    H150059   6.566   0.280   0.781  2.4887  0.4136  0.8512
 9548TIP3    H250060   6.522   0.262   0.925  2.2128  0.2205  0.7445
 9549TIP3   OH250061   2.213   0.351   2.040 -0.1980  0.0932 -0.0388
 9549TIP3    H150062   2.138   0.292   2.035 -0.7173  0.7211  0.1620
 9549TIP3    H250063   2.218   0.389   1.952  0.5748 -0.7655 -0.3788
 9550TIP3   OH250064   0.282   2.396   4.304  0.3169 -0.3785  0.4270
 9550TIP3    H150065   0.319   2.467   4.250  0.8974 -2.1279 -1.6223
 9550TIP3    H250066   0.247   2.334   4.241 -1.2247 -1.4133  2.2026
 9551TIP3   OH250067   1.127   5.735  13.462  0.3903 -0.3529 -0.1677
 9551TIP3    H150068   1.205   5.764  13.509  1.7389 -1.3509 -1.6969
 9551TIP3    H250069   1.160   5.679  13.392 -1.4541  1.2947 -2.5359
 9552TIP3   OH250070   3.306   1.182   1.291  0.2476 -0.2297  0.2013
 9552TIP3    H150071   3.381   1.168   1.234  0.2236  0.7125 -0.0766
 9552TIP3    H250072   3.284   1.275   1.279  0.5569  0.1410  2.0931
 9553TIP3   OH250073   0.202   1.411  16.702  0.5093 -0.5293 -0.6380
 9553TIP3    H150074   0.115   1.397  16.741  0.4350 -0.5631 -0.8134
 9553TIP3    H250075   0.193   1.493  16.655  0.5994 -0.4883 -0.5832
 9554TIP3   OH250076   5.105   2.604   0.407  0.1865  0.5341 -0.1336
 9554TIP3    H150077   5.041   2.672   0.389 -1.5324 -0.6695  1.1862
 9554TIP3    H250078   5.110   2.554   0.325  1.6522  2.2969 -1.2017
 9555TIP3   OH250079   5.627   0.096  12.866  0.3047  0.1627 -0.1156
 9555TIP3    H150080   5.582   0.180  12.868  1.8103  1.0252 -0.7734
 9555TIP3    H250081   5.703   0.108  12.923  0.9472 -0.4958 -0.8196
 9556TIP3   OH250082   4.150   2.982   1.519 -0.1031 -0.0320 -0.0016
 9556TIP3    H150083   4.224   2.967   1.461  2.1476  0.1400  2.6079
 9556TIP3    H250084   4.117   2.894   1.539  0.2177 -0.2003 -0.2118
 9557TIP3   OH250085   5.067   4.298  14.332  0.6932 -0.0433 -0.0772
 9557TIP3    H150086   5.077   4.251  14.249  0.7786 -0.1135 -0.0267
 9557TIP3    H250087   5.148   4.280  14.380  0.4281 -0.4327  0.2366
 9558TIP3   OH250088   2.241   4.442   0.200 -0.0168  0.7584 -0.2967
 9558TIP3    H150089   2.298   4.509   0.238  1.2679 -0.1038 -0.6372
 9558TIP3    H250090   2.290   4.360   0.211 -1.2287 -0.0148 -0.5500
 9559TIP3   OH250091   1.832   4.021  12.153  0.5601  0.1482  0.4095
 9559TIP3    H150092   1.769   4.041  12.222 -1.4566 -0.7400 -1.0809
 9559TIP3    H250093   1.818   3.928  12.134  2.1665 -0.0146 -0.1685
 9560TIP3   OH250094   5.242   3.720   3.876 -0.5726 -0.1392 -0.0325
 9560TIP3    H150095   5.289   3.803   3.877 -1.0524  0.1314  0.4777
 9560TIP3    H250096   5.270   3.678   3.794  0.1453  0.2427  0.0038
 9561TIP3   OH250097   5.048   0.005   4.650  0.0646  0.0845 -0.1566
 9561TIP3    H150098   5.062   0.059   4.572 -0.3097 -1.6244 -1.4741
 9561TIP3    H250099   5.127  -0.049   4.655 -0.4895 -0.7430 -0.1568
 9562TIP3   OH250100   0.130   3.242  16.686  0.1288  0.1321 -0.4309
 9562TIP3    H150101   0.044   3.260  16.723  0.2948  0.7184 -0.3104
 9562TIP3    H250102   0.142   3.310  16.619  0.8103  0.5371  0.0838
 9563TIP3   OH250103   5.003   5.323  11.905  0.7118 -0.3484 -0.4038
 9563TIP3    H150104   5.084   5.338  11.954 -0.4568 -1.1397  1.9470
 9563TIP3    H250105   4.950   5.269  11.964 -2.6324  2.3973 -0.6043
 9564TIP3   OH250106   1.841   2.359  13.610  0.5947  0.5756 -0.3339
 9564TIP3    H150107   1.929   2.372  13.647  0.5467  2.4770 -0.7747
 9564TIP3    H250108   1.782   2.385  13.681  0.2992 -1.5871  0.2944
 9565TIP3   OH250109   0.491   4.881  16.957 -0.2929  0.6484  0.2456
 9565TIP3    H150110   0.410   4.882  16.908 -0.0408 -0.1493 -0.2075
 9565TIP3    H250111   0.471   4.928  17.038 -1.3116  0.1076  0.3155
 9566TIP3   OH250112   2.987   3.336   5.705  0.1691  0.4890 -0.4918
 9566TIP3    H150113   2.895   3.353   5.686  0.0940 -0.8011 -1.3720
 9566TIP3    H250114   2.987   3.260   5.763  0.6222  1.5909  1.0155
 9567TIP3   OH250115   4.427   2.501   3.441 -0.1128  0.4401  0.1490
 9567TIP3    H150116   4.402   2.572   3.500 -0.6257 -0.1277  0.6304
 9567TIP3    H250117   4.399   2.531   3.354 -0.9086  0.5623  0.4371
 9568TIP3   OH250118   3.496   1.022   4.584  0.1539  0.3292 -0.6705
 9568TIP3    H150119   3.553   0.996   4.656 -0.2731  0.7755 -0.1623
 9568TIP3    H250120   3.489   1.117   4.592 -1.5265  0.1857 -0.0600
 9569TIP3   OH250121   0.556   1.908  14.994  0.2937 -0.1356  0.1744
 9569TIP3    H150122   0.512   1.824  14.980  1.4919 -0.7555 -0.0200
 9569TIP3    H250123   0.495   1.973  14.958 -0.1451 -1.0284 -0.7569
 9570TIP3   OH250124   2.136   3.381   3.872  0.1985  0.3514  0.1530
 9570TIP3    H150125   2.086   3.419   3.800  1.7505 -0.3121 -1.3314
 9570TIP3    H250126   2.135   3.449   3.940 -1.4790  0.9062 -0.3626
 9571TIP3   OH250127   5.826   0.250  16.717 -0.5314 -0.2087  0.4003
 9571TIP3    H150128   5.784   0.204  16.644 -1.8357 -0.0460  1.0239
 9571TIP3    H250129   5.878   0.182  16.761  0.4502 -0.2612 -0.7680
 9572TIP3   OH250130   4.654   0.462   2.482 -0.5886  0.0234  0.0131
 9572TIP3    H150131   4.747   0.483   2.489 -0.2523  0.2624 -3.5437
 9572TIP3    H250132   4.645   0.378   2.526  2.1132 -1.7497 -2.4340
 9573TIP3   OH250133   5.960   3.396   0.377  0.1952  0.3811 -0.5811
 9573TIP3    H150134   6.050   3.419   0.353 -0.4508  3.8919 -0.2021
 9573TIP3    H250135   5.969   3.326   0.442  2.4080 -1.5824 -2.7856
 9574TIP3   OH250136   2.161   3.966  14.786  0.1260  0.2730  0.1081
 9574TIP3    H150137   2.087   3.996  14.734 -0.6018  0.0145  0.9633
 9574TIP3    H250138   2.168   4.030  14.857  1.7812  1.2361 -0.8359
 9575TIP3   OH250139   0.935   1.478   3.078  0.0471  0.0969 -0.5735
 9575TIP3    H150140   0.961   1.453   3.167  0.0167  0.0438 -0.5797
 9575TIP3    H250141   1.015   1.511   3.038 -0.4434  2.8090  0.3885
 9576TIP3   OH250142   5.860   1.311  13.919  0.5603  0.1439  0.4463
 9576TIP3    H150143   5.937   1.364  13.938  0.3697  1.2491 -1.5652
 9576TIP3    H250144   5.891   1.243  13.859  0.1838 -0.1318  0.5592
 9577TIP3   OH250145   6.047   4.674   6.136 -0.0418  0.0231 -0.6329
 9577TIP3    H150146   6.125   4.698   6.185 -0.5057 -0.4033  0.3373
 9577TIP3    H250147   6.069   4.695   6.045  0.7322  1.0851 -0.2266
 9578TIP3   OH250148   5.084   5.674   0.070  0.0457 -0.3623  0.2570
 9578TIP3    H150149   5.157   5.705   0.016  0.9955 -1.3278  0.9527
 9578TIP3    H250150   5.122   5.661   0.157 -1.6351  1.9932  1.4707
 9579TIP3   OH250151   0.128   3.647   4.055 -0.1664  0.2189 -0.0488
 9579TIP3    H150152   0.174   3.584   4.109  0.2395  0.0504 -0.5811
 9579TIP3    H250153   0.119   3.725   4.111 -0.3431 -0.1755  0.4777
 9580TIP3   OH250154   1.657   0.321   2.518  0.1388  0.2487  0.8948
 9580TIP3    H150155   1.680   0.408   2.549  0.8721  0.3275  0.1631
 9580TIP3    H250156   1.561   0.322   2.511  0.2320  1.4722 -0.4883
 9581TIP3   OH250157   1.465   0.790   5.380 -0.3496  0.0874  0.4114
 9581TIP3    H150158   1.516   0.710   5.392  0.2280  0.3317 -0.3407
 9581TIP3    H250159   1.530   0.860   5.376 -0.6373  0.2983 -1.5158
 9582TIP3   OH250160   0.866   6.264  10.266  0.2357  0.4107 -0.1978
 9582TIP3    H150161   0.944   6.312  10.294  0.3226 -0.1884  0.6106
 9582TIP3    H250162   0.893   6.172  10.266 -0.3400  0.2374 -0.3434
 9583TIP3   OH250163   2.849   1.051   2.383 -0.3649  0.3851  0.7039
 9583TIP3    H150164   2.913   1.122   2.383  0.7187 -0.5636  0.2480
 9583TIP3    H250165   2.894   0.978   2.341 -1.2012 -0.8028  1.7903
 9584TIP3   OH250166   2.747   5.463  16.714  0.8116 -0.1302  0.9237
 9584TIP3    H150167   2.668   5.516  16.726 -0.3358 -1.9281  1.8189
 9584TIP3    H250168   2.808   5.521  16.668 -1.6127  0.7885 -1.3798
 9585TIP3   OH250169   0.520   3.062   4.846 -0.2719 -0.3866  0.1806
 9585TIP3    H150170   0.516   3.152   4.879  0.0630  0.1744 -1.2318
 9585TIP3    H250171   0.611   3.036   4.861 -0.3935 -0.5302  0.6803
 9586TIP3   OH250172   1.723   1.510  14.904  0.0375  0.3234 -0.2881
 9586TIP3    H150173   1.696   1.562  14.980  0.8471  0.0717  0.1817
 9586TIP3    H250174   1.691   1.422  14.922 -1.5659  0.6826 -1.2052
 9587TIP3   OH250175   6.317   1.635  16.411 -0.2807 -0.1494 -0.0039
 9587TIP3    H150176   6.263   1.596  16.342 -0.1016 -0.4999  0.0537
 9587TIP3    H250177   6.367   1.704  16.365  1.9853 -2.2393 -0.8893
 9588TIP3   OH250178   4.467   2.584   6.141  0.8380 -0.1387 -0.4777
 9588TIP3    H150179   4.387   2.619   6.180  0.7628 -1.2454  0.4338
 9588TIP3    H250180   4.523   2.565   6.216  2.3292  1.4121 -1.1296
 9589TIP3   OH250181   6.431   4.240  13.789 -0.1389 -0.4244 -0.0389
 9589TIP3    H150182   6.451   4.147  13.785  0.2398 -0.3858  0.8176
 9589TIP3    H250183   6.359   4.247  13.851  0.1334 -0.0993  0.2419
 9590TIP3   OH250184   2.138   0.593   5.154 -0.5925 -0.1726  0.0345
 9590TIP3    H150185   2.107   0.654   5.221  0.9532  0.9039 -0.1851
 9590TIP3    H250186   2.230   0.614   5.142 -0.4378 -1.4060 -1.3099
 9591TIP3   OH250187   1.296   1.686   6.245 -0.5877 -0.4198 -0.1820
 9591TIP3    H150188   1.321   1.601   6.282  0.2951 -0.2978 -0.4824
 9591TIP3    H250189   1.215   1.668   6.197  0.9499 -1.6956 -2.4808
 9592TIP3   OH250190   3.598   5.614  12.739 -0.6280  0.8247  0.4755
 9592TIP3    H150191   3.641   5.699  12.735 -0.9411  0.9559 -0.1903
 9592TIP3    H250192   3.616   5.582  12.828  0.6945  0.9506  0.2730
 9593TIP3   OH250193   2.068   2.258   6.181  0.6586  0.4258 -0.5365
 9593TIP3    H150194   2.037   2.322   6.118 -1.0294  0.0678 -0.1214
 9593TIP3    H250195   2.046   2.295   6.267  0.2689 -0.3887 -0.2718
 9594TIP3   OH250196   5.243   5.431  12.948 -0.1105  0.4479 -0.2127
 9594TIP3    H150197   5.232   5.409  12.855 -1.0521  2.0178 -0.5085
 9594TIP3    H250198   5.179   5.501  12.963  0.7592  0.9317  1.3668
 9595TIP3   OH250199   5.887   6.462  13.907  0.3249 -0.2664 -0.2929
 9595TIP3    H150200   5.967   6.486  13.955  0.1844  0.2033 -0.2878
 9595TIP3    H250201   5.836   6.411  13.969  0.9939 -1.2871 -0.5681
 9596TIP3   OH250202   6.155   5.376  15.995  0.6461 -0.9011 -0.1587
 9596TIP3    H150203   6.173   5.379  15.901  0.6730  2.6157 -0.1710
 9596TIP3    H250204   6.061   5.393  16.002  0.7998 -0.2526  0.4321
 9597TIP3   OH250205   5.375   5.681   6.173 -0.0697  0.2706  0.0772
 9597TIP3    H150206   5.423   5.607   6.208 -1.0949 -1.5719 -2.1007
 9597TIP3    H250207   5.287   5.672   6.209 -0.2118  0.3738 -0.2346
 9598TIP3   OH250208   2.864   5.110  13.185 -0.5125 -0.0869  0.1610
 9598TIP3    H150209   2.857   5.084  13.093 -2.6640 -1.4318  0.6209
 9598TIP3    H250210   2.890   5.031  13.231 -1.7083 -0.0558  0.9501
 9599TIP3   OH250211   4.217   4.932  14.553  0.4225 -0.4626  0.0197
 9599TIP3    H150212   4.238   4.918  14.645 -0.2200 -0.7602  0.1295
 9599TIP3    H250213   4.241   5.023  14.536 -1.7558  0.4170  1.1700
 9600TIP3   OH250214   4.135   5.865   4.758 -0.0086  0.1762  0.2147
 9600TIP3    H150215   4.174   5.848   4.672 -0.6060  1.3865 -0.3087
 9600TIP3    H250216   4.189   5.814   4.819  2.0702  1.3534 -0.5478
 9601TIP3   OH250217   2.636   3.397  12.522  0.1235 -0.0246 -0.0101
 9601TIP3    H150218   2.542   3.379  12.520  0.1440 -0.4451  1.5722
 9601TIP3    H250219   2.643   3.492  12.523 -0.2111  0.0471 -1.5685
 9602TIP3   OH250220   5.675   0.899   2.657  0.3834 -0.3610  0.1158
 9602TIP3    H150221   5.586   0.865   2.653  0.8032 -1.4497 -0.6592
 9602TIP3    H250222   5.691   0.915   2.750 -1.3284  1.9166  0.1171
 9603TIP3   OH250223   4.493   0.717  12.395  0.0536 -0.5608 -0.2232
 9603TIP3    H150224   4.436   0.641  12.382 -1.5885  0.1138  2.2114
 9603TIP3    H250225   4.449   0.788  12.348  0.5621 -0.6945 -0.9079
 9604TIP3   OH250226   0.581   3.800   2.657  0.6800 -0.2316  0.4474
 9604TIP3    H150227   0.557   3.876   2.711  0.9766  0.8634 -0.9132
 9604TIP3    H250228   0.677   3.798   2.661  0.7467  0.2926 -0.5810
 9605TIP3   OH250229   1.817   2.633  17.132  0.1790  0.0883 -0.0110
 9605TIP3    H150230   1.767   2.704  17.092  0.3231  0.2923  0.1710
 9605TIP3    H250231   1.852   2.584  17.057  1.4509  1.1758 -0.1633
 9606TIP3   OH250232   5.029   3.259  14.870  0.3932 -0.9133 -0.1616
 9606TIP3    H150233   5.070   3.265  14.784 -0.4386  0.8198 -0.4703
 9606TIP3    H250234   4.968   3.333  14.874  0.7335 -0.6652  2.0912
 9607TIP3   OH250235   2.922   6.480  16.362  0.0534  0.2552  0.2352
 9607TIP3    H150236   2.866   6.502  16.288  0.0531  1.4040  0.5656
 9607TIP3    H250237   2.971   6.560  16.380  0.0631 -0.0073  1.4630
 9608TIP3   OH250238   0.512   1.308   1.035 -0.1931  0.2746 -0.2423
 9608TIP3    H150239   0.470   1.222   1.046  0.0077  0.2857  0.7628
 9608TIP3    H250240   0.605   1.289   1.030 -0.2508  0.3040 -1.8299
 9609TIP3   OH250241   5.172   2.116   4.450 -0.3903 -0.1409 -0.3578
 9609TIP3    H150242   5.079   2.136   4.465 -0.6773  0.1000 -2.1948
 9609TIP3    H250243   5.211   2.200   4.426 -0.1629 -0.5685 -1.5806
 9610TIP3   OH250244   5.155   3.964   5.048 -0.1867 -0.2760  0.5061
 9610TIP3    H150245   5.220   4.029   5.022 -0.7191  0.2948  0.5724
 9610TIP3    H250246   5.187   3.929   5.131  0.8372 -1.1400 -0.2279
 9611TIP3   OH250247   2.267   2.577  12.705 -0.1727  0.4882  0.3743
 9611TIP3    H150248   2.244   2.648  12.645 -3.2671 -1.1125 -0.5796
 9611TIP3    H250249   2.311   2.512  12.650 -1.3364 -0.1695  0.1724
 9612TIP3   OH250250   3.787   1.016   5.951  0.4534 -0.3148  0.4701
 9612TIP3    H150251   3.822   1.087   5.896 -0.3605 -0.9035 -0.8648
 9612TIP3    H250252   3.697   1.042   5.969 -0.1594 -1.3864 -0.8087
 9613TIP3   OH250253   6.115   2.889  15.909 -0.4407 -0.0651 -0.0466
 9613TIP3    H150254   6.131   2.796  15.892 -0.5113 -0.2507  0.8713
 9613TIP3    H250255   6.108   2.895  16.004  0.2192  0.9888 -0.0492
 9614TIP3   OH250256   6.060   2.317   0.624  0.4342 -0.5448 -0.3054
 9614TIP3    H150257   6.078   2.405   0.593 -0.6581  0.9920  2.9345
 9614TIP3    H250258   5.969   2.301   0.601 -0.4955  0.7482  2.1378
 9615TIP3   OH250259   5.346   4.201   0.759 -0.2885  0.6706 -0.6216
 9615TIP3    H150260   5.296   4.278   0.731 -2.1076  0.0144  0.6341
 9615TIP3    H250261   5.357   4.213   0.853 -0.8401 -0.7161 -0.3630
 9616TIP3   OH250262   3.639   5.806   3.161 -0.5217  0.2858 -0.2476
 9616TIP3    H150263   3.549   5.802   3.195  0.1337  1.7942  1.8611
 9616TIP3    H250264   3.683   5.870   3.218  2.3567 -1.6636 -0.0962
 9617TIP3   OH250265   6.174   0.183  13.994  0.2848  0.1817 -0.2460
 9617TIP3    H150266   6.257   0.193  14.042  0.0519  2.4625 -0.1795
 9617TIP3    H250267   6.194   0.216  13.906  0.4202 -2.9347 -1.4950
 9618TIP3   OH250268   4.558   3.158  10.998 -0.0121 -0.6692 -0.3247
 9618TIP3    H150269   4.582   3.114  11.080  1.4857 -0.4881 -0.6445
 9618TIP3    H250270   4.492   3.101  10.959  0.5220 -1.6506  0.1803
 9619TIP3   OH250271   2.706   3.450  13.450 -0.0518 -0.5925  0.1437
 9619TIP3    H150272   2.733   3.405  13.370  3.4299 -2.0629  1.9481
 9619TIP3    H250273   2.637   3.394  13.487 -1.2983 -0.1925 -1.4189
 9620TIP3   OH250274   1.482   2.831   5.843  0.0642  0.3499  0.1258
 9620TIP3    H150275   1.498   2.778   5.765 -1.2147 -1.6938  1.1409
 9620TIP3    H250276   1.569   2.859   5.872  0.6106  0.5132 -1.5839
 9621TIP3   OH250277   2.825   0.031   5.108  0.0699 -0.4512  0.1014
 9621TIP3    H150278   2.897   0.028   5.172  1.2456 -1.3118 -1.1832
 9621TIP3    H250279   2.831   0.118   5.069 -0.7386  0.1276  1.2269
 9622TIP3   OH250280   2.995   3.692  14.405 -0.4901  0.1288  0.0225
 9622TIP3    H150281   2.979   3.786  14.416 -0.4703  0.3358 -1.5940
 9622TIP3    H250282   3.031   3.683  14.317 -0.5567 -1.4092  0.1238
 9623TIP3   OH250283   3.011   5.439  15.854 -0.2575  0.1951  0.0925
 9623TIP3    H150284   3.023   5.391  15.772 -1.0525 -0.7533  0.4985
 9623TIP3    H250285   3.039   5.377  15.921  3.7445  2.1023  0.4908
 9624TIP3   OH250286   6.539   1.451  17.046 -0.8686 -0.4597  0.2239
 9624TIP3    H150287   6.474   1.443  16.977 -3.4208  0.5487  2.3292
 9624TIP3    H250288   6.514   1.385  17.111 -0.3110  0.4873  1.4553
 9625TIP3   OH250289   2.802   4.972   6.374 -0.2626  0.2945  0.1529
 9625TIP3    H150290   2.762   4.923   6.303 -1.1621  2.0146 -0.5953
 9625TIP3    H250291   2.736   5.037   6.399  0.2133  0.0546  2.2491
 9626TIP3   OH250292   5.560   5.886   4.088 -0.3892  0.1236 -0.0123
 9626TIP3    H150293   5.495   5.870   4.155  1.3923  0.2635  1.8451
 9626TIP3    H250294   5.635   5.832   4.113  1.0420  1.6510 -0.7853
 9627TIP3   OH250295   0.257   5.375  13.554 -0.8579  0.3943  0.0131
 9627TIP3    H150296   0.189   5.421  13.604 -0.8002  2.7551 -1.9083
 9627TIP3    H250297   0.209   5.307  13.507 -1.0168 -1.4118  2.5439
 9628TIP3   OH250298   4.810   1.314  16.875 -0.1092  0.0339  0.2967
 9628TIP3    H150299   4.866   1.340  16.948 -0.3435 -2.6994  1.5976
 9628TIP3    H250300   4.866   1.256  16.822 -0.9818 -0.8846  0.3493
 9629TIP3   OH250301   2.118   0.726  10.876 -0.0853 -0.3984 -0.0166
 9629TIP3    H150302   2.104   0.632  10.866  2.7618 -0.8049 -0.9009
 9629TIP3    H250303   2.062   0.766  10.808 -1.6404 -1.3529  0.6417
 9630TIP3   OH250304   1.088   6.112   0.536  0.0950 -0.0409  0.3019
 9630TIP3    H150305   1.144   6.045   0.496  2.1662  2.0853 -0.5641
 9630TIP3    H250306   1.027   6.138   0.467  0.4847  0.2229  0.0535
 9631TIP3   OH250307   5.581   2.114  14.083  0.3492  0.3667  0.1165
 9631TIP3    H150308   5.553   2.036  14.035 -1.8448  0.6346  0.8040
 9631TIP3    H250309   5.632   2.080  14.156  0.5408 -0.3225 -0.3276
 9632TIP3   OH250310   1.425   1.535   5.707  0.1910 -0.0381 -0.7092
 9632TIP3    H150311   1.383   1.497   5.630  0.9419 -0.9843 -0.6827
 9632TIP3    H250312   1.455   1.459   5.757  0.0726  0.5712  0.3181
 9633TIP3   OH250313   0.036   3.215   6.060 -0.0240  0.1938  0.3203
 9633TIP3    H150314   0.098   3.284   6.085 -0.8685  0.5087  1.5985
 9633TIP3    H250315  -0.028   3.213   6.130  0.0799 -2.0623  0.4287
 9634TIP3   OH250316   4.848   3.422  16.896  0.9533  0.0131  0.0936
 9634TIP3    H150317   4.828   3.514  16.911  1.4826  0.2807 -0.7473
 9634TIP3    H250318   4.850   3.383  16.983 -2.9582 -0.0262  0.3344
 9635TIP3   OH250319   2.356   3.925  14.585  0.3789 -0.0040 -0.1876
 9635TIP3    H150320   2.296   3.885  14.522  0.4648  1.1663 -1.0268
 9635TIP3    H250321   2.301   3.941  14.662  0.2456 -1.3234  0.0162
 9636TIP3   OH250322   1.389   2.037   4.254 -0.0981 -0.2273 -0.0615
 9636TIP3    H150323   1.433   2.009   4.334  0.6511  1.8868  0.3471
 9636TIP3    H250324   1.409   2.131   4.247 -0.2325 -0.3116 -2.6733
 9637TIP3   OH250325   6.290   1.298  15.860  0.9245 -0.4320  0.1320
 9637TIP3    H150326   6.348   1.350  15.804  0.3653 -0.0987 -0.1504
 9637TIP3    H250327   6.203   1.311  15.822  0.3974  0.4768  1.5475
 9638TIP3   OH250328   0.333   0.328  14.691  0.3034 -0.0459 -0.1698
 9638TIP3    H150329   0.315   0.310  14.599  1.2241 -1.3529 -0.1150
 9638TIP3    H250330   0.251   0.310  14.736  0.0162  0.0334 -0.6516
 9639TIP3   OH250331   2.883   4.029   3.120 -0.1734  0.7113 -0.3221
 9639TIP3    H150332   2.879   3.955   3.060  2.4798  0.2042  0.0066
 9639TIP3    H250333   2.973   4.029   3.153 -0.7294  2.7068  1.4602
 9640TIP3   OH250334   4.166   1.849   2.043  0.0265  0.0500  0.4032
 9640TIP3    H150335   4.104   1.785   2.079  1.7709 -1.3146  1.1923
 9640TIP3    H250336   4.170   1.919   2.109 -1.2173  0.5355 -0.0218
 9641TIP3   OH250337   3.476   2.673   1.391  0.0145 -0.4422 -0.4900
 9641TIP3    H150338   3.546   2.608   1.383 -0.9122 -1.8182  1.6605
 9641TIP3    H250339   3.504   2.730   1.462 -0.8446 -0.7546  0.1060
 9642TIP3   OH250340   4.161   4.336  16.756  0.2176 -0.7938  0.1953
 9642TIP3    H150341   4.185   4.397  16.687 -0.0468 -0.5985  0.2725
 9642TIP3    H250342   4.065   4.341  16.760  0.2868  0.1922  1.4713
 9643TIP3   OH250343   6.275   6.460  11.742  0.2112 -0.3349  0.0505
 9643TIP3    H150344   6.293   6.399  11.813  0.3862 -0.2598  0.0726
 9643TIP3    H250345   6.338   6.436  11.674 -1.0847 -1.5333 -0.7796
 9644TIP3   OH250346   0.030   0.666  14.344 -0.2038  0.6297  0.0701
 9644TIP3    H150347   0.109   0.714  14.318  1.4021  0.1048  3.3992
 9644TIP3    H250348  -0.042   0.717  14.307  1.6076  2.2897 -1.4085
 9645TIP3   OH250349   0.391   2.335  13.586  0.8645 -0.0589 -0.2017
 9645TIP3    H150350   0.377   2.287  13.666  0.4509  1.7544  0.8775
 9645TIP3    H250351   0.333   2.411  13.592  0.8718  0.1767 -2.1831
 9646TIP3   OH250352   0.068   3.674   0.882 -0.6468 -0.3527  0.1293
 9646TIP3    H150353   0.131   3.610   0.915  1.3737  0.8927 -1.1032
 9646TIP3    H250354   0.095   3.757   0.921  1.2729  1.0237 -3.5652
 9647TIP3   OH250355   2.336   2.842   0.453 -0.0521 -0.0941 -0.0972
 9647TIP3    H150356   2.319   2.750   0.435 -2.0584  0.5748 -2.0205
 9647TIP3    H250357   2.407   2.866   0.394 -0.4846 -0.0737 -0.6099
 9648TIP3   OH250358   0.478   6.320  12.311 -0.4067 -0.5345 -0.2075
 9648TIP3    H150359   0.549   6.354  12.364 -0.6745  0.1571 -0.2876
 9648TIP3    H250360   0.498   6.227  12.301 -0.2722 -0.6453  0.9603
 9649TIP3   OH250361   4.210   0.042  11.159 -0.1860 -0.4631  0.0401
 9649TIP3    H150362   4.304   0.022  11.154 -0.4683 -1.8750 -0.0758
 9649TIP3    H250363   4.171  -0.009  11.088 -1.0188  0.2689 -0.0379
 9650TIP3   OH250364   3.296   5.082   2.802  0.1509  0.1162  0.3926
 9650TIP3    H150365   3.310   5.168   2.762 -0.4984 -0.4478 -1.1365
 9650TIP3    H250366   3.251   5.032   2.734 -0.5938 -1.0504  1.7116
 9651TIP3   OH250367   1.495   2.314   2.632 -0.0292  0.3247 -0.3350
 9651TIP3    H150368   1.449   2.231   2.622 -1.6516  1.3186 -1.6390
 9651TIP3    H250369   1.474   2.344   2.720 -0.8819  0.1543 -0.4740
 9652TIP3   OH250370   2.356   5.906   4.629 -0.1558  0.2571  0.0338
 9652TIP3    H150371   2.278   5.872   4.674  0.1951 -0.1604  0.3302
 9652TIP3    H250372   2.346   6.001   4.634 -0.6988  0.2084 -0.0190
 9653TIP3   OH250373   1.788   6.278   3.345  0.0335  0.1668  0.1588
 9653TIP3    H150374   1.797   6.373   3.343 -1.5398  0.3786  1.1274
 9653TIP3    H250375   1.716   6.259   3.284 -1.2759 -0.1163  1.7089
 9654TIP3   OH250376   4.427   4.558  11.971 -0.4145 -0.2913 -0.4200
 9654TIP3    H150377   4.475   4.481  12.003 -0.3945 -0.2298 -0.3051
 9654TIP3    H250378   4.359   4.522  11.914 -0.9367 -0.4446  0.2912
 9655TIP3   OH250379   3.132   6.567  10.866  0.5764  0.2470  0.1855
 9655TIP3    H150380   3.101   6.477  10.878  0.8867  0.2289  0.8960
 9655TIP3    H250381   3.226   6.562  10.879  0.4346  0.9002  1.7610
 9656TIP3   OH250382   4.049   4.770   2.056 -0.0364 -0.0111 -0.0872
 9656TIP3    H150383   4.095   4.747   1.976  0.3446 -0.4903  0.2594
 9656TIP3    H250384   4.042   4.865   2.054  0.5556  0.0305 -0.3760
 9657TIP3   OH250385   0.643   2.985  10.746  0.3984 -0.0332 -0.2681
 9657TIP3    H150386   0.603   2.976  10.660  1.8652  0.2304 -1.0067
 9657TIP3    H250387   0.649   2.895  10.779  0.5931 -0.2201 -0.8004
 9658TIP3   OH250388   6.745   5.810   0.682  0.5935 -0.1814  0.2441
 9658TIP3    H150389   6.837   5.796   0.660  0.3980 -1.2727  0.0492
 9658TIP3    H250390   6.698   5.802   0.599  0.1709 -1.2587  0.5691
 9659TIP3   OH250391   3.762   5.591   4.919  0.4082 -0.6754 -0.6322
 9659TIP3    H150392   3.712   5.614   4.998 -0.8929 -0.1329 -1.5715
 9659TIP3    H250393   3.696   5.591   4.849  1.4068 -1.8084 -1.6112
 9660TIP3   OH250394   0.960   2.128  15.223 -0.2572  0.0420 -0.2019
 9660TIP3    H150395   0.919   2.207  15.259 -0.5103 -0.3253  0.3242
 9660TIP3    H250396   1.007   2.089  15.297 -0.6633 -0.6407 -0.2987
 9661TIP3   OH250397   1.795   0.349   4.448  0.9922  0.5808 -0.0960
 9661TIP3    H150398   1.715   0.401   4.439 -0.6889 -1.7813  0.2345
 9661TIP3    H250399   1.806   0.339   4.542  0.5694 -0.6195 -0.1543
 9662TIP3   OH250400   2.288   1.683  17.003  0.3879  0.3114  0.0942
 9662TIP3    H150401   2.271   1.599  17.047  0.2661  0.7465  0.9068
 9662TIP3    H250402   2.225   1.743  17.043  1.0742  0.9937  0.1533
 9663TIP3   OH250403   2.411   4.934   4.145  1.0593 -0.2592  0.0024
 9663TIP3    H150404   2.460   4.869   4.195  1.4909  1.3231  1.7698
 9663TIP3    H250405   2.464   4.949   4.066  1.7640 -0.8954  0.3467
 9664TIP3   OH250406   2.242   1.737   0.871 -0.3107  0.3344 -0.1540
 9664TIP3    H150407   2.211   1.654   0.833  0.0007  0.2996 -0.3402
 9664TIP3    H250408   2.273   1.713   0.958 -2.3398  0.6589  0.7105
 9665TIP3   OH250409   3.738   1.154   2.939 -0.3978 -0.5592 -0.2980
 9665TIP3    H150410   3.671   1.176   3.004 -1.7318 -0.4344 -1.6525
 9665TIP3    H250411   3.695   1.093   2.880  0.4345  0.0789 -1.6177
 9666TIP3   OH250412   4.769   5.745  14.881 -0.2523  0.2924  0.6566
 9666TIP3    H150413   4.734   5.720  14.795  0.4065 -0.9518  0.7269
 9666TIP3    H250414   4.854   5.701  14.886 -0.5444 -0.1647  2.1853
 9667TIP3   OH250415   5.672   6.065   4.966 -0.0781 -0.5793  0.5710
 9667TIP3    H150416   5.693   6.157   4.947 -2.4838 -0.3175 -1.2955
 9667TIP3    H250417   5.578   6.065   4.984  0.0470 -2.5832  1.4393
 9668TIP3   OH250418   4.941   6.051  13.299 -0.0809 -0.3199  0.3052
 9668TIP3    H150419   4.862   6.105  13.299 -0.4946 -0.8872 -0.6430
 9668TIP3    H250420   5.012   6.113  13.314 -0.5470  0.4816 -0.6359
 9669TIP3   OH250421   1.219   1.197   3.587 -0.1999  0.2411  0.2869
 9669TIP3    H150422   1.139   1.211   3.637 -0.7957  1.4199 -0.9324
 9669TIP3    H250423   1.191   1.200   3.495  1.1060 -0.2298 -0.1513
 9670TIP3   OH250424   0.284   4.988  13.051  0.5230  0.4828 -0.0057
 9670TIP3    H150425   0.322   5.075  13.058 -0.1712  0.7231  0.8888
 9670TIP3    H250426   0.206   4.991  13.106 -0.4373 -0.1990 -1.2570
 9671TIP3   OH250427   6.328   5.295   1.561 -0.3399 -0.0191 -0.7619
 9671TIP3    H150428   6.355   5.256   1.645 -0.2175  0.6846 -0.4683
 9671TIP3    H250429   6.234   5.276   1.555 -0.5423  0.6786 -0.0371
 9672TIP3   OH250430   6.498   1.037   2.281 -0.1008  0.2255 -0.0432
 9672TIP3    H150431   6.525   1.043   2.372  1.4794  0.9472 -0.5211
 9672TIP3    H250432   6.454   1.120   2.263  0.8812  0.6896 -0.3237
 9673TIP3   OH250433   3.618   2.088  12.966  0.4406 -0.1675  0.1052
 9673TIP3    H150434   3.697   2.033  12.964  0.3729 -0.2556 -1.1463
 9673TIP3    H250435   3.548   2.028  12.989  0.8671  0.1534  2.5781
 9674TIP3   OH250436   3.079   1.939   3.859 -0.2444 -0.2605  0.2638
 9674TIP3    H150437   3.044   1.892   3.783 -0.4313 -2.1445  1.4323
 9674TIP3    H250438   3.121   1.871   3.912 -1.1468  0.7474  2.4237
 9675TIP3   OH250439   5.142   3.086  13.093  0.1491 -0.0767  0.3588
 9675TIP3    H150440   5.195   3.148  13.042 -1.5941 -0.5193 -2.2272
 9675TIP3    H250441   5.147   3.118  13.183  1.1150  2.5166 -0.5201
 9676TIP3   OH250442   2.707   4.299  11.895  0.4593  0.2490  0.4826
 9676TIP3    H150443   2.758   4.328  11.970  1.6423 -0.9204  0.1735
 9676TIP3    H250444   2.735   4.357  11.823  1.0492 -0.1116  0.4159
 9677TIP3   OH250445   0.957   5.646  16.969 -0.0337  0.0507 -0.6658
 9677TIP3    H150446   0.921   5.674  16.885  0.2139  0.7282 -0.5487
 9677TIP3    H250447   0.887   5.591  17.007  0.3271 -1.2704 -1.8230
 9678TIP3   OH250448   3.967   6.511   2.315 -0.2974  0.5713 -0.0464
 9678TIP3    H150449   3.935   6.601   2.308  2.6238  1.7850  0.7870
 9678TIP3    H250450   3.956   6.489   2.408 -0.3873  0.3232 -0.1153
 9679TIP3   OH250451   2.473   5.284  14.053  0.6875 -1.1286  0.2533
 9679TIP3    H150452   2.422   5.346  14.105  0.6141 -0.9449 -0.0358
 9679TIP3    H250453   2.520   5.338  13.989  0.4104 -1.3896 -0.1792
 9680TIP3   OH250454   6.608   4.366   0.675 -0.2840  0.1575 -0.0296
 9680TIP3    H150455   6.516   4.364   0.650  0.1273  0.3405 -1.6427
 9680TIP3    H250456   6.656   4.361   0.592  1.1856 -1.4097  0.8465
 9681TIP3   OH250457   1.812   3.415  17.145 -0.0609  0.5020 -0.0358
 9681TIP3    H150458   1.858   3.341  17.106  1.1195  0.5793  1.1170
 9681TIP3    H250459   1.872   3.489  17.134 -1.0863  1.2314 -0.8863
 9682TIP3   OH250460   3.660   4.410   0.674 -0.1274  0.5573  0.2954
 9682TIP3    H150461   3.743   4.413   0.723  0.2871  0.2331 -0.3794
 9682TIP3    H250462   3.640   4.502   0.655 -0.1454  0.6663  0.8265
 9683TIP3   OH250463   1.490   1.479  12.041 -0.2784 -0.5378 -0.1370
 9683TIP3    H150464   1.434   1.549  12.007  0.0185 -0.9979 -1.6800
 9683TIP3    H250465   1.579   1.503  12.013 -0.1228 -1.3267 -0.3666
 9684TIP3   OH250466   5.777   0.473   1.444 -0.6095  0.0026 -0.1688
 9684TIP3    H150467   5.793   0.528   1.367 -1.2169 -0.5599 -0.7078
 9684TIP3    H250468   5.716   0.406   1.414 -0.8786 -0.2162  0.8139
 9685TIP3   OH250469   4.471   5.548   2.319 -0.1070 -0.5141 -0.1205
 9685TIP3    H150470   4.492   5.637   2.348  1.4370 -1.0353  0.4639
 9685TIP3    H250471   4.464   5.498   2.401  2.7928 -1.6826 -0.4448
 9686TIP3   OH250472   6.764   4.760   6.269  0.1795  0.3618 -0.6840
 9686TIP3    H150473   6.789   4.755   6.177 -1.5712  2.3808 -1.3503
 9686TIP3    H250474   6.683   4.810   6.269  0.2277  0.5735  1.9809
 9687TIP3   OH250475   5.386   0.077   2.102  0.6180 -0.7345  0.5735
 9687TIP3    H150476   5.293   0.056   2.096 -0.0514  1.0392  3.0636
 9687TIP3    H250477   5.429  -0.008   2.110 -0.8172 -1.5583  0.0107
 9688TIP3   OH250478   1.116   0.407   3.437  0.0974 -0.1271 -0.1216
 9688TIP3    H150479   1.192   0.370   3.483 -0.0552 -1.0871 -0.6089
 9688TIP3    H250480   1.109   0.354   3.357  0.2377  1.3748 -1.1552
 9689TIP3   OH250481   2.893   1.603   5.067 -0.0365  0.3563  0.3931
 9689TIP3    H150482   2.941   1.682   5.042  0.2582 -0.0741 -0.4468
 9689TIP3    H250483   2.953   1.555   5.124 -0.4490  1.0135  1.4158
 9690TIP3   OH250484   0.182   0.459   3.394 -0.0643 -0.7184  0.0395
 9690TIP3    H150485   0.205   0.416   3.477  0.3228 -0.5874  0.0010
 9690TIP3    H250486   0.099   0.418   3.369  0.5159 -1.7777 -0.2321
 9691TIP3   OH250487   5.547   5.436  12.182 -0.0650  0.3745 -0.0595
 9691TIP3    H150488   5.544   5.403  12.093  1.6358 -0.0289 -0.0157
 9691TIP3    H250489   5.537   5.531  12.174 -3.6217  0.0926 -0.3047
 9692TIP3   OH250490   3.126   2.567  16.794  0.3144  0.1916 -0.3677
 9692TIP3    H150491   3.107   2.476  16.818  0.0954  0.4455  0.4662
 9692TIP3    H250492   3.217   2.581  16.820 -0.1841  0.7322  1.2417
 9693TIP3   OH250493   4.844   2.443   5.857 -0.6966  0.0186  0.1985
 9693TIP3    H150494   4.770   2.421   5.801 -0.8827 -0.1387  0.4991
 9693TIP3    H250495   4.872   2.359   5.894  0.2121 -0.0419 -0.6138
 9694TIP3   OH250496   5.941   0.903   3.622 -0.3452  0.1601  0.2986
 9694TIP3    H150497   6.018   0.957   3.609 -1.2059  1.4551  0.4373
 9694TIP3    H250498   5.867   0.963   3.611 -1.4342 -1.4575 -2.0453
 9695TIP3   OH250499   3.109   6.728   5.596  0.7538 -0.6027  0.6665
 9695TIP3    H150500   3.054   6.716   5.519  1.9825  0.4381 -0.4480
 9695TIP3    H250501   3.122   6.640   5.632  0.0610 -1.0885 -0.2580
 9696TIP3   OH250502   2.400   4.913   0.400 -0.2430  0.0744 -0.0763
 9696TIP3    H150503   2.494   4.898   0.405 -0.0772  1.4208  1.8840
 9696TIP3    H250504   2.391   4.990   0.344 -0.0024  1.0118  1.1325
 9697TIP3   OH250505   0.915   4.691   0.492 -0.0086  0.3995  0.0236
 9697TIP3    H150506   0.886   4.660   0.407  1.6287 -0.3098 -0.3252
 9697TIP3    H250507   0.835   4.721   0.536 -0.8078  1.4076 -1.9903
 9698TIP3   OH250508   6.367   6.254   0.260 -0.0814 -0.2154 -0.1899
 9698TIP3    H150509   6.382   6.311   0.185 -0.7622  0.3830  0.1228
 9698TIP3    H250510   6.427   6.180   0.246 -0.4099 -0.2529 -1.4594
 9699TIP3   OH250511   6.539   1.359  16.602  0.4077 -0.4836  0.1456
 9699TIP3    H150512   6.568   1.274  16.570  1.8408  0.1458 -0.3374
 9699TIP3    H250513   6.486   1.395  16.531 -0.6906 -1.1941  0.5846
 9700TIP3   OH250514   1.041   6.775  14.515 -0.3123  0.1113  0.6130
 9700TIP3    H150515   1.118   6.822  14.484 -0.8289  0.9128  0.5073
 9700TIP3    H250516   1.064   6.683  14.507  0.9526  0.3419  1.3930
 9701TIP3   OH250517   2.312   2.802  14.542 -0.0835 -0.1482 -0.1263
 9701TIP3    H150518   2.290   2.798  14.449 -0.3847 -2.2369 -0.0303
 9701TIP3    H250519   2.227   2.802  14.586  0.0223  2.0786  0.1873
 9702TIP3   OH250520   3.123   3.381   1.113  0.5235  0.3182 -0.4427
 9702TIP3    H150521   3.189   3.319   1.144 -0.6746 -1.6992 -1.7166
 9702TIP3    H250522   3.137   3.459   1.167  3.0072 -0.5230  0.2739
 9703TIP3   OH250523   3.213   1.482  14.198  0.5799 -0.5439 -0.1310
 9703TIP3    H150524   3.148   1.417  14.170 -0.3953  0.4474 -0.2790
 9703TIP3    H250525   3.263   1.501  14.119 -0.4589  0.3288 -0.6148
 9704TIP3   OH250526   5.365   6.259  15.018  0.8197 -0.3336 -0.0845
 9704TIP3    H150527   5.376   6.316  14.941 -3.3444  0.1924 -0.5448
 9704TIP3    H250528   5.363   6.319  15.092  0.5080 -0.3243 -0.0975
 9705TIP3   OH250529   0.864   6.447  11.069 -0.2429 -0.3269  0.0046
 9705TIP3    H150530   0.834   6.382  11.006 -0.2990 -2.7112  2.2957
 9705TIP3    H250531   0.917   6.397  11.131 -1.9936  1.3452  3.1018
 9706TIP3   OH250532   2.007   1.334  11.502 -0.3628  0.2938 -0.1023
 9706TIP3    H150533   1.955   1.253  11.502  2.1713 -1.4577 -0.0308
 9706TIP3    H250534   2.088   1.309  11.457  1.0858  2.4230  1.1973
 9707TIP3   OH250535   4.684   2.740   6.241 -0.3076  0.1497 -0.2729
 9707TIP3    H150536   4.766   2.771   6.280  1.0960 -1.6157 -1.6200
 9707TIP3    H250537   4.679   2.784   6.157 -0.0656 -0.6647 -0.7262
 9708TIP3   OH250538   2.901   2.083   3.153 -0.1279 -0.2857  0.1567
 9708TIP3    H150539   2.923   1.990   3.159  0.8882 -0.0247  0.7040
 9708TIP3    H250540   2.878   2.109   3.242  1.3351  0.3776  0.3797
 9709TIP3   OH250541   6.401   2.698   6.184 -0.0362 -0.2861  0.2135
 9709TIP3    H150542   6.457   2.774   6.166 -0.8083  0.2817  0.1928
 9709TIP3    H250543   6.441   2.657   6.261 -0.7137  1.2527  1.4347
 9710TIP3   OH250544   5.356   0.879  14.766  1.1646  0.3416 -0.2059
 9710TIP3    H150545   5.443   0.850  14.795  0.3567  0.4299  2.4776
 9710TIP3    H250546   5.323   0.934  14.837 -1.0093  0.5419 -1.2843
 9711TIP3   OH250547   2.409   0.341   5.674 -0.1522 -0.6048 -0.1122
 9711TIP3    H150548   2.360   0.350   5.756 -0.9464 -0.8694 -0.5451
 9711TIP3    H250549   2.433   0.249   5.670 -1.9701 -1.0853 -1.1773
 9712TIP3   OH250550   0.846   1.795   1.681 -0.3229  0.1803 -0.3602
 9712TIP3    H150551   0.892   1.799   1.597 -0.2222  0.4261 -0.2966
 9712TIP3    H250552   0.899   1.736   1.735  1.2011  2.1638  0.4612
 9713TIP3   OH250553   6.056   2.739   1.593 -0.3425 -0.7847 -0.2752
 9713TIP3    H150554   6.102   2.656   1.600 -0.7807 -1.0044  0.0531
 9713TIP3    H250555   6.111   2.793   1.536  0.7430 -0.7325  0.8046
 9714TIP3   OH250556   4.072   1.278   0.300 -0.2198 -0.4687 -0.1981
 9714TIP3    H150557   4.158   1.243   0.274  0.5878  2.3061 -1.5944
 9714TIP3    H250558   4.082   1.295   0.394 -0.1372 -2.4314  0.1945
 9715TIP3   OH250559   3.354   3.105   3.110  0.4992  0.2429  0.3575
 9715TIP3    H150560   3.298   3.132   3.184 -0.2674 -0.6190  0.1068
 9715TIP3    H250561   3.398   3.186   3.084 -1.1284  1.1192  0.1570
 9716TIP3   OH250562   3.685   6.655   2.435 -0.1333  0.0602 -0.0332
 9716TIP3    H150563   3.731   6.698   2.507 -1.2955  0.6875  0.3650
 9716TIP3    H250564   3.616   6.605   2.478 -1.2196  0.9104 -0.7215
 9717TIP3   OH250565   0.179   4.182  15.157 -0.4803  0.2405  0.5896
 9717TIP3    H150566   0.134   4.235  15.091  0.2862  0.1702 -0.0060
 9717TIP3    H250567   0.267   4.221  15.164 -0.8663  0.8995  2.3469
 9718TIP3   OH250568   4.268   4.472  16.064  0.3917  0.2565  0.2316
 9718TIP3    H150569   4.340   4.454  16.123  0.1540 -1.2051  0.1177
 9718TIP3    H250570   4.221   4.545  16.105  1.1133  0.2833  1.0384
 9719TIP3   OH250571   6.713   0.854  16.016  0.2451 -0.2626 -0.2822
 9719TIP3    H150572   6.669   0.791  15.958 -0.5639 -0.1350  0.1789
 9719TIP3    H250573   6.644   0.915  16.041  0.2029 -1.1321  1.9671
 9720TIP3   OH250574   5.782   2.497   1.796  0.0725  0.4456 -0.1843
 9720TIP3    H150575   5.787   2.593   1.798  0.6565  0.4149  1.4422
 9720TIP3    H250576   5.863   2.468   1.839 -0.1591 -0.7835 -0.5480
 9721TIP3   OH250577   3.779   6.630  11.274  0.2387  0.2700  0.2835
 9721TIP3    H150578   3.822   6.614  11.358  0.6834 -0.0966 -0.0109
 9721TIP3    H250579   3.752   6.722  11.278 -0.7374 -0.0454  1.2696
 9722TIP3   OH250580   6.598   0.527   0.483  0.2949  0.4623 -0.1083
 9722TIP3    H150581   6.627   0.595   0.421  0.6901 -0.6066 -1.1239
 9722TIP3    H250582   6.615   0.565   0.570  0.6120  1.6116 -0.6595
 9723TIP3   OH250583   2.424   3.339  11.051  0.2721  0.1522  0.7334
 9723TIP3    H150584   2.353   3.317  11.112 -0.2758 -1.1051 -0.2996
 9723TIP3    H250585   2.383   3.397  10.987 -0.4455 -2.0913 -0.9811
 9724TIP3   OH250586   3.937   5.411  15.442 -0.2747  0.2629 -0.2116
 9724TIP3    H150587   3.921   5.410  15.348 -0.9824 -0.6686 -0.0934
 9724TIP3    H250588   4.023   5.453  15.452  0.5368 -1.0257 -1.3852
 9725TIP3   OH250589   5.130   2.189  11.654  0.5433  0.0082  0.4332
 9725TIP3    H150590   5.069   2.217  11.587  1.8444  0.7155 -0.5106
 9725TIP3    H250591   5.092   2.109  11.690 -0.5637  0.0386 -0.6231
 9726TIP3   OH250592   1.371   5.893   2.601  0.2760  0.3445 -0.3565
 9726TIP3    H150593   1.290   5.941   2.586 -0.2087  0.2850  1.7757
 9726TIP3    H250594   1.349   5.802   2.581  1.1368  0.8043 -4.1868
 9727TIP3   OH250595   6.409   3.924   0.391  0.6950 -0.1908 -0.4061
 9727TIP3    H150596   6.356   3.847   0.411  1.4323 -0.9891 -1.4029
 9727TIP3    H250597   6.384   3.989   0.457  0.8857 -1.6666  1.1780
 9728TIP3   OH250598   2.650   2.503  16.406 -0.1988 -0.2529 -0.4613
 9728TIP3    H150599   2.693   2.498  16.321 -2.1830 -2.2964 -1.4340
 9728TIP3    H250600   2.573   2.447  16.398 -0.1608 -0.9907  2.8572
 9729TIP3   OH250601   0.511   4.445   3.820 -0.5976  0.7177  0.1460
 9729TIP3    H150602   0.515   4.372   3.758 -0.6951  0.9271 -0.1096
 9729TIP3    H250603   0.419   4.449   3.847 -0.6513  0.9306 -0.0651
 9730TIP3   OH250604   0.283   0.508  16.114  0.4364  0.4028 -0.0688
 9730TIP3    H150605   0.371   0.506  16.077  0.4480 -0.6854 -0.0162
 9730TIP3    H250606   0.227   0.527  16.039  0.7725  2.0720  0.0660
 9731TIP3   OH250607   4.831   1.008   5.001  0.0710  0.0919 -0.0941
 9731TIP3    H150608   4.791   0.933   4.957  1.6134 -0.1629 -1.1351
 9731TIP3    H250609   4.765   1.077   4.997 -0.3943 -0.4073 -1.4853
 9732TIP3   OH250610   1.179   3.141   1.882  0.3606 -0.3889  0.6018
 9732TIP3    H150611   1.224   3.209   1.933  1.1715 -0.7635  0.3889
 9732TIP3    H250612   1.090   3.176   1.871  1.2691  1.6305 -1.2460
 9733TIP3   OH250613   3.786   1.089  11.779 -0.1195  0.2100  0.3603
 9733TIP3    H150614   3.808   0.996  11.779 -0.6950  0.0695  0.2165
 9733TIP3    H250615   3.804   1.119  11.689 -1.0002 -0.0311  0.0900
 9734TIP3   OH250616   1.276   6.514   0.206  0.3771  1.0463 -0.3357
 9734TIP3    H150617   1.338   6.472   0.265 -0.0334  0.9992  0.0692
 9734TIP3    H250618   1.209   6.447   0.190  2.0525 -0.0931 -3.3881
 9735TIP3   OH250619   0.175   5.181   6.650  0.1851 -0.2318 -0.3904
 9735TIP3    H150620   0.099   5.200   6.705  0.1750 -0.3745 -0.3540
 9735TIP3    H250621   0.146   5.203   6.561 -0.8648 -2.8719 -0.7962
 9736TIP3   OH250622   2.835   4.902  14.489 -0.2249  0.3072  0.1716
 9736TIP3    H150623   2.814   4.992  14.516  0.7923  0.2053  1.4264
 9736TIP3    H250624   2.885   4.867  14.563  0.4182 -0.8920 -0.8075
 9737TIP3   OH250625   6.580   3.355   0.238  0.4651  0.1217 -0.1648
 9737TIP3    H150626   6.556   3.378   0.148  1.8251  0.4625 -0.4666
 9737TIP3    H250627   6.568   3.260   0.243 -0.7784  0.2538 -0.3174
 9738TIP3   OH250628   4.699   1.691  10.939 -0.0436 -0.0384 -0.1865
 9738TIP3    H150629   4.789   1.711  10.967  0.7184 -0.0328 -2.4706
 9738TIP3    H250630   4.698   1.596  10.929 -0.6963 -0.1797  0.9750
 9739TIP3   OH250631   5.821   0.340   5.659  0.0228 -0.4528  0.1095
 9739TIP3    H150632   5.911   0.317   5.682 -0.0370 -0.2407  0.5673
 9739TIP3    H250633   5.767   0.293   5.723 -0.1238  0.5897  0.7666
 9740TIP3   OH250634   2.428   5.561   6.130  0.0271  0.2518  0.1096
 9740TIP3    H150635   2.514   5.593   6.154 -0.4212  1.1386  0.5717
 9740TIP3    H250636   2.377   5.640   6.112 -1.2539 -0.1366  1.8028
 9741TIP3   OH250637   6.191   1.744  10.792 -0.6278  0.3637 -0.2303
 9741TIP3    H150638   6.277   1.703  10.798 -1.5521 -1.7413 -0.4818
 9741TIP3    H250639   6.204   1.819  10.733  0.8878 -0.3023 -0.7961
 9742TIP3   OH250640   3.429   1.368   3.722  0.2878 -0.2628 -0.2811
 9742TIP3    H150641   3.521   1.389   3.737  0.1935  0.6828 -0.9853
 9742TIP3    H250642   3.414   1.386   3.630 -1.0395  1.3182  0.1841
 9743TIP3   OH250643   6.191   0.121  16.817  0.3678  0.0827  0.4553
 9743TIP3    H150644   6.224   0.210  16.827  0.5367 -0.1646  2.4239
 9743TIP3    H250645   6.199   0.103  16.723  2.7884  1.1989  0.3772
 9744TIP3   OH250646   4.164   0.424   3.477 -0.5147 -0.0590  0.4743
 9744TIP3    H150647   4.213   0.440   3.557 -1.6121 -0.6098  1.2862
 9744TIP3    H250648   4.107   0.500   3.468 -0.5006 -0.0694  0.2932
 9745TIP3   OH250649   5.028   5.382  15.961  0.1836  0.2262  0.0003
 9745TIP3    H150650   5.079   5.386  16.042 -0.1821 -1.4848  0.3487
 9745TIP3    H250651   5.093   5.397  15.892  0.4755  1.8544  0.5787
 9746TIP3   OH250652   0.203   0.034   2.365 -0.6136 -0.3998 -0.5123
 9746TIP3    H150653   0.257   0.015   2.288  0.3940  0.6392 -0.0952
 9746TIP3    H250654   0.147   0.107   2.337  0.0652  0.2762 -0.1464
 9747TIP3   OH250655   5.609   0.008  10.869  0.4564 -0.1235 -0.1842
 9747TIP3    H150656   5.545  -0.061  10.850 -0.2074  0.6121 -0.6560
 9747TIP3    H250657   5.569   0.060  10.938  0.8040 -0.0021 -0.0715
 9748TIP3   OH250658   4.645   5.202   1.834 -0.1311 -0.2150  0.1117
 9748TIP3    H150659   4.699   5.151   1.895 -0.5099  0.2365  0.8387
 9748TIP3    H250660   4.555   5.178   1.856 -0.2723 -0.0423 -0.2741
 9749TIP3   OH250661   5.581   1.538  15.849 -0.0700 -0.1172  0.0815
 9749TIP3    H150662   5.620   1.618  15.884  1.0979 -0.5562 -0.1474
 9749TIP3    H250663   5.595   1.473  15.918  0.7310 -0.5730 -0.4875
 9750TIP3   OH250664   0.780   6.222  12.189  0.2759 -0.1409  0.6120
 9750TIP3    H150665   0.831   6.142  12.198  1.2084  0.1602 -1.4518
 9750TIP3    H250666   0.841   6.285  12.152 -1.3721  0.4352 -1.2750
 9751TIP3   OH250667   0.063   3.072   0.301 -0.7035 -0.1180  0.5828
 9751TIP3    H150668   0.102   2.989   0.327 -1.4379 -0.4570  0.6228
 9751TIP3    H250669   0.035   3.113   0.383  1.1128  0.9466  0.7368
 9752TIP3   OH250670   4.047   4.359  11.469  0.4890 -0.4385 -0.4016
 9752TIP3    H150671   3.982   4.318  11.526 -1.7340  1.7495 -1.1711
 9752TIP3    H250672   4.076   4.289  11.411 -0.7627 -1.6124  0.3353
 9753TIP3   OH250673   5.581   3.977  13.852  0.0227  0.2841 -0.1896
 9753TIP3    H150674   5.520   3.916  13.894 -0.0655  1.1270  0.9320
 9753TIP3    H250675   5.537   4.061  13.855  0.1924  0.4559 -1.6465
 9754TIP3   OH250676   5.971   0.998   3.254  0.1896  0.4198  0.6284
 9754TIP3    H150677   5.992   1.072   3.310  2.0085  1.1988 -0.9593
 9754TIP3    H250678   6.053   0.948   3.249  0.2349  0.5964 -1.5567
 9755TIP3   OH250679   6.622   1.922   5.544  1.0717 -0.4438  0.2016
 9755TIP3    H150680   6.665   2.004   5.520  1.5685 -1.1832 -1.6821
 9755TIP3    H250681   6.665   1.895   5.625  0.6646  1.2893  1.0461
 9756TIP3   OH250682   2.088   2.874   6.605 -0.8076  0.4216  0.4064
 9756TIP3    H150683   2.169   2.845   6.565 -1.0604 -0.4367  0.5093
 9756TIP3    H250684   2.022   2.811   6.577 -1.3865  0.9391  0.5662
 9757TIP3   OH250685   6.340   2.195   5.133 -0.0019  0.0099 -0.5308
 9757TIP3    H150686   6.288   2.133   5.082  0.3563 -2.4292  1.8668
 9757TIP3    H250687   6.281   2.225   5.202  0.8603 -0.3994  0.3964
 9758TIP3   OH250688   6.248   4.264  14.717  0.0574  0.2089 -0.6720
 9758TIP3    H150689   6.153   4.264  14.720  0.0502 -0.0078 -0.8673
 9758TIP3    H250690   6.270   4.334  14.655 -0.0163 -0.6284 -1.6713
 9759TIP3   OH250691   6.327   6.289  11.952  0.3084  0.8304  0.1596
 9759TIP3    H150692   6.378   6.318  12.028  2.3194 -3.0976  0.5668
 9759TIP3    H250693   6.252   6.242  11.989 -0.6301  1.8322 -0.4016
 9760TIP3   OH250694   2.812   5.542   0.684 -0.1027  0.1094 -0.0537
 9760TIP3    H150695   2.822   5.511   0.774  1.0064  0.3300 -0.0784
 9760TIP3    H250696   2.741   5.490   0.648  0.4736 -1.0840  0.4774
 9761TIP3   OH250697   0.185   2.341   0.573 -0.0166 -0.5905  0.0817
 9761TIP3    H150698   0.220   2.380   0.493  2.5125 -0.1833  1.3049
 9761TIP3    H250699   0.262   2.316   0.624 -1.5526 -2.8660  1.4559
 9762TIP3   OH250700   2.114   4.891   3.222  0.9190  0.1335 -0.0120
 9762TIP3    H150701   2.133   4.947   3.146  0.8495  1.2295  0.7494
 9762TIP3    H250702   2.019   4.881   3.221  0.6389  2.1502  1.2461
 9763TIP3   OH250703   0.808   0.669  16.995 -0.3428 -0.1330 -0.4145
 9763TIP3    H150704   0.817   0.739  17.059 -1.6418 -0.6164  0.3409
 9763TIP3    H250705   0.714   0.660  16.982 -0.2668 -2.1300 -0.0105
 9764TIP3   OH250706   5.301   6.531  15.148 -0.5245 -0.1000 -0.7454
 9764TIP3    H150707   5.232   6.592  15.176 -0.8717  0.6063 -2.9147
 9764TIP3    H250708   5.368   6.538  15.216 -1.5983  0.8926  0.2733
 9765TIP3   OH250709   0.976   2.465   2.446 -0.0802  0.1695  0.5738
 9765TIP3    H150710   1.017   2.402   2.506 -0.1269  0.6657  1.1347
 9765TIP3    H250711   0.888   2.432   2.432 -0.1282  0.1496  0.9259
 9766TIP3   OH250712   4.090   1.954  12.875 -0.5139 -0.2919 -0.1117
 9766TIP3    H150713   4.175   1.952  12.833  0.5805  0.6779  1.8904
 9766TIP3    H250714   4.074   2.047  12.893 -1.6771 -0.5194  0.1654
 9767TIP3   OH250715   5.597   3.945   5.933  0.2135  0.4086 -0.2073
 9767TIP3    H150716   5.685   3.962   5.900  2.0411 -3.1886  2.1527
 9767TIP3    H250717   5.588   4.001   6.010  1.5503 -0.9965  1.0143
 9768TIP3   OH250718   0.210   6.351  13.736  0.0817  0.3683  0.8370
 9768TIP3    H150719   0.245   6.426  13.785 -0.4775 -0.1380  2.0495
 9768TIP3    H250720   0.277   6.333  13.670 -0.0481  2.3185  0.0867
 9769TIP3   OH250721   2.971   2.378  15.148  0.0709 -0.1859 -0.4777
 9769TIP3    H150722   2.997   2.286  15.147  2.2124  0.3727 -0.1191
 9769TIP3    H250723   3.009   2.414  15.068  1.9427  1.0171  0.8748
 9770TIP3   OH250724   4.985   1.797  17.159 -0.3266 -0.3072  0.2968
 9770TIP3    H150725   4.994   1.785  17.065 -0.9815  0.1201  0.1781
 9770TIP3    H250726   5.062   1.849  17.184 -0.5235  0.1785 -0.1129
 9771TIP3   OH250727   0.521   5.998   1.445 -0.0125 -0.0371  0.1402
 9771TIP3    H150728   0.606   5.968   1.411  0.9845  2.7283 -0.1102
 9771TIP3    H250729   0.456   5.955   1.390  1.3184 -0.8410 -0.8648
 9772TIP3   OH250730   3.905   6.233   2.247  0.2260 -0.0370  0.1274
 9772TIP3    H150731   3.920   6.192   2.332  1.2994  0.5927  0.2611
 9772TIP3    H250732   3.928   6.325   2.260 -1.2688  0.4470 -0.4093
 9773TIP3   OH250733   2.710   5.020  15.757 -1.1450 -0.8386  0.0726
 9773TIP3    H150734   2.732   5.079  15.684 -1.2297  1.4458  1.7701
 9773TIP3    H250735   2.615   5.008  15.750 -1.0109 -1.4552 -0.7599
 9774TIP3   OH250736   6.512   5.655  13.248  0.6406 -0.0423  0.7014
 9774TIP3    H150737   6.605   5.648  13.271  0.7155  0.6242  0.6247
 9774TIP3    H250738   6.504   5.742  13.210  0.1573 -0.4364 -0.1105
 9775TIP3   OH250739   1.858   6.453   2.731  0.4196 -0.0080 -0.2424
 9775TIP3    H150740   1.797   6.408   2.789  0.8540 -0.8963 -0.4503
 9775TIP3    H250741   1.943   6.411   2.748  0.6670  0.1124 -1.0967
 9776TIP3   OH250742   4.296   5.205   3.751 -0.0075 -0.0703  0.0723
 9776TIP3    H150743   4.316   5.236   3.839 -3.5913  2.2722  0.2586
 9776TIP3    H250744   4.241   5.128   3.765 -0.7221  0.4062 -0.1065
 9777TIP3   OH250745   3.929   1.250  17.063 -0.1161  0.3520 -0.0181
 9777TIP3    H150746   3.978   1.291  16.992 -0.8644 -0.3541 -0.9667
 9777TIP3    H250747   3.897   1.168  17.026 -0.9486  0.2099  0.9728
 9778TIP3   OH250748   6.538   5.054  15.087  0.1676  0.0162 -0.0441
 9778TIP3    H150749   6.625   5.088  15.067 -0.5232  1.9778  0.1524
 9778TIP3    H250750   6.479   5.110  15.038 -1.0415 -0.8683  0.3665
 9779TIP3   OH250751   5.125   5.657   5.151  0.1432  0.3863  0.1045
 9779TIP3    H150752   5.124   5.562   5.164 -2.3972  0.3514  0.1725
 9779TIP3    H250753   5.155   5.693   5.234 -1.5345 -0.3062  1.0491
 9780TIP3   OH250754   1.171   3.812   2.004 -0.0501 -0.4446  0.2481
 9780TIP3    H150755   1.141   3.815   2.095  1.3931  0.2540  0.7240
 9780TIP3    H250756   1.207   3.724   1.994  0.5631 -0.2444  0.6265
 9781TIP3   OH250757   2.306   0.783  16.359  0.0159 -0.4678  0.6066
 9781TIP3    H150758   2.234   0.744  16.408 -0.7698 -0.0858 -0.2078
 9781TIP3    H250759   2.381   0.778  16.418  0.0725 -3.5031  0.4602
 9782TIP3   OH250760   0.496   2.723   0.943  0.1195  0.0878 -0.1199
 9782TIP3    H150761   0.460   2.685   1.023 -0.8002  0.6299 -0.2643
 9782TIP3    H250762   0.531   2.648   0.894 -0.0416 -0.3410  0.4113
 9783TIP3   OH250763   5.981   3.733   3.747 -0.1559  0.1161  0.6295
 9783TIP3    H150764   6.053   3.742   3.684  0.1283  0.8076  1.0421
 9783TIP3    H250765   5.962   3.822   3.775 -0.7465 -0.1208  1.0128
 9784TIP3   OH250766   2.152   4.394  16.459 -0.6876  0.0199 -0.0684
 9784TIP3    H150767   2.163   4.470  16.517 -0.8278  0.2596 -0.3539
 9784TIP3    H250768   2.190   4.321  16.508 -0.1977  0.3465  0.0472
 9785TIP3   OH250769   5.301   6.148  12.859 -0.4715  0.0394 -0.2977
 9785TIP3    H150770   5.230   6.089  12.832  0.3148 -0.5774 -1.1123
 9785TIP3    H250771   5.371   6.130  12.796  0.2796  0.8805  0.2804
 9786TIP3   OH250772   4.709   2.527  16.744 -0.7069  0.0581 -0.0548
 9786TIP3    H150773   4.630   2.472  16.741 -0.4343 -0.3577  0.4159
 9786TIP3    H250774   4.778   2.471  16.708 -0.2876 -0.1534  1.0496
 9787TIP3   OH250775   1.772   1.078   3.226 -0.8403  0.4803 -0.4960
 9787TIP3    H150776   1.811   1.105   3.309  0.1445 -2.6257  0.1794
 9787TIP3    H250777   1.845   1.078   3.164 -0.9661  0.1474 -0.6480
 9788TIP3   OH250778   3.995   2.370   1.612  0.9296  0.6880  0.3371
 9788TIP3    H150779   3.937   2.299   1.641  1.9094  0.0966  0.9054
 9788TIP3    H250780   4.004   2.356   1.518  0.7424  0.3239  0.3699
 9789TIP3   OH250781   1.319   5.883  12.127 -0.7607 -0.5110  0.1032
 9789TIP3    H150782   1.383   5.825  12.085 -0.8232 -1.1209  0.8329
 9789TIP3    H250783   1.249   5.892  12.062 -0.4074 -0.6679 -0.3037
 9790TIP3   OH250784   5.942   2.999  13.769  0.1579  0.0851  0.0229
 9790TIP3    H150785   5.988   3.064  13.716 -0.2446 -0.2202 -0.7230
 9790TIP3    H250786   5.924   2.927  13.708 -2.1951  0.6086 -0.0286
 9791TIP3   OH250787   2.012   5.404   1.462 -0.7675 -0.3629 -0.2692
 9791TIP3    H150788   1.936   5.457   1.485 -3.0344 -3.3199 -0.3344
 9791TIP3    H250789   2.020   5.412   1.367 -0.1652  0.9393 -0.1236
 9792TIP3   OH250790   0.609   0.652  13.654  0.7965 -0.5421 -0.0546
 9792TIP3    H150791   0.591   0.586  13.721 -2.0039 -0.3503 -0.4956
 9792TIP3    H250792   0.638   0.601  13.578 -0.6527 -1.2756 -0.1624
 9793TIP3   OH250793   6.337   1.685  15.395  0.1688  0.1849  0.0327
 9793TIP3    H150794   6.403   1.733  15.444 -0.1682 -0.6159  1.3151
 9793TIP3    H250795   6.387   1.632  15.333  0.8135 -0.9595  1.4786
 9794TIP3   OH250796   4.055   4.895   4.832 -0.1425  0.0725 -0.0881
 9794TIP3    H150797   4.134   4.860   4.873 -0.1338 -0.0941 -0.2493
 9794TIP3    H250798   4.018   4.953   4.899  0.8098  1.1705 -0.4866
 9795TIP3   OH250799   1.353   4.624   2.246 -0.0972  0.5483  0.3973
 9795TIP3    H150800   1.293   4.570   2.195 -0.7969  0.4351  1.3257
 9795TIP3    H250801   1.425   4.564   2.269  0.4485  0.7124 -0.7975
 9796TIP3   OH250802   2.642   4.786  11.720  0.3415  0.1091  0.1216
 9796TIP3    H150803   2.682   4.861  11.764 -0.9735  0.1421  1.2967
 9796TIP3    H250804   2.672   4.794  11.629  1.9300  0.8471  0.6635
 9797TIP3   OH250805   1.649   4.453   0.680 -0.0379  0.0148  0.3159
 9797TIP3    H150806   1.610   4.526   0.729  2.6277  0.1553  2.5082
 9797TIP3    H250807   1.584   4.383   0.685 -2.7429  2.1367 -1.9699
 9798TIP3   OH250808   2.690   4.187   1.688 -0.3915 -0.3481  0.4669
 9798TIP3    H150809   2.633   4.146   1.623  0.1935 -1.0041  0.3540
 9798TIP3    H250810   2.633   4.207   1.761 -0.8794 -0.4489  0.1185
 9799TIP3   OH250811   1.336   0.073  12.400 -0.5404 -0.7301 -0.1466
 9799TIP3    H150812   1.349   0.022  12.319  0.5911 -0.9002  0.1182
 9799TIP3    H250813   1.365   0.014  12.469 -1.5775 -0.6100  0.4067
 9800TIP3   OH250814   2.570   5.268   0.020  0.4336  0.4746 -0.5525
 9800TIP3    H150815   2.494   5.242  -0.033  0.3628  3.0737 -1.8819
 9800TIP3    H250816   2.625   5.190   0.023 -1.1953 -0.7789 -1.5416
 9801TIP3   OH250817   2.592   3.644  14.475 -0.2545 -0.0652 -0.2854
 9801TIP3    H150818   2.646   3.651  14.554  0.8752  0.0073 -1.0448
 9801TIP3    H250819   2.580   3.735  14.447  0.5174 -0.1512 -0.9478
 9802TIP3   OH250820   0.149   6.619  12.102  0.1128  0.2664  0.6789
 9802TIP3    H150821   0.188   6.556  12.163  0.9551 -0.0799 -0.1952
 9802TIP3    H250822   0.200   6.610  12.022 -0.5379  1.2046  0.1363
 9803TIP3   OH250823   4.118   4.742   1.242  0.1634 -0.3104  0.1740
 9803TIP3    H150824   4.064   4.811   1.279  1.5489 -0.2892  2.3277
 9803TIP3    H250825   4.198   4.786   1.213  0.6458 -0.8510  0.6506
 9804TIP3   OH250826   5.525   4.261  12.752 -0.3759  0.3235 -1.1541
 9804TIP3    H150827   5.446   4.311  12.772  0.1470  0.4270  0.7871
 9804TIP3    H250828   5.595   4.325  12.752  0.2787 -0.2955  1.2106
 9805TIP3   OH250829   1.343   1.521  10.977  0.3583  0.0125 -0.5970
 9805TIP3    H150830   1.414   1.484  11.029 -1.3541 -1.9075  0.5029
 9805TIP3    H250831   1.335   1.462  10.902 -0.1287  0.1498 -0.6588
 9806TIP3   OH250832   5.332   2.698  15.990  0.0091 -0.3424 -0.1018
 9806TIP3    H150833   5.260   2.718  16.050 -0.8752 -2.1319 -0.4982
 9806TIP3    H250834   5.325   2.764  15.922 -2.2187 -1.2920 -0.8954
 9807TIP3   OH250835   0.266   4.652   5.908 -0.2878 -0.0617  0.0996
 9807TIP3    H150836   0.360   4.670   5.898  0.0567 -1.3562  0.8503
 9807TIP3    H250837   0.238   4.620   5.823  0.0257  0.0023 -0.0282
 9808TIP3   OH250838   2.907   4.291   3.989 -0.2019 -0.7273 -0.5210
 9808TIP3    H150839   2.846   4.218   3.994 -0.2496 -0.8071 -1.8089
 9808TIP3    H250840   2.853   4.365   3.959 -0.3064  0.0567  1.4388
 9809TIP3   OH250841   1.195   0.045   0.334  0.0991 -0.0039  0.0692
 9809TIP3    H150842   1.118   0.014   0.287 -0.7780  0.4687  1.1509
 9809TIP3    H250843   1.216   0.129   0.293 -0.6443  0.3919  0.4758
 9810TIP3   OH250844   1.361   3.633   6.044  0.8079  0.0994  0.2216
 9810TIP3    H150845   1.442   3.676   6.070  0.4328 -0.3121  2.1991
 9810TIP3    H250846   1.293   3.698   6.060  0.7005  0.4565 -1.4654
 9811TIP3   OH250847   1.992   4.905  14.997  0.2611 -0.6348 -0.5685
 9811TIP3    H150848   1.962   4.912  14.906 -1.5898  0.6375  0.0589
 9811TIP3    H250849   1.915   4.875  15.045  1.0166 -0.6435  0.6744
 9812TIP3   OH250850   2.274   1.444  10.552 -0.1931  0.1972  0.5575
 9812TIP3    H150851   2.243   1.370  10.604 -0.6719 -1.6104 -2.0627
 9812TIP3    H250852   2.195   1.493  10.530  0.0388  1.1096  1.6997
 9813TIP3   OH250853   6.369   5.964   5.861 -0.2142 -0.1968  0.4999
 9813TIP3    H150854   6.457   5.994   5.886  0.4574 -1.6704  0.0248
 9813TIP3    H250855   6.337   5.918   5.938 -0.7265  0.6121  0.7858
 9814TIP3   OH250856   3.254   3.530  11.302  0.2573 -0.2126 -0.5945
 9814TIP3    H150857   3.244   3.529  11.207  2.4614 -0.3632 -0.8777
 9814TIP3    H250858   3.231   3.441  11.329 -0.6464 -0.0939 -0.9353
 9815TIP3   OH250859   5.889   3.907   3.019 -0.4256 -0.3326  0.6552
 9815TIP3    H150860   5.870   3.833   3.077  0.5882 -0.8519  0.3300
 9815TIP3    H250861   5.808   3.960   3.021 -1.2503 -1.5605  0.6965
 9816TIP3   OH250862   2.085   2.056   3.388 -0.0663 -0.1090 -0.5856
 9816TIP3    H150863   2.005   2.047   3.439  0.8294 -2.6455  0.5471
 9816TIP3    H250864   2.092   2.150   3.369 -2.0899  0.4778  1.2434
 9817TIP3   OH250865   5.069   1.442   6.070  0.0256 -0.0123 -0.5592
 9817TIP3    H150866   5.156   1.470   6.041  0.7316 -1.7948 -0.3231
 9817TIP3    H250867   5.085   1.395   6.152 -1.0715 -0.8509 -0.7969
 9818TIP3   OH250868   6.683   1.280  16.238 -0.2901 -0.7212  0.2212
 9818TIP3    H150869   6.668   1.372  16.263 -0.6897 -0.8719  0.5547
 9818TIP3    H250870   6.667   1.278  16.144  0.9954 -0.1891 -0.0216
 9819TIP3   OH250871   1.145   0.743  17.046 -0.1097 -0.3337  0.2019
 9819TIP3    H150872   1.100   0.666  17.010 -1.3405  0.7555 -0.6766
 9819TIP3    H250873   1.149   0.804  16.973 -0.3934  0.9770  1.2457
 9820TIP3   OH250874   1.531   0.453   4.669  0.4730 -0.0633  0.1148
 9820TIP3    H150875   1.532   0.450   4.765 -2.5469  0.2363  0.2593
 9820TIP3    H250876   1.462   0.391   4.644  1.1524 -0.0785 -1.8714
 9821TIP3   OH250877   6.161   4.234  10.942 -0.0814 -0.4424 -0.1601
 9821TIP3    H150878   6.129   4.288  10.870 -0.2943 -1.2790 -0.7057
 9821TIP3    H250879   6.255   4.248  10.943  0.1204 -1.5447 -1.5551
 9822TIP3   OH250880   1.912   3.270  15.196 -0.1475 -0.1448  0.2295
 9822TIP3    H150881   1.947   3.202  15.254  1.9848 -0.1481 -0.9738
 9822TIP3    H250882   1.948   3.351  15.231  2.0907 -0.2475 -1.6307
 9823TIP3   OH250883   1.445   4.835   1.860  0.2356 -0.2647  0.7518
 9823TIP3    H150884   1.475   4.746   1.879  1.1314  0.0223  0.7400
 9823TIP3    H250885   1.380   4.854   1.927 -1.5743 -1.7093 -0.5013
 9824TIP3   OH250886   4.384   5.954  17.181 -0.3503  0.3137 -0.3566
 9824TIP3    H150887   4.362   5.861  17.176 -0.3856  0.3048 -0.0540
 9824TIP3    H250888   4.342   5.993  17.105  0.1420 -0.0128 -0.8022
 9825TIP3   OH250889   0.894   6.344  15.938  0.2832  0.0392 -0.1172
 9825TIP3    H150890   0.835   6.276  15.905 -0.2422  1.2875 -1.8607
 9825TIP3    H250891   0.974   6.335  15.887 -0.0282  1.1093 -0.8329
 9826TIP3   OH250892   4.234   1.984  13.200  0.4369 -0.1464 -0.0709
 9826TIP3    H150893   4.154   2.028  13.172 -0.0562 -0.5924  0.6067
 9826TIP3    H250894   4.274   2.044  13.262 -0.3533 -0.7263  1.0296
 9827TIP3   OH250895   1.017   5.434  14.268 -0.6073  0.1115  0.2038
 9827TIP3    H150896   0.993   5.466  14.354 -1.4492 -1.7492  0.7039
 9827TIP3    H250897   0.935   5.432  14.219 -0.3762 -0.1904 -0.1768
 9828TIP3   OH250898   1.034   1.251   2.260 -0.1734  0.8633  0.2024
 9828TIP3    H150899   1.026   1.194   2.337  0.8539  1.2896  0.6376
 9828TIP3    H250900   1.083   1.327   2.291  0.9162  0.7036 -1.0442
 9829TIP3   OH250901   0.456   1.352   2.634 -0.1533 -0.0801  0.2712
 9829TIP3    H150902   0.536   1.383   2.677 -0.1739 -0.0288  0.2733
 9829TIP3    H250903   0.390   1.354   2.702 -0.0159 -0.7151  0.4265
 9830TIP3   OH250904   4.103   6.281   4.954  0.0286  0.3120  0.3468
 9830TIP3    H150905   4.082   6.217   5.022  0.5709  0.0687  0.2891
 9830TIP3    H250906   4.065   6.363   4.986  0.3853  0.2274  1.0070
 9831TIP3   OH250907   6.558   4.437   1.019  0.6746  0.3940 -0.8469
 9831TIP3    H150908   6.645   4.424   0.983  0.3190 -0.8725 -1.2965
 9831TIP3    H250909   6.507   4.363   0.987 -0.8375  1.6056 -1.3834
 9832TIP3   OH250910   3.222   2.967  12.392  0.7727 -0.0133 -0.6484
 9832TIP3    H150911   3.312   3.000  12.387  1.1550 -0.6073  1.4498
 9832TIP3    H250912   3.168   3.044  12.408  1.0316  0.2076 -0.8442
 9833TIP3   OH250913   0.703   5.188  10.739  0.2617 -0.0917 -0.4097
 9833TIP3    H150914   0.655   5.106  10.744  0.4640 -0.2397 -0.8013
 9833TIP3    H250915   0.774   5.170  10.677  0.6040  0.2273 -0.1135
 9834TIP3   OH250916   2.731   1.915   2.439 -0.3764  0.4756 -0.0363
 9834TIP3    H150917   2.766   1.874   2.519  0.9223 -0.7652 -1.1878
 9834TIP3    H250918   2.807   1.924   2.382 -1.4148  0.6185 -1.4353
 9835TIP3   OH250919   2.318   4.915   3.694  0.2263 -0.1964 -0.2499
 9835TIP3    H150920   2.401   4.905   3.741  0.0529  0.8828  0.3231
 9835TIP3    H250921   2.279   4.994   3.731  0.3585  1.0884 -2.6197
 9836TIP3   OH250922   0.363   5.955  15.685 -0.6622  0.6915  0.0708
 9836TIP3    H150923   0.318   6.036  15.659 -0.3536  1.4243  1.6371
 9836TIP3    H250924   0.324   5.933  15.770 -1.9997 -1.8514 -1.0732
 9837TIP3   OH250925   3.734   5.404  14.328 -0.2672 -0.0631  0.1425
 9837TIP3    H150926   3.761   5.493  14.304 -0.1481 -0.5334 -1.6013
 9837TIP3    H250927   3.652   5.390  14.280  0.3567 -1.3096 -0.5996
 9838TIP3   OH250928   6.414   1.220   4.847  0.4681 -0.2749 -0.1052
 9838TIP3    H150929   6.402   1.304   4.891 -0.8451 -0.8681  0.7427
 9838TIP3    H250930   6.367   1.229   4.764  1.0257  0.1012 -0.3775
 9839TIP3   OH250931   4.905   0.565  14.193 -0.2666  0.1460 -0.8498
 9839TIP3    H150932   4.840   0.599  14.254 -0.3359 -2.3960  0.6013
 9839TIP3    H250933   4.967   0.638  14.181 -1.3974  1.4008  0.5662
 9840TIP3   OH250934   5.662   2.090   2.356 -0.3401 -0.0686 -0.2656
 9840TIP3    H150935   5.599   2.115   2.423  1.3092  1.5909  0.7486
 9840TIP3    H250936   5.714   2.021   2.397 -2.8507 -3.2643 -1.9456
 9841TIP3   OH250937   0.562   6.603   3.760  0.2931  1.0818 -0.0426
 9841TIP3    H150938   0.629   6.536   3.776  0.8030  1.6488  0.2350
 9841TIP3    H250939   0.582   6.673   3.823 -0.7397  1.1350  0.2367
 9842TIP3   OH250940   0.324   3.277   1.180  0.0898 -0.0061  0.2074
 9842TIP3    H150941   0.369   3.250   1.100  0.2073  0.7899  0.0028
 9842TIP3    H250942   0.231   3.267   1.160  0.0983  0.7856 -0.2467
 9843TIP3   OH250943   5.457   2.568  15.176 -0.0796 -0.4245  0.2255
 9843TIP3    H150944   5.522   2.519  15.227 -0.6494  0.5171  1.9359
 9843TIP3    H250945   5.449   2.519  15.094  0.7101 -2.1459  1.1198
 9844TIP3   OH250946   1.676   2.079   1.847 -0.3715  0.0721  0.5210
 9844TIP3    H150947   1.672   2.112   1.937 -3.7611  3.5459 -0.6209
 9844TIP3    H250948   1.735   2.139   1.802  0.4193 -0.9551  0.1630
 9845TIP3   OH250949   0.723   4.201   2.988 -0.2740 -0.1269 -0.3654
 9845TIP3    H150950   0.788   4.269   2.967  0.6801 -0.1575  2.1660
 9845TIP3    H250951   0.671   4.238   3.059  0.1316 -1.9095  0.9293
 9846TIP3   OH250952   0.153   1.855   1.123 -0.3172 -0.3515 -0.3709
 9846TIP3    H150953   0.178   1.935   1.076 -2.2914 -0.1389 -1.1633
 9846TIP3    H250954   0.073   1.826   1.079 -0.4162 -1.9866  0.8198
 9847TIP3   OH250955   1.714   4.185   2.959 -0.0883 -0.2878 -0.1341
 9847TIP3    H150956   1.799   4.163   2.997  0.0941 -0.0442 -0.3900
 9847TIP3    H250957   1.679   4.253   3.016 -0.6642 -1.2421  0.6725
 9848TIP3   OH250958   0.944   6.349   6.215 -0.3754  0.6368  0.1298
 9848TIP3    H150959   1.033   6.318   6.200 -1.1505 -1.4579 -0.4894
 9848TIP3    H250960   0.918   6.311   6.298 -1.2675 -0.2538 -0.5257
 9849TIP3   OH250961   0.702   6.461   2.815 -1.1426  0.3690  0.1785
 9849TIP3    H150962   0.705   6.491   2.724 -1.6716 -0.4014 -0.1076
 9849TIP3    H250963   0.638   6.390   2.814 -0.1873 -0.5217  0.8946
 9850TIP3   OH250964   5.317   1.948  12.421  0.2691 -0.3587 -0.2853
 9850TIP3    H150965   5.277   1.877  12.370  0.0742 -0.9948  0.7136
 9850TIP3    H250966   5.410   1.929  12.420  0.3481  0.0114 -0.9476
 9851TIP3   OH250967   5.213   1.804  13.537 -0.0469  0.4621 -0.3079
 9851TIP3    H150968   5.178   1.766  13.456  2.2346  1.6945 -2.0006
 9851TIP3    H250969   5.137   1.842  13.580 -1.1245  1.3939 -2.8155
 9852TIP3   OH250970   3.176   6.598   2.363  0.0651 -0.5875  0.1260
 9852TIP3    H150971   3.212   6.660   2.299 -0.1764 -1.1245 -0.5412
 9852TIP3    H250972   3.207   6.630   2.447  1.6904 -0.7390 -0.3803
 9853TIP3   OH250973   6.704   3.780   3.166  0.0304 -0.5342 -0.5841
 9853TIP3    H150974   6.708   3.693   3.205 -1.0616 -1.2581 -1.9938
 9853TIP3    H250975   6.791   3.793   3.126  0.1370 -1.0300 -0.5121
 9854TIP3   OH250976   4.713   2.390  17.038  0.8391  0.0763  0.2771
 9854TIP3    H150977   4.745   2.474  17.004 -1.2228  1.0231  0.5330
 9854TIP3    H250978   4.724   2.329  16.965  0.2090  1.1254 -0.7304
 9855TIP3   OH250979   2.068   5.219   1.697  0.2575 -0.3057 -0.2140
 9855TIP3    H150980   2.043   5.285   1.633 -0.7568 -0.7447 -0.2885
 9855TIP3    H250981   2.003   5.150   1.687  1.4318 -1.4286 -0.2931
 9856TIP3   OH250982   0.958   3.077   2.261  0.0596 -0.8443  0.0870
 9856TIP3    H150983   0.955   2.981   2.260 -2.8437 -0.8396 -1.8235
 9856TIP3    H250984   0.913   3.102   2.342  1.8586 -1.0000  1.2050
 9857TIP3   OH250985   5.059   6.736  11.240  0.2793 -0.4139 -0.3181
 9857TIP3    H150986   5.106   6.778  11.312  1.2914 -0.9353 -0.6508
 9857TIP3    H250987   5.105   6.653  11.226 -1.3383 -1.4177 -0.0284
 9858TIP3   OH250988   0.421   5.132  16.645 -0.3284  0.0141 -0.1950
 9858TIP3    H150989   0.394   5.192  16.714  2.8260  0.6520  0.6467
 9858TIP3    H250990   0.396   5.045  16.677 -0.3530  0.4518  1.0075
 9859TIP3   OH250991   4.691   2.302   2.619  0.0640  0.0215  0.1005
 9859TIP3    H150992   4.601   2.333   2.622  0.2462  0.5074  1.5280
 9859TIP3    H250993   4.735   2.363   2.560 -0.5049 -0.1410 -0.5008
 9860TIP3   OH250994   1.857   1.223   5.735 -0.2138  0.4282  0.5701
 9860TIP3    H150995   1.936   1.252   5.689  1.3727  0.8948  3.3737
 9860TIP3    H250996   1.823   1.302   5.776 -1.3515 -0.0360  0.5469
 9861TIP3   OH250997   5.723   4.505  12.748 -0.1058  0.2441  0.7895
 9861TIP3    H150998   5.630   4.521  12.767 -0.5205 -0.7651 -0.2947
 9861TIP3    H250999   5.745   4.567  12.679 -0.4896 -0.7130 -0.2270
 9862TIP3   OH251000   3.022   6.113   0.597  0.3318 -0.9366 -0.3724
 9862TIP3    H151001   2.987   6.036   0.552  0.8472 -0.5570 -1.4457
 9862TIP3    H251002   2.970   6.186   0.563 -0.7816 -0.8886  1.3243
 9863TIP3   OH251003   5.898   3.817  10.637  0.1192 -0.4252  0.9842
 9863TIP3    H151004   5.919   3.893  10.691  0.6490 -0.0064  0.1897
 9863TIP3    H251005   5.890   3.851  10.548  1.3695 -1.4297  0.4510
 9864TIP3   OH251006   6.468   3.453   1.110 -0.1686 -0.5058 -0.3129
 9864TIP3    H151007   6.421   3.381   1.151  2.7028 -1.7788  1.0196
 9864TIP3    H251008   6.444   3.530   1.161 -1.6225 -0.8777 -0.3955
 9865TIP3   OH251009   2.914   2.460  12.227 -0.2472  0.0822 -1.0391
 9865TIP3    H151010   2.983   2.493  12.170  1.2706 -0.1562  0.5712
 9865TIP3    H251011   2.847   2.529  12.226  0.9725  1.2939 -0.9850
 9866TIP3   OH251012   5.321   0.382   1.394  0.3091  0.2656  0.7957
 9866TIP3    H151013   5.252   0.341   1.445  1.4168  0.5511  2.6001
 9866TIP3    H251014   5.276   0.417   1.317 -1.2223 -1.1865  0.9570
 9867TIP3   OH251015   2.872   0.782   2.220  0.6099  0.3983  0.4459
 9867TIP3    H151016   2.951   0.774   2.166 -0.4211  0.0172 -1.0558
 9867TIP3    H251017   2.877   0.708   2.281  0.4948 -0.7463 -0.8941
 9868TIP3   OH251018   0.539   6.323  13.069  0.2651 -0.1789  0.5178
 9868TIP3    H151019   0.619   6.357  13.030  0.5137 -2.0100 -0.7175
 9868TIP3    H251020   0.568   6.257  13.131 -0.2210  1.3053  2.4090
 9869TIP3   OH251021   5.468   5.606   4.734  0.3232 -0.7935  0.2878
 9869TIP3    H151022   5.410   5.627   4.807  0.4632 -1.8178  0.7070
 9869TIP3    H251023   5.441   5.666   4.664  0.2913  0.2907  1.2185
 9870TIP3   OH251024   0.997   4.509   1.722 -0.3493  0.5559  0.1342
 9870TIP3    H151025   1.055   4.437   1.745 -1.8074  0.1587  3.0306
 9870TIP3    H251026   1.056   4.581   1.700  1.1313 -1.1177 -1.7312
 9871TIP3   OH251027   1.398   5.120   0.531  0.3768 -0.0844  0.0358
 9871TIP3    H151028   1.320   5.146   0.482  0.8506  0.7229 -0.3177
 9871TIP3    H251029   1.406   5.187   0.599  0.5418 -0.3852  0.3134
 9872TIP3   OH251030   5.901   6.525   3.547 -0.0627  0.2688 -0.2581
 9872TIP3    H151031   5.848   6.475   3.484  0.2085  0.8106 -0.9185
 9872TIP3    H251032   5.958   6.579   3.493  1.5921 -0.7142  0.4375
 9873TIP3   OH251033   5.898   0.990   5.942  0.1695 -0.4253 -0.6044
 9873TIP3    H151034   5.904   0.956   6.031 -0.3515  0.0789 -0.3658
 9873TIP3    H251035   5.877   0.914   5.888  1.4926 -0.9222 -0.4547
 9874TIP3   OH251036   6.233   4.514   4.937 -0.4651 -0.6634  0.4991
 9874TIP3    H151037   6.303   4.536   4.876 -0.0230  1.3028  1.6419
 9874TIP3    H251038   6.179   4.593   4.941 -3.3967 -2.4242 -1.1006
 9875TIP3   OH251039   4.530   4.152   2.088 -0.6576  0.3497  0.2613
 9875TIP3    H151040   4.616   4.131   2.124 -0.3200  0.1519 -0.6445
 9875TIP3    H251041   4.486   4.067   2.080  0.5093 -0.1073 -2.8894
 9876TIP3   OH251042   5.772   1.440  10.759  0.6005 -0.3489  0.3932
 9876TIP3    H151043   5.823   1.505  10.710  0.2861  0.0168  0.5467
 9876TIP3    H251044   5.839   1.390  10.807  0.9056 -0.7287 -0.4250
 9877TIP3   OH251045   4.228   6.183   3.408 -0.4830 -0.0462  0.7481
 9877TIP3    H151046   4.217   6.276   3.426  0.3205 -0.0005  1.0505
 9877TIP3    H251047   4.270   6.149   3.487  0.1278 -0.4715  0.2526
 9878TIP3   OH251048   0.315   2.121   3.385 -0.0710  0.3885  0.1561
 9878TIP3    H151049   0.223   2.136   3.408 -0.8529 -2.9241 -0.3218
 9878TIP3    H251050   0.330   2.178   3.310 -1.4679  1.5894  0.7345
 9879TIP3   OH251051   2.059   3.157  12.642 -0.8698 -0.1614  0.1037
 9879TIP3    H151052   2.021   3.113  12.566 -0.2064 -0.4497 -0.0684
 9879TIP3    H251053   2.146   3.118  12.651 -0.9701 -0.1877  1.0638
 9880TIP3   OH251054   4.903   2.965   2.740 -0.3265 -0.0526 -0.4392
 9880TIP3    H151055   4.992   2.961   2.706 -0.6431  0.1312 -1.3237
 9880TIP3    H251056   4.885   2.876   2.771  0.1701 -0.0788 -0.2080
 9881TIP3   OH251057   5.708   5.866  10.913  0.2512 -0.1559  0.2905
 9881TIP3    H151058   5.721   5.909  10.828 -1.0581 -0.0750  0.0963
 9881TIP3    H251059   5.683   5.776  10.891 -0.2216 -0.0991  0.5723
 9882TIP3   OH251060   4.345   3.192   4.867  0.6565  0.4520 -0.2274
 9882TIP3    H151061   4.435   3.206   4.895  0.7654 -0.0490 -0.3112
 9882TIP3    H251062   4.349   3.112   4.815  0.1470  0.3818 -0.1597
 9883TIP3   OH251063   5.780   2.835   3.111 -0.1290 -0.1421 -0.0008
 9883TIP3    H151064   5.694   2.798   3.129 -0.7731  0.3614 -1.7634
 9883TIP3    H251065   5.829   2.763   3.069  0.2594 -0.3730  0.8326
 9884TIP3   OH251066   2.810   5.667  10.944 -0.0731  0.0296  0.1106
 9884TIP3    H151067   2.742   5.693  10.883 -0.4032  0.7527  0.7749
 9884TIP3    H251068   2.853   5.749  10.969  1.6795 -0.4909 -1.0079
 9885TIP3   OH251069   3.409   4.148  14.467 -0.7572 -0.0493  0.2380
 9885TIP3    H151070   3.431   4.110  14.552 -1.7361  0.4017  0.7131
 9885TIP3    H251071   3.321   4.114  14.448  0.0508 -1.3969 -1.3466
 9886TIP3   OH251072   2.129   6.118   3.350  0.4942 -0.1754 -0.0466
 9886TIP3    H151073   2.121   6.175   3.427  1.3753  0.1919 -0.2089
 9886TIP3    H251074   2.214   6.142   3.312  0.8561 -1.5517 -0.1542
 9887TIP3   OH251075   0.574   5.317   2.451  0.6296 -0.2823 -0.0804
 9887TIP3    H151076   0.570   5.255   2.524 -0.6523  1.6849  1.6243
 9887TIP3    H251077   0.658   5.362   2.463  0.5219 -0.1126  0.0247
 9888TIP3   OH251078   6.065   2.517   2.239  0.0157  0.0726  0.1408
 9888TIP3    H151079   6.151   2.493   2.274  0.1675  0.4011  0.0003
 9888TIP3    H251080   6.060   2.612   2.251 -0.5691 -0.0170  0.6836
 9889TIP3   OH251081   6.320   1.945  14.077  0.5056  0.1254  0.1767
 9889TIP3    H151082   6.282   2.031  14.059 -0.7581 -0.0391  1.8810
 9889TIP3    H251083   6.280   1.917  14.159  0.4394 -2.3618 -0.6281
 9890TIP3   OH251084   2.819   1.826   3.358  0.5807 -0.1893 -0.0033
 9890TIP3    H151085   2.807   1.807   3.451  1.7410  5.6381  1.7603
 9890TIP3    H251086   2.738   1.871   3.332  0.2409 -1.7697 -2.0185
 9891TIP3   OH251087   3.061   1.266  14.091 -0.4811  0.4991  0.5107
 9891TIP3    H151088   2.982   1.222  14.059  0.4482 -1.3748  0.6875
 9891TIP3    H251089   3.133   1.224  14.044  0.5032  1.3721  1.2005
 9892TIP3   OH251090   3.828   3.567  12.828 -0.1632  0.4982  0.1462
 9892TIP3    H151091   3.835   3.648  12.777 -0.7652  0.8321  0.5869
 9892TIP3    H251092   3.778   3.592  12.906  1.3099  0.1670  1.2424
 9893TIP3   OH251093   2.198   0.517  10.531 -0.0587 -0.9257  0.5941
 9893TIP3    H151094   2.176   0.446  10.470  2.4039  0.0969 -1.6823
 9893TIP3    H251095   2.278   0.488  10.575  0.7455  0.2118 -0.0585
 9894TIP3   OH251096   4.934   1.989  11.721  0.4233  0.7121 -0.4931
 9894TIP3    H151097   4.870   2.001  11.791 -0.0004  0.9036 -0.9074
 9894TIP3    H251098   4.881   1.987  11.641  0.6842 -1.3822 -0.6727
 9895TIP3   OH251099   3.572   2.489  12.903  0.0441  0.1234 -0.0044
 9895TIP3    H151100   3.657   2.445  12.913 -0.1836 -0.0575  1.4258
 9895TIP3    H251101   3.593   2.582  12.908  0.2673  0.1151 -0.6915
 9896TIP3   OH251102   6.606   2.796   2.879  0.1217  0.1524  0.3326
 9896TIP3    H151103   6.589   2.880   2.835 -2.1589 -1.8558 -3.1212
 9896TIP3    H251104   6.552   2.799   2.958 -1.1252  1.3933 -0.5183
 9897TIP3   OH251105   6.707   5.983  15.269 -0.2100  0.3341 -0.1471
 9897TIP3    H151106   6.762   5.945  15.338  1.8753  0.5410 -1.6031
 9897TIP3    H251107   6.744   5.949  15.187 -2.6343  0.0603 -1.2185
 9898TIP3   OH251108   6.022   6.144  14.527 -0.2965  0.0313  0.3538
 9898TIP3    H151109   5.959   6.184  14.468 -2.5579  1.0719  3.2435
 9898TIP3    H251110   6.049   6.063  14.482 -2.4734  0.3462 -1.6973
 9899TIP3   OH251111   4.076   3.101   2.292 -0.4954 -0.0511 -0.3342
 9899TIP3    H151112   4.112   3.114   2.205  0.9503  0.1671  0.2684
 9899TIP3    H251113   4.001   3.043   2.279 -0.1935 -0.1622 -1.6879
 9900TIP3   OH251114   0.948   4.400  10.341 -0.0134  0.1379  0.3346
 9900TIP3    H151115   1.011   4.351  10.393  0.2951 -0.2190 -0.3506
 9900TIP3    H251116   0.949   4.488  10.377  0.6189  0.0390  0.5586
 9901TIP3   OH251117   4.445   4.187   0.663 -0.2957 -0.0500 -0.0239
 9901TIP3    H151118   4.404   4.246   0.600 -1.7058 -0.2191  0.6761
 9901TIP3    H251119   4.371   4.153   0.714  0.7307 -0.4898  1.2162
 9902TIP3   OH251120   2.521   0.188  16.353  0.0179  0.2966 -0.2424
 9902TIP3    H151121   2.471   0.113  16.320 -0.3927  0.7642 -0.7021
 9902TIP3    H251122   2.572   0.218  16.277  1.2897 -0.3974  0.3109
 9903TIP3   OH251123   1.223   1.003  10.780  0.0188  0.1712  0.0133
 9903TIP3    H151124   1.210   0.940  10.709  0.8645  0.2559 -0.2240
 9903TIP3    H251125   1.314   1.031  10.772 -0.3216  1.3943  0.1521
 9904TIP3   OH251126   4.527   5.085   2.158 -0.3308  0.1918 -0.2503
 9904TIP3    H151127   4.504   5.080   2.250 -0.8795  2.1638 -0.2272
 9904TIP3    H251128   4.517   5.178   2.136 -0.2654 -0.2370 -2.3003
 9905TIP3   OH251129   4.863   4.277   5.826  0.3037  0.3041  0.6299
 9905TIP3    H151130   4.798   4.207   5.816  3.7208 -3.4705  2.2972
 9905TIP3    H251131   4.848   4.311   5.914 -0.6015  0.9101  0.2619
 9906TIP3   OH251132   5.465   0.817   5.529 -0.2792 -0.5584 -0.3346
 9906TIP3    H151133   5.455   0.868   5.449  0.9972  1.8985  0.9877
 9906TIP3    H251134   5.376   0.802   5.560 -0.7265 -0.5463 -1.5935
 9907TIP3   OH251135   4.347   6.726   1.161 -0.3319 -0.0116 -0.0764
 9907TIP3    H151136   4.336   6.633   1.178  0.7630 -0.0885  0.2912
 9907TIP3    H251137   4.410   6.755   1.227  0.5766  0.6518 -1.1989
 9908TIP3   OH251138   2.858   6.559   0.956  0.4460  0.0321 -0.3640
 9908TIP3    H151139   2.925   6.548   1.023 -0.0710  0.3744  0.2237
 9908TIP3    H251140   2.779   6.585   1.005  0.0856  0.3878 -1.1116
 9909TIP3   OH251141   6.407   2.909   0.343  0.6631 -0.0165  0.4013
 9909TIP3    H151142   6.461   2.838   0.379  0.0788 -0.5822  0.1912
 9909TIP3    H251143   6.321   2.896   0.383 -0.2822 -1.2526 -1.8188
 9910TIP3   OH251144   3.315   6.142  14.641 -0.1639  0.8358 -0.0204
 9910TIP3    H151145   3.221   6.156  14.633 -0.2109  0.2554 -0.5534
 9910TIP3    H251146   3.337   6.175  14.729 -1.2006 -0.8331  0.9154
 9911TIP3   OH251147   4.027   0.711  13.307 -0.2567 -0.4434  0.3359
 9911TIP3    H151148   4.111   0.681  13.340  0.0624 -0.7572 -0.7188
 9911TIP3    H251149   4.047   0.751  13.222 -1.2726 -1.2969 -0.3344
 9912TIP3   OH251150   1.461   4.251  10.613  0.3092  0.2076 -0.1671
 9912TIP3    H151151   1.440   4.255  10.520 -0.2116  0.9346 -0.0315
 9912TIP3    H251152   1.536   4.310  10.623 -0.7253  1.5180  0.1382
 9913TIP3   OH251153   2.050   1.302   3.662 -0.3127 -0.0043  0.0718
 9913TIP3    H151154   2.125   1.286   3.719  0.3979 -0.2329 -0.9008
 9913TIP3    H251155   2.088   1.332   3.580 -1.2462 -0.8667 -0.7020
 9914TIP3   OH251156   5.594   3.425   4.079 -0.7996 -0.2829  0.1415
 9914TIP3    H151157   5.598   3.372   3.999  2.1495  0.5850 -0.4201
 9914TIP3    H251158   5.644   3.374   4.144  0.3968  0.8758  0.1616
 9915TIP3   OH251159   0.892   2.925  12.779  0.0302 -0.4849 -0.1148
 9915TIP3    H151160   0.910   2.831  12.786 -0.0276 -0.5008 -0.1760
 9915TIP3    H251161   0.803   2.929  12.745  0.4596 -0.4046 -1.2640
 9916TIP3   OH251162   4.794   4.920  11.323  0.1180 -0.3338  0.8063
 9916TIP3    H151163   4.857   4.965  11.267 -1.1536 -0.4891 -0.8055
 9916TIP3    H251164   4.799   4.828  11.295  1.2892 -0.9212  2.7327
 9917TIP3   OH251165   0.336   2.481  11.517 -0.0114 -0.5439  0.4305
 9917TIP3    H151166   0.345   2.514  11.607 -1.3854  2.8701 -0.5303
 9917TIP3    H251167   0.301   2.393  11.528 -1.5244  0.2671  3.2760
 9918TIP3   OH251168   4.719   5.971   3.404 -0.1992 -0.1093  0.2282
 9918TIP3    H151169   4.726   6.064   3.385 -0.5885 -0.2265 -0.5176
 9918TIP3    H251170   4.718   5.966   3.500 -2.7155  0.8626  0.3099
 9919TIP3   OH251171   6.440   1.596   4.121 -0.1244 -0.2042 -0.2484
 9919TIP3    H151172   6.504   1.616   4.189 -0.4724  1.6231 -0.4120
 9919TIP3    H251173   6.355   1.601   4.166 -0.3240  0.5267 -0.6825
 9920TIP3   OH251174   0.526   0.833   3.299 -0.3209 -0.0087  0.3565
 9920TIP3    H151175   0.483   0.867   3.378 -1.3218 -0.1718 -0.1066
 9920TIP3    H251176   0.480   0.875   3.227  1.1516  0.8010 -0.1515
 9921TIP3   OH251177   5.135   3.775  11.627  0.3983  0.2967 -0.2676
 9921TIP3    H151178   5.166   3.710  11.564 -1.3009 -0.3295 -0.5067
 9921TIP3    H251179   5.095   3.722  11.697 -0.1623  1.0664  0.0002
 9922TIP3   OH251180   1.288   5.693   5.744 -0.4063 -0.6841 -0.2474
 9922TIP3    H151181   1.355   5.663   5.682  0.1666  0.1053 -0.0148
 9922TIP3    H251182   1.270   5.616   5.798  0.1035 -0.9833 -0.4905
 9923TIP3   OH251183   1.135   4.491   5.257  0.1682  0.2730 -0.1466
 9923TIP3    H151184   1.099   4.578   5.241  0.7542  0.2438 -1.7244
 9923TIP3    H251185   1.172   4.496   5.345 -2.7792  0.5889  1.2244
 9924TIP3   OH251186   1.259   3.167   3.228 -0.0147  0.1325 -0.1658
 9924TIP3    H151187   1.345   3.207   3.220 -0.4766  1.7243  1.8997
 9924TIP3    H251188   1.268   3.105   3.301 -0.9713  1.5670  1.2375
 9925TIP3   OH251189   4.899   2.641   3.983 -0.0279 -0.8686  0.0125
 9925TIP3    H151190   4.840   2.677   3.916  0.9692 -0.2145 -0.5404
 9925TIP3    H251191   4.982   2.629   3.937  0.3850 -1.3786  0.8880
 9926TIP3   OH251192   2.354   3.244   5.911 -0.7910  0.5342  0.1065
 9926TIP3    H151193   2.340   3.325   5.862 -0.6998  0.8654  0.6241
 9926TIP3    H251194   2.314   3.177   5.856  0.9542  0.5954 -1.3742
 9927TIP3   OH251195   3.012   1.229  14.391 -0.0900 -0.3889  0.0789
 9927TIP3    H151196   3.105   1.247  14.378  0.5867 -1.3640  2.9909
 9927TIP3    H251197   2.973   1.240  14.304  3.0776 -2.0899 -1.7150
 9928TIP3   OH251198   4.260   5.989  15.882  0.0598  0.5788 -0.0872
 9928TIP3    H151199   4.324   6.059  15.864 -1.8420  2.0988 -1.3714
 9928TIP3    H251200   4.196   6.029  15.941 -0.2045 -0.6233  0.4723
 9929TIP3   OH251201   4.821   4.251   1.152  0.2837 -0.0064 -0.1800
 9929TIP3    H151202   4.896   4.293   1.110  0.5568 -2.1045 -1.9799
 9929TIP3    H251203   4.764   4.226   1.080 -1.4120  0.1488  1.0571
 9930TIP3   OH251204   6.080   3.896  14.059  0.4342 -0.7606 -0.3741
 9930TIP3    H151205   6.057   3.876  13.969  1.2733 -0.0521 -0.7608
 9930TIP3    H251206   6.132   3.976  14.054 -0.8992  0.2476  0.8990
 9931TIP3   OH251207   0.025   4.409   3.268 -0.2074 -0.2369 -0.1379
 9931TIP3    H151208   0.007   4.502   3.283  0.2697  0.3135 -2.5369
 9931TIP3    H251209   0.114   4.396   3.302 -0.0527  0.3397 -0.3167
 9932TIP3   OH251210   3.746   5.180  11.027  0.2202  0.1083 -0.0423
 9932TIP3    H151211   3.733   5.121  11.102 -0.1216 -0.8585 -0.8387
 9932TIP3    H251212   3.840   5.198  11.027  0.1499  0.5771  0.9385
 9933TIP3   OH251213   0.104   6.443  16.054 -0.1195 -0.8851 -0.0251
 9933TIP3    H151214   0.044   6.405  15.990 -0.3830 -1.0241  0.3021
 9933TIP3    H251215   0.165   6.496  16.002 -1.8718  1.0820 -0.2195
 9934TIP3   OH251216   6.378   4.578  13.552 -0.3876  0.3473 -0.2870
 9934TIP3    H151217   6.303   4.599  13.497 -2.3239 -1.7781  1.3184
 9934TIP3    H251218   6.421   4.506  13.507  1.4705  2.2871 -1.7754
 9935TIP3   OH251219   5.751   0.694  12.187  0.1252 -0.5407  0.6623
 9935TIP3    H151220   5.700   0.763  12.228 -1.5997 -0.4876 -1.3499
 9935TIP3    H251221   5.718   0.613  12.227  0.1195 -0.3661  1.0119
 9936TIP3   OH251222   6.123   6.088   5.761  0.1301 -0.0510  0.3709
 9936TIP3    H151223   6.190   6.061   5.824 -0.2661  2.8694  2.2380
 9936TIP3    H251224   6.169   6.145   5.700 -0.4021  1.1636  1.0671
 9937TIP3   OH251225   2.297   6.568  14.030 -0.0126 -0.3559  0.0916
 9937TIP3    H151226   2.320   6.642  13.974  0.2898 -1.0834 -0.7731
 9937TIP3    H251227   2.294   6.604  14.118 -0.0020  0.7122 -0.3354
 9938TIP3   OH251228   1.783   6.721  15.312  0.3144  0.2543 -0.3891
 9938TIP3    H151229   1.721   6.792  15.293  0.5581  0.8088  0.7718
 9938TIP3    H251230   1.809   6.689  15.227  1.2451  2.4835 -1.0196
 9939TIP3   OH251231   5.954   4.651  16.718  0.1483 -0.3948  0.3643
 9939TIP3    H151232   5.955   4.566  16.674 -0.5293  0.3729 -1.2330
 9939TIP3    H251233   5.927   4.713  16.650  1.6261  1.2723  1.1956
 9940TIP3   OH251234   5.111   2.516   3.816  0.0061  0.1458 -0.2056
 9940TIP3    H151235   5.171   2.443   3.803 -1.6299 -1.5699  1.2681
 9940TIP3    H251236   5.117   2.567   3.735  3.5738  0.2463 -0.0353
 9941TIP3   OH251237   2.985   0.661  13.320 -0.5447 -0.2099  0.2754
 9941TIP3    H151238   3.045   0.586  13.322  1.5318  1.3201 -0.2029
 9941TIP3    H251239   2.903   0.628  13.356  0.4202 -2.5683  0.4908
 9942TIP3   OH251240   0.453   4.131  12.337 -0.0157 -0.3933  0.2844
 9942TIP3    H151241   0.515   4.124  12.410  1.0170  0.5897 -0.4665
 9942TIP3    H251242   0.446   4.042  12.303  1.6859 -0.3791 -0.1693
 9943TIP3   OH251243   3.279   5.302   4.823  0.2318  0.0665 -0.1654
 9943TIP3    H151244   3.207   5.278   4.764 -0.0929 -1.5951  0.8312
 9943TIP3    H251245   3.244   5.371   4.878 -0.2861 -0.1042 -0.2798
 9944TIP3   OH251246   2.884   2.158  16.145  0.2569  0.4783  0.4172
 9944TIP3    H151247   2.920   2.200  16.067 -1.2238  0.1567 -0.4830
 9944TIP3    H251248   2.805   2.209  16.165 -1.4120 -1.5733 -0.5194
 9945TIP3   OH251249   0.451   3.293  11.710 -0.2233 -0.0163 -0.0012
 9945TIP3    H151250   0.469   3.263  11.621 -0.8153  3.5531 -1.4838
 9945TIP3    H251251   0.491   3.380  11.715 -2.1288  0.8307  2.4302
 9946TIP3   OH251252   2.312   2.734  15.849 -0.3453  0.1197 -0.4624
 9946TIP3    H151253   2.305   2.656  15.793  1.9377  0.0704 -0.7657
 9946TIP3    H251254   2.285   2.806  15.793  1.4595  0.0060 -1.5503
 9947TIP3   OH251255   0.844   1.197   4.955 -0.0550 -0.7891 -0.1402
 9947TIP3    H151256   0.792   1.154   5.022 -1.0991 -1.3493 -1.2705
 9947TIP3    H251257   0.843   1.290   4.979 -1.0682 -0.8827  0.1920
 9948TIP3   OH251258   4.937   4.975   4.863 -0.9115  0.2947 -0.2677
 9948TIP3    H151259   4.988   5.030   4.803 -0.6397  0.7768  0.3904
 9948TIP3    H251260   5.001   4.945   4.927 -0.8213 -1.7127 -1.2307
 9949TIP3   OH251261   3.738   2.955   1.668  0.1244  0.4901 -0.4329
 9949TIP3    H151262   3.673   2.885   1.669 -0.4205  0.9738  0.6776
 9949TIP3    H251263   3.686   3.036   1.667  0.7381  0.8902 -1.3654
 9950TIP3   OH251264   2.792   2.492  12.759 -0.3097  0.0287  0.5269
 9950TIP3    H151265   2.768   2.420  12.700  1.8378  0.7581 -1.3896
 9950TIP3    H251266   2.709   2.536  12.778 -1.1957 -0.6628 -1.4270
 9951TIP3   OH251267   5.561   1.848  14.232  0.3178  0.5648  0.3206
 9951TIP3    H151268   5.543   1.756  14.211  0.7463  0.3798  0.7481
 9951TIP3    H251269   5.493   1.872  14.295  1.2663  0.0011  1.5876
 9952TIP3   OH251270   3.576   1.365  13.988 -0.7734 -0.0301  0.6993
 9952TIP3    H151271   3.597   1.409  13.905  0.1209  0.5362  1.1981
 9952TIP3    H251272   3.565   1.437  14.050  0.6074 -0.4951  1.5157
 9953TIP3   OH251273   0.188   3.566  14.980  0.3353  0.3159  0.3414
 9953TIP3    H151274   0.176   3.472  14.966 -0.9066  0.4593  0.3140
 9953TIP3    H251275   0.141   3.584  15.061  0.6750  0.8908  0.4148
 9954TIP3   OH251276   5.221   5.637  12.138 -0.3778 -0.2841  0.1278
 9954TIP3    H151277   5.311   5.650  12.170 -0.0677  0.9327 -1.1143
 9954TIP3    H251278   5.186   5.566  12.192 -0.2503  2.1748  3.8316
 9955TIP3   OH251279   3.322   1.179   2.120 -0.6651  0.1754  0.7773
 9955TIP3    H151280   3.240   1.135   2.143  0.0256 -2.3678 -1.1397
 9955TIP3    H251281   3.391   1.126   2.159  0.1886 -0.1688 -1.0782
 9956TIP3   OH251282   2.941   5.943  16.236 -0.4523  0.1795  0.7565
 9956TIP3    H151283   3.022   5.934  16.186 -1.6722  0.1062 -1.3205
 9956TIP3    H251284   2.945   6.032  16.273  0.1431  0.5584 -0.1773
 9957TIP3   OH251285   0.744   0.664   1.001  0.0772  0.1177  0.1068
 9957TIP3    H151286   0.720   0.575   1.025  1.1032 -0.3636 -0.5634
 9957TIP3    H251287   0.816   0.653   0.939  1.4078  1.4403  1.3350
 9958TIP3   OH251288   2.118   2.779  16.054 -0.1470 -0.5198 -0.8462
 9958TIP3    H151289   2.189   2.803  16.114 -1.2136  0.8022 -0.0594
 9958TIP3    H251290   2.160   2.775  15.968  0.8542  0.4307 -0.4269
 9959TIP3   OH251291   3.265   1.828  16.577 -0.0194 -0.0097 -0.4116
 9959TIP3    H151292   3.185   1.836  16.630 -0.0399  0.5316 -0.5205
 9959TIP3    H251293   3.302   1.916  16.577  1.3548 -0.5328  0.8445
 9960TIP3   OH251294   1.393   1.149  12.368  0.1024  0.7621 -0.3760
 9960TIP3    H151295   1.389   1.185  12.279 -1.5846  2.1186  0.2076
 9960TIP3    H251296   1.476   1.180  12.403  0.9235 -0.0166 -1.5465
 9961TIP3   OH251297   4.461   1.900   4.173 -0.1597  0.0324  0.6296
 9961TIP3    H151298   4.499   1.988   4.168 -0.7252  0.2198 -0.6070
 9961TIP3    H251299   4.533   1.841   4.151  0.4042  0.1069  2.1251
 9962TIP3   OH251300   3.533   2.454  16.708  0.0883  0.0826  0.4024
 9962TIP3    H151301   3.625   2.431  16.697  0.0109  0.7236 -2.4242
 9962TIP3    H251302   3.495   2.441  16.621 -1.8838  2.2890  0.8421
 9963TIP3   OH251303   3.625   5.432  14.572  0.5860  0.4595  0.2624
 9963TIP3    H151304   3.665   5.434  14.485  0.8697 -0.5958  0.3538
 9963TIP3    H251305   3.538   5.394  14.559  0.4411  0.7494  0.3715
 9964TIP3   OH251306   5.922   4.547   0.562 -0.2498 -0.1423 -0.2428
 9964TIP3    H151307   5.878   4.480   0.614 -0.9460 -0.2338 -0.9291
 9964TIP3    H251308   5.910   4.628   0.612  0.0206 -0.4130  0.2621
 9965TIP3   OH251309   2.438   5.717   4.356  0.2988  0.3882 -0.0782
 9965TIP3    H151310   2.489   5.664   4.417  0.2337 -0.4361 -0.7292
 9965TIP3    H251311   2.347   5.696   4.376  0.2244  1.1733  0.4672
 9966TIP3   OH251312   5.404   5.819   5.897 -0.2905  0.6663 -1.0276
 9966TIP3    H151313   5.312   5.831   5.921 -0.3222  0.4322 -1.0356
 9966TIP3    H251314   5.429   5.736   5.937  0.3981  1.5318  0.4571
 9967TIP3   OH251315   5.223   3.426   3.341 -0.5087 -0.1877  0.0050
 9967TIP3    H151316   5.260   3.415   3.254  0.5244  0.3430  0.3620
 9967TIP3    H251317   5.128   3.417   3.329 -0.2444 -3.5986 -0.6469
 9968TIP3   OH251318   2.512   3.585  11.290  0.1043  0.3308 -0.0127
 9968TIP3    H151319   2.553   3.669  11.310  1.3429 -0.1128 -0.6019
 9968TIP3    H251320   2.583   3.521  11.300 -1.0624 -0.8059  1.4828
 9969TIP3   OH251321   0.044   2.941  15.092  0.3461  0.1818 -0.1669
 9969TIP3    H151322  -0.004   2.954  15.173  0.5442 -0.4397  0.0554
 9969TIP3    H251323   0.084   3.026  15.074 -1.5261  0.9740 -0.8267
 9970TIP3   OH251324   6.546   1.693   1.542  0.2764 -0.1663  0.3177
 9970TIP3    H151325   6.592   1.715   1.461 -1.3350 -2.3309 -1.3034
 9970TIP3    H251326   6.614   1.661   1.601  1.2756 -0.1567 -0.7950
 9971TIP3   OH251327   4.166   3.154  12.743 -0.3783  0.0383 -0.4115
 9971TIP3    H151328   4.076   3.184  12.752 -1.3297 -1.4767 -3.3616
 9971TIP3    H251329   4.218   3.234  12.737 -1.4593  0.9381  1.5354
 9972TIP3   OH251330   6.755   6.031  12.714 -1.1322  0.3876  0.1133
 9972TIP3    H151331   6.666   6.068  12.713 -1.2854  0.0429  0.4853
 9972TIP3    H251332   6.744   5.942  12.681 -0.5671  1.0578 -2.0387
 9973TIP3   OH251333   3.452   0.445   4.179  0.3996 -0.2803 -0.4220
 9973TIP3    H151334   3.504   0.367   4.197 -1.7741 -1.6083  0.4697
 9973TIP3    H251335   3.449   0.450   4.083  1.0607 -0.9327 -0.4850
 9974TIP3   OH251336   1.800   5.082   2.758 -0.2528 -0.4089  0.3035
 9974TIP3    H151337   1.710   5.056   2.780 -0.1444 -1.3214 -0.2851
 9974TIP3    H251338   1.843   5.093   2.843 -1.0735  0.6585  0.6083
 9975TIP3   OH251339   1.204   4.023   4.331  0.5314  0.2403  0.1675
 9975TIP3    H151340   1.207   4.116   4.356  1.1708 -0.6024  3.7594
 9975TIP3    H251341   1.275   4.014   4.267  0.4188  2.2130 -0.3162
 9976TIP3   OH251342   3.504   6.780   0.276  0.1352  0.0010  0.7077
 9976TIP3    H151343   3.486   6.705   0.333  1.1264  0.4779  1.6743
 9976TIP3    H251344   3.544   6.845   0.333  0.4845  0.7778 -0.3867
 9977TIP3   OH251345   1.353   3.577   3.949 -0.0222  0.1480 -0.7590
 9977TIP3    H151346   1.262   3.570   3.918 -0.5431  1.2759  0.4040
 9977TIP3    H251347   1.395   3.496   3.919 -0.7811  0.5895 -3.2790
 9978TIP3   OH251348   3.264   6.352   4.860  0.2844  0.1487  0.8241
 9978TIP3    H151349   3.350   6.318   4.884  0.7464  0.0809 -0.8047
 9978TIP3    H251350   3.273   6.376   4.767 -1.2838  0.6765  0.7861
 9979TIP3   OH251351   5.741   5.693  11.241  0.5487  0.0933 -0.8428
 9979TIP3    H151352   5.821   5.740  11.217  1.9235 -1.5837  0.2418
 9979TIP3    H251353   5.741   5.615  11.186  0.9468 -1.1002  0.7840
 9980TIP3   OH251354   5.297   3.076   2.407 -0.1142  0.0157 -0.2468
 9980TIP3    H151355   5.304   3.125   2.325  1.6027 -0.6511 -0.5308
 9980TIP3    H251356   5.326   2.988   2.385  0.9908 -0.0240  1.1885
 9981TIP3   OH251357   4.192   1.746   2.979  0.5368 -0.1795  0.6080
 9981TIP3    H151358   4.190   1.654   2.951 -2.1586 -1.3578  3.8904
 9981TIP3    H251359   4.265   1.751   3.040  2.0329  0.5410 -1.1479
 9982TIP3   OH251360   3.371   4.798   2.091 -0.0966  0.3628  0.0524
 9982TIP3    H151361   3.465   4.798   2.111  0.2283  1.6741 -1.3023
 9982TIP3    H251362   3.332   4.845   2.165  0.5987  1.7021 -0.3973
 9983TIP3   OH251363   1.585   4.677  13.864 -0.1497  0.1450  0.0550
 9983TIP3    H151364   1.666   4.718  13.837 -0.1768 -0.1353 -0.4586
 9983TIP3    H251365   1.590   4.675  13.960  0.1824  0.6534  0.0538
 9984TIP3   OH251366   1.288   2.294   4.932 -0.0788 -0.1002 -0.1635
 9984TIP3    H151367   1.312   2.204   4.951  1.1851  0.4222  0.8830
 9984TIP3    H251368   1.195   2.299   4.951 -0.3844 -1.4114 -1.1872
 9985TIP3   OH251369   5.104   3.139  13.417  0.6861  0.5237  0.3140
 9985TIP3    H151370   5.022   3.098  13.391  1.3304 -0.5713 -0.0713
 9985TIP3    H251371   5.084   3.182  13.500 -0.3485  0.5437  0.0693
 9986TIP3   OH251372   0.978   2.855  15.367  0.1682  0.3602 -0.3206
 9986TIP3    H151373   0.926   2.931  15.340 -0.6431 -0.0902 -0.0448
 9986TIP3    H251374   1.054   2.893  15.411 -0.0574  1.0233 -0.4914
 9987TIP3   OH251375   2.077   2.032   0.099 -0.3001 -0.3535  0.0383
 9987TIP3    H151376   1.986   2.060   0.095 -0.3257 -0.5679 -3.1855
 9987TIP3    H251377   2.098   2.004   0.010  3.1771  0.5226  0.4187
 9988TIP3   OH251378   6.638   3.853  11.888  0.3828  0.6145  0.1046
 9988TIP3    H151379   6.587   3.934  11.880 -1.8333 -0.6950  0.0425
 9988TIP3    H251380   6.606   3.797  11.817  1.1951 -0.6671  0.7053
 9989TIP3   OH251381   1.250   4.016  14.477 -0.1836  0.3208  0.0742
 9989TIP3    H151382   1.192   4.085  14.508  0.4056  1.9769 -2.2077
 9989TIP3    H251383   1.301   3.990  14.554 -2.3432  0.3960  1.6122
 9990TIP3   OH251384   3.600   3.350  13.965 -0.0875  0.6064 -0.2302
 9990TIP3    H151385   3.569   3.337  14.054 -0.9564  1.8863 -0.3242
 9990TIP3    H251386   3.688   3.314  13.965  0.1043  1.0131  1.2701
 9991TIP3   OH251387   1.262   0.303   5.626 -0.4103 -0.0110  0.4228
 9991TIP3    H151388   1.307   0.387   5.623 -0.4427  0.0032  0.3330
 9991TIP3    H251389   1.179   0.321   5.670 -0.2281 -0.0841  0.8074
 9992TIP3   OH251390   2.925   5.247   5.857  0.1827  0.2173 -0.3339
 9992TIP3    H151391   3.018   5.264   5.840  0.0410 -0.0071 -1.3743
 9992TIP3    H251392   2.887   5.233   5.770 -0.5025 -1.3235  0.1927
 9993TIP3   OH251393   3.887   3.348   5.958  0.1487  0.5049  0.2108
 9993TIP3    H151394   3.952   3.320   6.023  2.8443  1.1586 -2.0121
 9993TIP3    H251395   3.830   3.272   5.948  1.6091 -0.7687  1.0263
 9994TIP3   OH251396   0.639   0.676   2.441 -0.1502  0.1641 -0.4080
 9994TIP3    H151397   0.684   0.600   2.478 -1.3750  0.0144  0.8420
 9994TIP3    H251398   0.661   0.673   2.348  0.4359 -1.2963 -0.2601
 9995TIP3   OH251399   1.148   4.751   5.121 -0.1783  0.1140 -0.3071
 9995TIP3    H151400   1.237   4.775   5.093 -1.2284  2.5518 -1.9439
 9995TIP3    H251401   1.107   4.716   5.041 -1.1023  0.3731  0.0408
 9996TIP3   OH251402   3.940   6.323   0.276  0.2658 -0.2352  0.4439
 9996TIP3    H151403   3.846   6.335   0.288  0.1530  0.5081 -0.9521
 9996TIP3    H251404   3.978   6.407   0.302  0.4604 -0.2742  0.2903
 9997TIP3   OH251405   0.289   3.434   0.572 -0.5839  0.2135 -0.0814
 9997TIP3    H151406   0.340   3.455   0.494 -1.3072 -2.3961 -1.3853
 9997TIP3    H251407   0.207   3.482   0.561 -0.5293  0.1606 -0.7639
 9998TIP3   OH251408   0.957   2.375  13.624 -0.2777  0.0415  0.0059
 9998TIP3    H151409   0.950   2.394  13.530  1.0508  0.2503 -0.0607
 9998TIP3    H251410   0.869   2.391  13.658  0.1309  4.3586 -0.4403
 9999TIP3   OH251411   5.306   5.402  15.844  0.6020 -0.6532  0.1787
 9999TIP3    H151412   5.278   5.329  15.788 -0.4389 -0.8001  0.8474
 9999TIP3    H251413   5.398   5.385  15.861  0.4543 -1.6663  0.0719
10000TIP3   OH251414   5.265   4.891   1.872  0.2421  0.2045  0.6400
10000TIP3    H151415   5.231   4.802   1.863 -1.6806  0.9073  0.3829
10000TIP3    H251416   5.195   4.947   1.836  1.7117  1.7774  0.0821
10001TIP3   OH251417   3.995   4.172   1.610 -0.0100  0.5278 -0.0519
10001TIP3    H151418   3.992   4.149   1.703  1.1388  1.6883  0.3029
10001TIP3    H251419   3.948   4.254   1.604  0.2327  0.6416 -0.4285
10002TIP3   OH251420   3.962   6.667  11.979  0.1596  0.6027  0.4430
10002TIP3    H151421   3.917   6.751  11.980  0.9634  1.0369  0.8779
10002TIP3    H251422   4.052   6.688  12.002  0.8487 -0.0975 -1.4048
10003TIP3   OH251423   1.112   0.312   4.495 -0.6411  0.0215 -0.3109
10003TIP3    H151424   1.024   0.287   4.524  0.1218 -0.2393  1.9528
10003TIP3    H251425   1.099   0.347   4.407 -2.8613 -0.9351 -0.4226
10004TIP3   OH251426   3.868   4.803   4.163  0.2214  0.4902 -0.2438
10004TIP3    H151427   3.909   4.752   4.232  1.3954  2.0069  0.2497
10004TIP3    H251428   3.820   4.872   4.209 -1.4339 -0.1788 -0.8835
10005TIP3   OH251429   4.386   6.087   3.627  0.3460  0.7699 -0.1764
10005TIP3    H151430   4.379   6.005   3.675 -1.8973  1.0881  0.1548
10005TIP3    H251431   4.450   6.139   3.676 -0.5000  0.3805  1.4039
10006TIP3   OH251432   6.619   1.595   4.312 -0.5220 -0.2709  0.1513
10006TIP3    H151433   6.710   1.576   4.337  0.3468  2.6146 -0.4025
10006TIP3    H251434   6.566   1.550   4.377  1.4052  0.0554  2.0808
10007TIP3   OH251435   2.342   3.324  14.493 -0.3206 -0.5202  0.3338
10007TIP3    H151436   2.265   3.267  14.484 -0.8215  0.3632 -1.6837
10007TIP3    H251437   2.307   3.406  14.528  0.0364 -0.7584  1.2498
10008TIP3   OH251438   1.925   3.019   5.109  0.8473  0.3628  0.3021
10008TIP3    H151439   1.912   2.926   5.088  1.7390 -0.2420  2.2084
10008TIP3    H251440   1.862   3.065   5.054 -0.0558 -1.4278 -0.2361
10009TIP3   OH251441   6.202   3.771   0.054 -0.0259  0.5690 -0.6718
10009TIP3    H151442   6.262   3.699   0.037  2.1931  2.0619  0.4453
10009TIP3    H251443   6.209   3.788   0.148 -1.3297  1.5352 -0.7081
10010TIP3   OH251444   0.880   0.177  16.950  0.0418 -0.2670  0.1073
10010TIP3    H151445   0.820   0.225  17.006 -0.5355  0.0415 -0.7416
10010TIP3    H251446   0.867   0.216  16.863  1.0886 -0.5533 -0.1898
10011TIP3   OH251447   5.377   2.178  16.013 -0.3888 -0.0427 -0.2860
10011TIP3    H151448   5.361   2.253  15.957 -0.6638  0.0961 -0.0192
10011TIP3    H251449   5.453   2.203  16.066 -0.2232 -0.1162 -0.4838
10012TIP3   OH251450   1.839   4.912  15.758 -0.4687  0.3390  0.3635
10012TIP3    H151451   1.817   4.930  15.667  2.3735 -1.4368 -0.8063
10012TIP3    H251452   1.932   4.936  15.765  0.1141 -2.0960  2.0087
10013TIP3   OH251453   4.480   6.262  13.365  0.9149 -0.1327  0.2530
10013TIP3    H151454   4.552   6.202  13.347  0.9568  0.2213 -0.8277
10013TIP3    H251455   4.423   6.213  13.424  1.3285 -0.9562 -0.0142
10014TIP3   OH251456   1.650   2.758  13.333  0.0249 -0.7076 -0.1031
10014TIP3    H151457   1.619   2.757  13.242 -0.5898 -1.3599  0.1048
10014TIP3    H251458   1.622   2.674  13.369  2.3065 -1.4970  0.0191
10015TIP3   OH251459   3.688   5.872  12.779  0.6279 -0.1950 -0.1100
10015TIP3    H151460   3.615   5.930  12.799 -1.3181 -1.9854 -1.5188
10015TIP3    H251461   3.754   5.928  12.739  1.3234  1.9909  3.6017
10016TIP3   OH251462   6.421   4.258   4.318  0.2109  0.2093  0.2650
10016TIP3    H151463   6.427   4.310   4.237 -0.3125  2.6308  1.6691
10016TIP3    H251464   6.495   4.289   4.371 -0.3891 -0.1598  1.3439
10017TIP3   OH251465   4.355   3.992  14.460 -0.5423  0.2208  0.2573
10017TIP3    H151466   4.429   3.933  14.448 -1.5513 -0.9475 -0.4258
10017TIP3    H251467   4.392   4.080  14.444  0.7389 -0.2977  0.2255
10018TIP3   OH251468   1.611   3.239  14.347 -0.4527 -0.4358  0.0071
10018TIP3    H151469   1.576   3.154  14.372 -0.3066 -0.3487  0.5367
10018TIP3    H251470   1.698   3.242  14.388  0.2091 -0.6716 -1.3299
10019TIP3   OH251471   5.855   6.019  13.048  0.0707  0.2875 -0.1551
10019TIP3    H151472   5.835   5.952  12.984  0.5843 -0.0570  0.0397
10019TIP3    H251473   5.929   5.984  13.098  0.0850  0.8201  0.2106
10020TIP3   OH251474   2.499   5.446  13.273  0.0979  0.2049  0.5607
10020TIP3    H151475   2.419   5.424  13.226  1.3978 -0.8805 -1.2887
10020TIP3    H251476   2.544   5.362  13.285  0.8753  0.7591  1.7478
10021TIP3   OH251477   4.141   2.460  10.792  0.0897 -0.0747  0.1091
10021TIP3    H151478   4.159   2.404  10.868  1.9730 -0.2503 -0.4082
10021TIP3    H251479   4.140   2.399  10.718 -2.8377 -0.0691  0.0383
10022TIP3   OH251480   4.705   0.792  16.188 -0.4857  0.1242 -0.4385
10022TIP3    H151481   4.703   0.763  16.279  1.9944  1.2309  0.0609
10022TIP3    H251482   4.769   0.863  16.187 -0.6727  0.3586 -2.9992
10023TIP3   OH251483   3.773   6.510  14.919 -0.3392  0.4139  0.1528
10023TIP3    H151484   3.858   6.554  14.912 -0.2521  0.0412 -1.8253
10023TIP3    H251485   3.757   6.504  15.013  1.1816  1.7015  0.5477
10024TIP3   OH251486   6.446   6.033   0.496  0.1708  0.2329  0.3704
10024TIP3    H151487   6.450   5.998   0.407 -0.5716 -0.3887  0.5734
10024TIP3    H251488   6.357   6.014   0.525  0.5773 -0.0960  1.4531
10025TIP3   OH251489   6.394   0.131  10.704  0.3602 -0.5041  0.0288
10025TIP3    H151490   6.410   0.225  10.695  0.0896  0.0416  3.8799
10025TIP3    H251491   6.479   0.094  10.726  0.4515 -1.2212 -1.3993
10026TIP3   OH251492   0.841   6.095  16.463  0.0764 -0.3127  0.2966
10026TIP3    H151493   0.909   6.160  16.482  1.2169 -1.3259 -0.1950
10026TIP3    H251494   0.858   6.068  16.373  0.5395 -2.3445  0.9509
10027TIP3   OH251495   5.701   6.434   6.427  0.3375 -0.2721  0.2727
10027TIP3    H151496   5.792   6.465   6.422  0.1087  0.6643  1.5155
10027TIP3    H251497   5.649   6.508   6.398 -0.1435  0.0186  1.8198
10028TIP3   OH251498   1.140   1.477  14.463  0.6311 -0.3657  0.1994
10028TIP3    H151499   1.090   1.422  14.402 -0.2808 -1.0548  1.5192
10028TIP3    H251500   1.133   1.565  14.427 -0.8757 -0.5772 -0.1022
10029TIP3   OH251501   3.988   5.507  10.572 -0.2882  0.0067 -0.0053
10029TIP3    H151502   3.933   5.452  10.628 -0.6628 -1.7863 -1.9940
10029TIP3    H251503   3.942   5.510  10.488  1.8158 -0.2152 -1.2552
10030TIP3   OH251504   1.900   6.311  16.874  0.0659 -0.3779 -0.2052
10030TIP3    H151505   1.836   6.367  16.830  0.9272  0.5394 -0.3508
10030TIP3    H251506   1.873   6.222  16.853 -1.9938 -0.0849  0.9252
10031TIP3   OH251507   2.337   5.075  15.847 -0.0632  0.2894 -0.0237
10031TIP3    H151508   2.256   5.090  15.798  0.5986  3.8369 -0.2807
10031TIP3    H251509   2.328   4.986  15.881 -3.3222 -0.0363 -1.3593
10032TIP3   OH251510   0.382   0.025   3.051 -0.2271  0.3377 -0.0293
10032TIP3    H151511   0.407  -0.005   2.964  0.9955  0.1483  0.3586
10032TIP3    H251512   0.308  -0.030   3.075 -0.2670  0.0651 -0.7634
10033TIP3   OH251513   5.093   1.375  14.715 -0.1295  0.4053  0.0505
10033TIP3    H151514   5.008   1.381  14.759  0.7522 -1.4022  2.1755
10033TIP3    H251515   5.110   1.464  14.684 -2.0863  1.1341  0.9071
10034TIP3   OH251516   2.221   2.424  14.812 -1.1384 -0.6081  0.5178
10034TIP3    H151517   2.245   2.371  14.888 -1.1438  0.2791  1.1533
10034TIP3    H251518   2.162   2.492  14.847 -0.6759  0.1693 -0.1666
10035TIP3   OH251519   1.024   2.494   1.763  0.2443  0.1956  0.0516
10035TIP3    H151520   1.115   2.518   1.780  0.4591  0.2071 -1.0307
10035TIP3    H251521   0.983   2.575   1.735 -0.2127  0.2803  0.9538
10036TIP3   OH251522   1.974   3.328  11.707 -0.4152  0.0596  0.1084
10036TIP3    H151523   1.988   3.392  11.637  1.6151 -0.4058  0.0156
10036TIP3    H251524   2.029   3.253  11.682 -1.7776 -1.2291  0.8384
10037TIP3   OH251525   4.660   5.265   2.758  0.2130 -0.7019 -0.7511
10037TIP3    H151526   4.622   5.304   2.837 -0.0179 -0.5413 -0.9410
10037TIP3    H251527   4.752   5.249   2.781  0.0849 -0.9033 -0.3588
10038TIP3   OH251528   2.061   2.335   0.819 -0.2171 -0.2260  0.1049
10038TIP3    H151529   2.023   2.274   0.883 -0.7152  0.7440  0.7623
10038TIP3    H251530   1.989   2.392   0.795  0.3692  0.4311 -0.1110
10039TIP3   OH251531   1.486   3.485  14.313  0.1051  0.6294 -0.0985
10039TIP3    H151532   1.399   3.469  14.277  0.6618  2.3473 -2.5127
10039TIP3    H251533   1.530   3.400  14.309 -0.7341  0.2195 -1.0929
10040TIP3   OH251534   1.539   5.186  13.489 -0.1253 -0.3458 -0.8103
10040TIP3    H151535   1.630   5.202  13.463 -0.0322  1.2821  0.3440
10040TIP3    H251536   1.488   5.248  13.437 -0.2311  0.8707  0.6838
10041TIP3   OH251537   1.769   4.972  16.355  0.2451  0.0007  0.5184
10041TIP3    H151538   1.797   4.978  16.264 -1.4786  0.3026 -0.0329
10041TIP3    H251539   1.757   5.062  16.383 -0.2270 -0.1078  0.6915
10042TIP3   OH251540   2.022   0.612   0.410  0.4146  0.4089  0.7375
10042TIP3    H151541   1.950   0.673   0.401  1.5804  1.8241  0.5575
10042TIP3    H251542   1.981   0.527   0.428 -1.3580  0.8010 -1.1276
10043TIP3   OH251543   6.094   4.131  14.278 -0.0646  0.1038 -0.1117
10043TIP3    H151544   6.071   4.083  14.357 -0.4653 -0.0079 -0.2910
10043TIP3    H251545   6.161   4.193  14.306 -2.5072  2.4387  1.1219
10044TIP3   OH251546   0.591   6.500  14.812  0.2141  0.1333  0.3293
10044TIP3    H151547   0.633   6.509  14.726 -0.6022 -1.3547 -0.2573
10044TIP3    H251548   0.573   6.407  14.821 -1.1259  0.4632  1.4341
10045TIP3   OH251549   5.633   4.015  15.046 -0.1858 -0.5062 -0.1079
10045TIP3    H151550   5.598   4.103  15.032  0.9219 -0.3217 -2.2731
10045TIP3    H251551   5.728   4.028  15.054 -0.1165 -1.4077  0.6066
10046TIP3   OH251552   1.348   6.056  16.855 -0.1449  0.1517 -0.0194
10046TIP3    H151553   1.402   6.058  16.934 -0.7150  1.7244  0.3705
10046TIP3    H251554   1.409   6.071  16.783  0.2490 -0.3784  0.1979
10047TIP3   OH251555   0.695   6.227  13.578  0.0222  0.4354 -0.4190
10047TIP3    H151556   0.746   6.160  13.624 -1.0801  0.2201  0.5376
10047TIP3    H251557   0.753   6.304  13.577  1.1397 -0.3739 -1.1736
10048TIP3   OH251558   1.535   1.833  12.842 -0.3592 -0.3711  0.3378
10048TIP3    H151559   1.445   1.824  12.811 -0.4351 -1.2178  0.7725
10048TIP3    H251560   1.582   1.759  12.804  0.4123  0.6147 -0.7068
10049TIP3   OH251561   4.212   6.200   3.918 -0.1459  0.0430  0.4515
10049TIP3    H151562   4.294   6.249   3.924  0.5731 -1.1930  1.2578
10049TIP3    H251563   4.173   6.227   3.835  1.9780 -0.6869 -0.8576
10050TIP3   OH251564   1.590   1.437   3.242  0.1278 -0.2665  0.1948
10050TIP3    H151565   1.566   1.506   3.304 -0.6674 -0.6721  0.3449
10050TIP3    H251566   1.536   1.362   3.266  2.7232 -1.8205  1.6527
10051TIP3   OH251567   3.132   0.297   5.521  0.4653 -0.0704 -0.0989
10051TIP3    H151568   3.148   0.306   5.615 -0.6803 -0.8060  0.1901
10051TIP3    H251569   3.192   0.229   5.492 -0.8799 -1.6171  0.6238
10052TIP3   OH251570   1.263   1.700   4.469 -1.0151  0.3636 -0.1446
10052TIP3    H151571   1.169   1.685   4.462 -1.0099 -0.5547  1.2177
10052TIP3    H251572   1.294   1.705   4.379 -2.1596 -0.8113 -0.6385
10053TIP3   OH251573   5.589   3.339   2.734  0.0205  0.4119 -0.0048
10053TIP3    H151574   5.646   3.291   2.793 -1.5662 -0.6059  0.7866
10053TIP3    H251575   5.507   3.289   2.733  0.1769 -0.0258 -3.6544
10054TIP3   OH251576   6.382   0.684  12.116  0.5076  0.0391 -0.2554
10054TIP3    H151577   6.314   0.616  12.117  2.1196 -1.6636 -0.2899
10054TIP3    H251578   6.356   0.743  12.046 -0.8895 -0.6196 -0.3211
10055TIP3   OH251579   2.622   4.368  17.170  0.0229  0.3531  0.3352
10055TIP3    H151580   2.560   4.387  17.241 -0.0139  0.7293  0.2053
10055TIP3    H251581   2.702   4.340  17.216 -0.5922 -1.2878  0.4808
10056TIP3   OH251582   5.170   1.462  14.362 -0.2986  0.4761 -0.0816
10056TIP3    H151583   5.169   1.376  14.320 -2.1734  0.5810 -0.3199
10056TIP3    H251584   5.195   1.523  14.292  0.0778  0.2536 -0.1448
10057TIP3   OH251585   5.615   4.257  15.367  0.2257  0.1513 -0.0345
10057TIP3    H151586   5.640   4.301  15.286  0.2473  1.3519  0.6011
10057TIP3    H251587   5.686   4.275  15.428  0.2944 -0.8885  0.2183
10058TIP3   OH251588   3.097   6.319   4.035  0.4486 -0.2458  0.7088
10058TIP3    H151589   3.125   6.259   4.104  0.7515 -0.4835  0.3886
10058TIP3    H251590   3.171   6.320   3.974 -0.2976 -1.0283 -0.2483
10059TIP3   OH251591   3.724   5.434   0.783  0.0378  0.1292  0.1267
10059TIP3    H151592   3.639   5.479   0.791  0.3839  0.5115  2.4554
10059TIP3    H251593   3.712   5.353   0.833  0.9542  0.0485  0.2192
10060TIP3   OH251594   5.810   6.572   0.554 -0.3351  0.1917 -0.3870
10060TIP3    H151595   5.772   6.508   0.494 -0.4225 -1.6864  1.5389
10060TIP3    H251596   5.864   6.519   0.613 -0.6740  1.8568  1.4950
10061TIP3   OH251597   1.065   3.106  14.010  0.5129  0.6441  0.0302
10061TIP3    H151598   1.126   3.081  13.940  2.0069  0.4838  1.3243
10061TIP3    H251599   1.062   3.202  14.007 -0.9480  0.5842 -1.4516
10062TIP3   OH251600   3.998   4.338  13.745  0.4028 -0.1915 -0.6290
10062TIP3    H151601   3.993   4.381  13.830 -0.3270 -3.6854  1.2825
10062TIP3    H251602   3.907   4.314  13.725  0.6706 -0.1665 -1.9989
10063TIP3   OH251603   5.938   4.828   0.207 -0.4208  0.1396  0.3530
10063TIP3    H151604   6.001   4.825   0.280 -0.6040  1.8020  0.6193
10063TIP3    H251605   5.955   4.912   0.164  0.7193 -1.4096 -2.5235
10064TIP3   OH251606   0.290   2.435   3.026 -0.5557  0.1486  0.2264
10064TIP3    H151607   0.235   2.455   2.951  1.5923  1.3122 -1.1587
10064TIP3    H251608   0.366   2.492   3.016  1.0553 -1.5520  1.8305
10065TIP3   OH251609   2.449   2.489   3.257  0.1074  0.0606 -0.2484
10065TIP3    H151610   2.478   2.446   3.176  0.0275 -0.8218  0.1735
10065TIP3    H251611   2.399   2.421   3.303 -0.3399  0.7287  0.2756
10066TIP3   OH251612   5.840   4.865  15.054  0.3010  0.1076  0.1546
10066TIP3    H151613   5.807   4.953  15.035 -0.3988  0.1107  1.2943
10066TIP3    H251614   5.848   4.824  14.968  0.6067  1.2587 -0.3988
10067TIP3   OH251615   2.930   5.431  15.118  0.1167  0.1736  0.0161
10067TIP3    H151616   3.016   5.432  15.077  0.2733  2.9637  0.2736
10067TIP3    H251617   2.939   5.485  15.196 -1.6050 -0.4322  0.6865
10068TIP3   OH251618   3.641   3.182   5.516  0.3492  0.3668 -0.3152
10068TIP3    H151619   3.558   3.137   5.502 -0.3728  2.0083 -1.6639
10068TIP3    H251620   3.617   3.268   5.551  1.5882  0.3344  0.7098
10069TIP3   OH251621   1.228   4.592  16.356  0.2562  0.0935 -0.5995
10069TIP3    H151622   1.257   4.507  16.387  0.5221  1.1213  2.2751
10069TIP3    H251623   1.306   4.647  16.358 -0.5381  1.2734  1.1583
10070TIP3   OH251624   3.734   5.077  14.181 -0.2738 -0.0641  0.4745
10070TIP3    H151625   3.797   5.005  14.192  1.3090  0.6431 -2.6636
10070TIP3    H251626   3.776   5.152  14.223  0.0858 -0.0409  0.0821
10071TIP3   OH251627   5.447   6.713  13.132 -0.7533  0.4172 -0.2075
10071TIP3    H151628   5.372   6.738  13.078 -0.6263  0.0664 -0.5536
10071TIP3    H251629   5.488   6.641  13.084 -1.5116 -0.9328  1.0857
10072TIP3   OH251630   5.916   4.650  16.067  0.2404 -0.0791  0.0039
10072TIP3    H151631   5.832   4.660  16.113 -0.6772 -1.3393 -1.3259
10072TIP3    H251632   5.975   4.712  16.111 -1.6327  1.5399  0.3612
10073TIP3   OH251633   3.338   5.955   1.324 -0.0227 -0.4173  0.5430
10073TIP3    H151634   3.321   6.027   1.385 -1.1664 -0.7548  0.6435
10073TIP3    H251635   3.431   5.936   1.335 -0.3508 -0.9769  2.7509
10074TIP3   OH251636   5.636   5.589   1.156 -0.4072 -0.0629  0.4204
10074TIP3    H151637   5.667   5.636   1.233 -0.5318  1.0937 -0.2013
10074TIP3    H251638   5.553   5.632   1.134  0.9845  1.6410 -2.0229
10075TIP3   OH251639   6.481   0.642  15.413  0.0886  0.1698 -0.4024
10075TIP3    H151640   6.440   0.699  15.348 -0.2892  0.4902  0.1125
10075TIP3    H251641   6.483   0.556  15.371 -1.7785 -0.0225 -0.1749
10076TIP3   OH251642   2.719   6.445  16.166 -0.3731  0.1515  0.4998
10076TIP3    H151643   2.704   6.352  16.148 -1.4245  0.4468 -0.2302
10076TIP3    H251644   2.754   6.480  16.084 -0.6096  0.5391  0.5631
10077TIP3   OH251645   5.362   4.948   3.181 -0.3016 -0.1288 -0.1728
10077TIP3    H151646   5.317   4.907   3.254 -0.0674 -3.0297 -1.5184
10077TIP3    H251647   5.388   5.034   3.214  1.3886 -1.8906  3.7959
10078TIP3   OH251648   5.662   1.089  14.719 -0.4818  0.0475 -0.5932
10078TIP3    H151649   5.663   1.008  14.770 -0.5254  1.3848  1.6544
10078TIP3    H251650   5.592   1.141  14.757  0.1305  1.5176 -1.3776
10079TIP3   OH251651   3.501   4.231   4.688 -0.2972 -0.2485  0.4072
10079TIP3    H151652   3.589   4.249   4.722 -0.7561  0.9169  1.0320
10079TIP3    H251653   3.454   4.313   4.700 -1.7144 -1.0933  0.7914
10080TIP3   OH251654   1.579   0.897   0.009 -0.8512 -0.4270  0.5647
10080TIP3    H151655   1.662   0.869   0.048 -0.2043 -0.5503 -0.8358
10080TIP3    H251656   1.528   0.929   0.083  0.0402 -1.3094  1.6062
10081TIP3   OH251657   0.544   1.564  14.571  0.5858  0.2649  0.0645
10081TIP3    H151658   0.455   1.569  14.538  0.2060 -1.1483  0.8034
10081TIP3    H251659   0.600   1.577  14.494 -0.2596  0.0778 -0.5853
10082TIP3   OH251660   5.697   5.267  14.021 -0.4497 -0.4129  0.6775
10082TIP3    H151661   5.768   5.262  14.085 -2.0689 -0.3700  2.5748
10082TIP3    H251662   5.636   5.198  14.047 -1.4132 -0.0586 -0.5358
10083TIP3   OH251663   1.388   4.635  13.347  0.4766  0.2724  0.4929
10083TIP3    H151664   1.444   4.572  13.391  1.8004  0.4906 -0.8079
10083TIP3    H251665   1.320   4.656  13.412  0.7042 -1.5268  1.3789
10084TIP3   OH251666   3.915   3.687  14.925 -0.1564  0.5866  0.4086
10084TIP3    H151667   3.857   3.724  14.859  1.4402 -0.3547 -1.6066
10084TIP3    H251668   3.867   3.611  14.959 -0.6767  0.6139 -0.2543
10085TIP3   OH251669   3.400   0.918   0.075 -0.4980  0.2931 -0.1894
10085TIP3    H151670   3.396   0.967  -0.007  1.3176 -0.9817 -1.1056
10085TIP3    H251671   3.341   0.844   0.062  3.1863 -2.5922 -2.3879
10086TIP3   OH251672   1.873   3.229   4.898  0.3292  0.2901  0.2864
10086TIP3    H151673   1.849   3.146   4.857 -0.5723  0.1637  1.0626
10086TIP3    H251674   1.832   3.296   4.843 -0.0355  0.1644  0.4071
10087TIP3   OH251675   0.227   4.234  11.120  0.7172  0.3041  0.7304
10087TIP3    H151676   0.224   4.164  11.185 -1.1064  1.9865  2.6244
10087TIP3    H251677   0.176   4.201  11.046  0.4787 -0.6218  1.2996
10088TIP3   OH251678   5.735   4.351   0.650  0.1757 -0.3423  0.1198
10088TIP3    H151679   5.793   4.275   0.661 -0.8579 -1.1326  0.3445
10088TIP3    H251680   5.695   4.339   0.564 -2.2222 -1.7160  1.3092
10089TIP3   OH251681   0.738   4.194   3.938  0.1228 -0.1475 -0.1804
10089TIP3    H151682   0.717   4.102   3.922 -0.5797  0.2587 -1.7988
10089TIP3    H251683   0.781   4.223   3.857 -2.7759  1.8162 -1.1742
10090TIP3   OH251684   3.062   1.954  11.775 -0.1334 -0.1700 -0.2862
10090TIP3    H151685   3.023   1.869  11.794 -0.1706  0.0059  0.4437
10090TIP3    H251686   3.062   2.000  11.859  1.9853 -0.3044 -0.1520
10091TIP3   OH251687   1.507   0.610  10.547  0.0126  0.7525 -0.7323
10091TIP3    H151688   1.458   0.663  10.610 -1.5840 -0.1324 -1.1663
10091TIP3    H251689   1.535   0.671  10.480 -1.5692  1.1167 -1.0916
10092TIP3   OH251690   3.144   4.457   5.495  0.3915  1.4456  0.2752
10092TIP3    H151691   3.117   4.400   5.567 -0.3551  0.8963 -0.4160
10092TIP3    H251692   3.157   4.543   5.535 -1.3096  1.4587  0.8423
10093TIP3   OH251693   2.194   1.746   3.150  0.1667 -0.0270 -0.3035
10093TIP3    H151694   2.139   1.679   3.110  0.1993  0.0401 -0.4657
10093TIP3    H251695   2.177   1.825   3.097 -0.6075  0.3460  0.4771
10094TIP3   OH251696   5.050   1.490  15.270 -0.8486  0.1983  0.1968
10094TIP3    H151697   5.031   1.583  15.284 -2.5338  0.0358 -0.6596
10094TIP3    H251698   5.141   1.479  15.296 -0.7463  2.0028  0.7122
10095TIP3   OH251699   4.294   2.734   0.904  0.2804 -0.1932  0.2247
10095TIP3    H151700   4.218   2.758   0.957 -1.4028  0.6493 -2.4036
10095TIP3    H251701   4.366   2.728   0.967 -1.1186  2.7645  2.3145
10096TIP3   OH251702   5.224   0.747   5.702 -0.3221 -0.2999 -0.5421
10096TIP3    H151703   5.148   0.772   5.754  1.3771 -0.8315  2.3950
10096TIP3    H251704   5.298   0.753   5.762  1.6777 -1.9356 -2.6482
10097TIP3   OH251705   2.798   1.392  15.069  0.0401 -0.3292 -0.2547
10097TIP3    H151706   2.770   1.470  15.021  1.0076 -0.1566 -0.5618
10097TIP3    H251707   2.818   1.425  15.157  4.0640  0.6174 -1.3033
10098TIP3   OH251708   1.066   3.145  17.073 -0.2043  0.2066 -0.3067
10098TIP3    H151709   0.993   3.125  17.014 -0.2517 -1.4622  0.2837
10098TIP3    H251710   1.069   3.241  17.075 -0.6306  0.3072 -2.4740
10099TIP3   OH251711   2.675   4.020  13.190  0.1938  0.0956  0.2164
10099TIP3    H151712   2.707   3.960  13.257  3.6882 -0.8596 -2.0433
10099TIP3    H251713   2.671   3.967  13.111  0.8831  2.2177 -1.3309
10100TIP3   OH251714   0.587   1.344   0.437  0.0916 -0.2200  0.2505
10100TIP3    H151715   0.556   1.268   0.388 -0.2222 -0.8274  1.3660
10100TIP3    H251716   0.653   1.308   0.497  1.7423  0.7695 -0.8625
10101TIP3   OH251717   0.864   2.506  16.826  0.1086  0.2801 -0.5019
10101TIP3    H151718   0.906   2.540  16.747  0.1039  0.1585 -0.5563
10101TIP3    H251719   0.934   2.505  16.891  0.5337 -1.1738 -0.9509
10102TIP3   OH251720   4.916   4.065   2.480  0.7263 -0.3346 -0.7235
10102TIP3    H151721   4.954   4.099   2.561 -0.0903 -0.8648 -0.1011
10102TIP3    H251722   4.952   4.122   2.411 -0.6550  1.9019  0.2821
10103TIP3   OH251723   1.376   2.784  15.930 -0.0146 -0.1923  0.1484
10103TIP3    H151724   1.405   2.864  15.886 -0.0645  0.0527  0.5572
10103TIP3    H251725   1.456   2.746  15.966  0.0894 -0.6182 -0.5044
10104TIP3   OH251726   3.944   0.883  15.295  0.4856  0.1900 -0.3151
10104TIP3    H151727   3.974   0.974  15.296 -1.9056  1.0557 -0.0123
10104TIP3    H251728   3.938   0.860  15.202  1.0520  0.3482 -0.3926
10105TIP3   OH251729   5.920   1.720  16.099  0.1317 -0.1546  0.6284
10105TIP3    H151730   5.902   1.637  16.056 -0.3951 -0.6946  1.8327
10105TIP3    H251731   6.016   1.726  16.102  0.2342 -1.7119  2.2746
10106TIP3   OH251732   1.300   0.331  12.292 -0.1831  0.5068  0.2177
10106TIP3    H151733   1.250   0.378  12.359  1.5106  0.7786  1.3513
10106TIP3    H251734   1.303   0.241  12.324 -1.3539  0.1014 -0.7247
10107TIP3   OH251735   1.219   5.796  11.621 -0.7262 -0.5397  0.2972
10107TIP3    H151736   1.176   5.792  11.535  0.6462  0.8188 -0.5011
10107TIP3    H251737   1.192   5.716  11.665 -1.5555 -1.2211 -1.3642
10108TIP3   OH251738   4.452   1.347   0.096  0.1783 -0.5304  0.1369
10108TIP3    H151739   4.501   1.421   0.061 -0.7815 -0.5479 -1.3295
10108TIP3    H251740   4.453   1.282   0.025  0.2555 -1.5841  1.0707
10109TIP3   OH251741   5.401   0.651   4.590 -0.1406  0.0184 -0.0228
10109TIP3    H151742   5.458   0.706   4.537 -0.9772  1.4612  0.5114
10109TIP3    H251743   5.313   0.668   4.557 -0.6907  0.9630  1.7629
10110TIP3   OH251744   5.334   4.252  11.185  0.3214 -0.2692 -0.5324
10110TIP3    H151745   5.392   4.328  11.183  1.5384 -1.1474  0.1944
10110TIP3    H251746   5.336   4.223  11.276  1.4185 -2.3146 -1.1617
10111TIP3   OH251747   5.143   1.951   6.032 -0.1683  0.0905 -0.0744
10111TIP3    H151748   5.216   2.013   6.038 -1.3601  1.5591  0.0320
10111TIP3    H251749   5.070   1.996   6.075 -1.6309 -0.5388 -1.7838
10112TIP3   OH251750   3.032   1.016   4.703  0.2246 -0.6082  0.0738
10112TIP3    H151751   3.099   1.013   4.771 -0.9664 -1.7139  1.2336
10112TIP3    H251752   3.058   0.949   4.640  0.7144 -0.3539 -0.0052
10113TIP3   OH251753   0.607   1.996  16.969  0.4076 -0.1084 -0.3056
10113TIP3    H151754   0.532   1.953  17.010 -0.7029  1.0147 -1.0487
10113TIP3    H251755   0.570   2.040  16.892  1.7765  0.7242 -0.5324
10114TIP3   OH251756   5.743   2.820   0.495  0.7420  0.1663  0.2289
10114TIP3    H151757   5.691   2.797   0.418  0.8150 -0.5931  0.3974
10114TIP3    H251758   5.805   2.748   0.505  0.2002 -0.1674  1.4623
10115TIP3   OH251759   6.680   4.574  15.093 -0.3775 -0.0988  0.0968
10115TIP3    H151760   6.686   4.551  15.185 -0.3763 -1.4012 -0.2088
10115TIP3    H251761   6.595   4.540  15.065  0.0399 -0.5861 -0.6075
10116TIP3   OH251762   0.048   3.668   4.846  0.3183  0.4189  0.1329
10116TIP3    H151763  -0.001   3.699   4.922 -0.9638 -1.1499  0.0006
10116TIP3    H251764  -0.009   3.689   4.771 -0.6982 -2.2641  0.0544
10117TIP3   OH251765   5.644   0.056   3.071  0.6918  0.5151 -0.1745
10117TIP3    H151766   5.606   0.087   2.989  1.5415  1.2972 -0.2882
10117TIP3    H251767   5.704   0.126   3.098  1.6630 -0.4518  0.2566
10118TIP3   OH251768   6.009   1.492  12.158 -0.0693  0.4009 -0.1905
10118TIP3    H151769   5.933   1.482  12.100 -0.0359  1.7221 -0.4885
10118TIP3    H251770   6.073   1.428  12.126 -1.0234 -0.7189  0.0506
10119TIP3   OH251771   6.170   5.391  16.491 -0.2417 -0.3939  0.3403
10119TIP3    H151772   6.097   5.429  16.541 -0.3863 -1.0828  0.6576
10119TIP3    H251773   6.244   5.450  16.509 -1.4171  2.1772 -2.4911
10120TIP3   OH251774   5.414   0.316  11.553 -0.0028  0.2997  0.0243
10120TIP3    H151775   5.417   0.404  11.591 -2.8307  0.3842  0.2578
10120TIP3    H251776   5.357   0.266  11.611 -1.3870 -0.6517 -2.0292
10121TIP3   OH251777   0.391   1.042   4.732 -0.1453 -0.8515  0.7698
10121TIP3    H151778   0.309   1.081   4.763 -0.0108  0.4934 -0.4830
10121TIP3    H251779   0.387   0.951   4.763 -1.7230 -0.5924  1.4273
10122TIP3   OH251780   4.624   6.759  16.680  0.1429 -0.6927 -0.2607
10122TIP3    H151781   4.616   6.801  16.594  0.9494 -0.5684 -0.2898
10122TIP3    H251782   4.708   6.713  16.676 -0.4729 -1.8782 -0.0388
10123TIP3   OH251783   2.884   3.511   3.758  0.0671 -0.3815 -0.3492
10123TIP3    H151784   2.959   3.485   3.811 -1.5569 -1.1124  1.7333
10123TIP3    H251785   2.883   3.606   3.763 -0.6909 -0.4429  2.0229
10124TIP3   OH251786   1.308   3.899   4.960  0.0147 -0.4070 -0.0087
10124TIP3    H151787   1.321   3.918   5.053 -0.4345 -2.6079  0.5507
10124TIP3    H251788   1.331   3.807   4.951  2.2887  0.3192 -2.5672
10125TIP3   OH251789   0.345   1.788   1.549  0.1855  0.2539 -0.1938
10125TIP3    H151790   0.308   1.866   1.508 -1.1806  0.9575  2.1570
10125TIP3    H251791   0.309   1.715   1.499 -1.9152  1.0506  0.0428
10126TIP3   OH251792   4.081   2.860   0.398 -0.6414 -0.2677 -0.2961
10126TIP3    H151793   4.127   2.876   0.316  2.7020  0.1319  1.5150
10126TIP3    H251794   4.074   2.764   0.403  0.1485 -0.3452 -0.5569
10127TIP3   OH251795   2.282   6.617  14.286  0.2253 -0.3890 -0.2476
10127TIP3    H151796   2.299   6.676  14.360  0.7488 -1.3410  0.4144
10127TIP3    H251797   2.199   6.574  14.309 -0.6677  0.7556 -1.1898
10128TIP3   OH251798   4.638   4.896   4.639 -0.7938  0.3411 -0.6680
10128TIP3    H151799   4.690   4.863   4.712 -0.2293  0.7279 -0.8885
10128TIP3    H251800   4.547   4.872   4.661 -0.8360  1.7242  0.8710
10129TIP3   OH251801   0.242   3.386   6.145  0.0664 -0.1927 -0.0115
10129TIP3    H151802   0.281   3.419   6.064 -0.5891  0.6813  0.0096
10129TIP3    H251803   0.250   3.460   6.207 -0.9779 -0.2367  0.1961
10130TIP3   OH251804   0.884   3.554   4.072 -0.3006 -0.0796 -0.0675
10130TIP3    H151805   0.952   3.565   4.138  0.6571  0.1080 -1.0499
10130TIP3    H251806   0.835   3.636   4.072 -0.1899 -0.0163  0.2811
10131TIP3   OH251807   3.538   3.894  17.145 -0.6938 -0.9834 -0.3393
10131TIP3    H151808   3.548   3.799  17.151 -0.5776 -1.0424 -1.2249
10131TIP3    H251809   3.448   3.906  17.114 -0.5679 -0.8276 -0.6496
10132TIP3   OH251810   2.627   0.777   5.302  0.3292  0.5345 -0.2970
10132TIP3    H151811   2.615   0.690   5.339  0.6076  0.4896 -0.3135
10132TIP3    H251812   2.539   0.815   5.301 -0.1504 -0.5002 -2.1985
10133TIP3   OH251813   2.711   0.164  15.214  0.0457 -0.4383 -0.7844
10133TIP3    H151814   2.646   0.144  15.280  1.4770  0.8134  1.1086
10133TIP3    H251815   2.662   0.173  15.133 -1.9961 -0.3869  0.4049
10134TIP3   OH251816   0.726   4.260   2.299 -0.4185 -0.2288  0.1143
10134TIP3    H151817   0.705   4.192   2.362  0.9843  0.9551  1.9498
10134TIP3    H251818   0.820   4.254   2.286 -0.6775 -0.5829 -2.1331
10135TIP3   OH251819   5.001   1.735  11.799 -0.1048 -0.2246 -0.2373
10135TIP3    H151820   4.923   1.682  11.811 -0.5203  0.8103  2.2539
10135TIP3    H251821   4.968   1.818  11.764 -0.4582  0.8172  2.3339
10136TIP3   OH251822   3.272   4.321  14.750 -0.0077  0.0015  0.6967
10136TIP3    H151823   3.179   4.346  14.753 -0.3468 -0.5585 -2.3220
10136TIP3    H251824   3.317   4.399  14.718  0.3325 -0.2568  0.5375
10137TIP3   OH251825   4.839   4.400   6.058 -0.4315 -0.4946 -0.1097
10137TIP3    H151826   4.893   4.394   6.136  0.5952  0.9181 -0.6828
10137TIP3    H251827   4.852   4.489   6.026 -2.0660 -0.5449 -1.0175
10138TIP3   OH251828   1.212   4.171   5.776 -0.4390  0.1059 -0.3540
10138TIP3    H151829   1.298   4.203   5.803 -0.7489  1.3719 -0.8197
10138TIP3    H251830   1.172   4.140   5.857 -0.2228  1.1521  0.1716
10139TIP3   OH251831   4.613   6.762  15.603  0.4524  0.3217  0.0752
10139TIP3    H151832   4.552   6.689  15.593 -1.5419  1.9592 -0.2593
10139TIP3    H251833   4.677   6.749  15.532 -1.1815  0.1056 -1.4185
10140TIP3   OH251834   1.910   2.431  15.862  0.1237 -0.1230  0.3194
10140TIP3    H151835   1.912   2.429  15.766 -0.2665  0.6396  0.2904
10140TIP3    H251836   1.997   2.460  15.887  0.3553 -0.7117  0.2117
10141TIP3   OH251837   0.182   5.935   5.049  0.0621  0.3123  0.8499
10141TIP3    H151838   0.113   5.874   5.025  0.8296  0.3106 -1.7077
10141TIP3    H251839   0.140   6.021   5.052 -0.4181  0.0608  1.3203
10142TIP3   OH251840   6.582   0.201  15.901  0.0979 -0.3258 -0.0660
10142TIP3    H151841   6.499   0.167  15.868  0.4911 -1.8586  0.4093
10142TIP3    H251842   6.622   0.244  15.825 -1.2494  0.7178 -0.2135
10143TIP3   OH251843   3.744   3.055   4.090 -0.8176 -0.0724 -0.6246
10143TIP3    H151844   3.705   3.142   4.089 -1.7513 -0.4360  0.9186
10143TIP3    H251845   3.745   3.030   4.182 -0.8423 -1.8172 -1.0599
10144TIP3   OH251846   3.475   3.421   0.144  0.0263 -0.1190  0.2274
10144TIP3    H151847   3.460   3.487   0.211 -0.1066 -0.9042  0.9904
10144TIP3    H251848   3.389   3.408   0.103  0.1539  0.5198 -0.2605
10145TIP3   OH251849   2.640   3.178  10.813  0.3418 -0.7027  0.4742
10145TIP3    H151850   2.547   3.155  10.807 -0.1756  1.4736 -0.7409
10145TIP3    H251851   2.683   3.120  10.749 -0.2675 -1.2785  0.5788
10146TIP3   OH251852   4.445   5.795  14.166  0.5773 -0.6142 -0.2347
10146TIP3    H151853   4.510   5.779  14.235 -1.5645 -2.3195  1.5836
10146TIP3    H251854   4.383   5.857  14.205 -0.2064 -0.9217 -0.9428
10147TIP3   OH251855   1.909   1.605  16.068 -0.6438  0.1572  0.2024
10147TIP3    H151856   1.978   1.609  16.134 -0.7411 -0.9474  0.3874
10147TIP3    H251857   1.947   1.553  15.997 -1.3638 -0.7160  0.4279
10148TIP3   OH251858   4.782   5.502  13.911  0.4382 -0.0112 -0.0174
10148TIP3    H151859   4.739   5.484  13.995  3.1269 -0.4642  1.3787
10148TIP3    H251860   4.797   5.597  13.911 -0.9323  0.2250 -0.7396
10149TIP3   OH251861   2.183   0.525  13.569  0.2406 -0.2717  0.3341
10149TIP3    H151862   2.249   0.550  13.634 -0.7449  0.9825  0.9033
10149TIP3    H251863   2.109   0.492  13.621 -0.2094 -0.1347 -0.2047
10150TIP3   OH251864   2.233   3.778  12.095 -0.3670 -0.9336 -0.5504
10150TIP3    H151865   2.154   3.830  12.090  0.7228  1.0267  1.2093
10150TIP3    H251866   2.253   3.771  12.188  2.7813  0.7378 -0.9523
10151TIP3   OH251867   2.014   5.374  15.487  0.0351  0.0756 -0.4422
10151TIP3    H151868   2.074   5.299  15.490  0.6188  0.4666 -1.6709
10151TIP3    H251869   1.967   5.369  15.570 -0.2584 -1.9041 -0.6640
10152TIP3   OH251870   4.211   0.259  16.198  0.4452 -0.3234 -0.0639
10152TIP3    H151871   4.307   0.258  16.205  0.6289  1.1111 -1.7189
10152TIP3    H251872   4.190   0.348  16.170 -1.4324 -0.4991  0.6806
10153TIP3   OH251873   3.543   0.688  16.652  0.1349  0.1995 -0.2368
10153TIP3    H151874   3.542   0.598  16.619  0.0367  0.6362 -1.4811
10153TIP3    H251875   3.608   0.733  16.598 -0.8875  1.2266 -0.6591
10154TIP3   OH251876   5.123   5.676  16.110 -0.5053  0.1521  0.2539
10154TIP3    H151877   5.138   5.662  16.017  2.1841 -0.1826  0.6584
10154TIP3    H251878   5.108   5.589  16.147  0.9372 -0.0224  0.4758
10155TIP3   OH251879   2.998   3.848   2.439  0.1852  0.3088 -0.8250
10155TIP3    H151880   2.925   3.860   2.500  1.8258 -2.0559  1.9015
10155TIP3    H251881   2.975   3.770   2.389  0.8699 -0.6256  0.2548
10156TIP3   OH251882   3.395   0.800   5.448  0.1242  0.5205  0.0261
10156TIP3    H151883   3.416   0.835   5.534  0.9933  1.5543 -0.5688
10156TIP3    H251884   3.338   0.725   5.465  1.4980 -0.2416  1.5682
10157TIP3   OH251885   0.782   4.849  16.134 -0.0833 -0.0165  0.1407
10157TIP3    H151886   0.847   4.809  16.192  0.0381  0.4842  0.3550
10157TIP3    H251887   0.805   4.816  16.047  0.6580  0.3939  0.1693
10158TIP3   OH251888   5.439   5.589   5.630 -0.3870 -0.3233  0.1584
10158TIP3    H151889   5.381   5.549   5.695 -1.4368  0.4863 -0.2649
10158TIP3    H251890   5.413   5.680   5.627  2.2730  0.5934  1.4600
10159TIP3   OH251891   4.686   3.933  16.825 -0.0355  0.6617 -0.4258
10159TIP3    H151892   4.608   3.933  16.769  1.4690  2.0585 -2.7179
10159TIP3    H251893   4.665   3.995  16.895 -2.0299 -1.2386  0.8067
10160TIP3   OH251894   6.517   4.016  10.343 -0.0468  0.0231  0.2440
10160TIP3    H151895   6.445   3.954  10.339 -0.9009  0.9089  1.1653
10160TIP3    H251896   6.478   4.100  10.316  0.9686  0.2518 -0.5679
10161TIP3   OH251897   2.538   3.042  11.713 -0.2316  0.3454  0.0474
10161TIP3    H151898   2.632   3.041  11.731 -0.0215 -1.5054 -0.9412
10161TIP3    H251899   2.503   2.971  11.767 -1.1300  1.2090  0.6357
10162TIP3   OH251900   5.363   2.338  11.735  0.2320  0.5453 -0.0241
10162TIP3    H151901   5.324   2.425  11.722 -1.5054 -0.0745  0.6958
10162TIP3    H251902   5.292   2.277  11.716  2.2466 -0.9497 -3.6680
10163TIP3   OH251903   0.659   3.492   1.460  0.0018  0.4709  0.0918
10163TIP3    H151904   0.689   3.452   1.378  1.7943  0.8528  0.5206
10163TIP3    H251905   0.567   3.467   1.466  0.9463 -3.6714  0.3590
10164TIP3   OH251906   4.239   2.092   2.164 -0.4090 -0.1620 -0.3297
10164TIP3    H151907   4.188   2.173   2.153  1.3249  1.1085  0.4939
10164TIP3    H251908   4.261   2.090   2.257  0.1872 -1.2120 -0.4793
10165TIP3   OH251909   0.107   0.486   1.084 -0.1415 -0.4844 -0.0663
10165TIP3    H151910   0.110   0.397   1.050 -1.8247 -0.9801  0.9498
10165TIP3    H251911   0.106   0.542   1.006  0.0371 -1.3988 -0.7328
10166TIP3   OH251912   0.375   0.594  14.997  0.0379 -0.5430  0.1937
10166TIP3    H151913   0.392   0.657  15.067  0.9674 -1.1147  0.5116
10166TIP3    H251914   0.282   0.603  14.977 -0.2076 -0.2745  1.4169
10167TIP3   OH251915   4.976   4.893  15.469  0.3847  0.0026  0.4150
10167TIP3    H151916   5.015   4.806  15.480  1.9094  0.6210  0.1010
10167TIP3    H251917   5.027   4.935  15.401 -0.8541  0.8757 -0.0257
10168TIP3   OH251918   5.612   4.104   0.806  0.6766 -1.1052  0.4120
10168TIP3    H151919   5.542   4.161   0.773  2.2689  0.3417 -0.5964
10168TIP3    H251920   5.567   4.023   0.830 -1.6916  0.5371  1.9606
10169TIP3   OH251921   1.684   1.710   4.794  0.0204  0.8986  0.5995
10169TIP3    H151922   1.758   1.755   4.753  1.1794 -2.2942 -1.2350
10169TIP3    H251923   1.625   1.691   4.722  0.6128 -2.1975  0.7964
10170TIP3   OH251924   0.468   5.028   6.288 -0.4610  0.2968  0.1827
10170TIP3    H151925   0.545   5.051   6.340 -0.2009  0.0827 -0.1031
10170TIP3    H251926   0.451   4.936   6.309 -0.0804  0.0732 -0.4418
10171TIP3   OH251927   3.779   3.551  16.031  0.3052 -0.2425 -0.1063
10171TIP3    H151928   3.822   3.600  16.101  1.0188 -1.3057  0.2181
10171TIP3    H251929   3.811   3.591  15.951  0.5295  0.1127  0.1570
10172TIP3   OH251930   4.348   4.730   1.593 -0.0885  0.4587 -0.2906
10172TIP3    H151931   4.257   4.727   1.621 -0.8623 -0.9738 -2.6827
10172TIP3    H251932   4.350   4.794   1.523  0.4932 -0.2960 -0.9884
10173TIP3   OH251933   0.651   1.063  15.799  0.1664  0.1938  0.3549
10173TIP3    H151934   0.611   1.006  15.865  2.8805  0.0627  2.0496
10173TIP3    H251935   0.625   1.151  15.825  0.3003  0.0629  0.9683
10174TIP3   OH251936   3.455   0.348  17.127  0.2693 -0.1978  0.4551
10174TIP3    H151937   3.386   0.381  17.185  0.4276  1.0471 -0.0407
10174TIP3    H251938   3.488   0.270  17.172  0.4498  0.7697  2.1059
10175TIP3   OH251939   0.111   4.552  11.910 -0.2921  0.8451  0.9283
10175TIP3    H151940   0.206   4.546  11.921 -0.1389  1.4776  0.0430
10175TIP3    H251941   0.098   4.554  11.815 -1.2176  0.4522  1.0338
10176TIP3   OH251942   0.566   4.389  10.440 -0.0313  0.2761 -0.4061
10176TIP3    H151943   0.559   4.472  10.394  1.4599  0.4791 -0.2909
10176TIP3    H251944   0.613   4.331  10.380 -0.3193 -0.2354 -0.1536
10177TIP3   OH251945   4.942   0.336  17.193 -0.1504  0.0557  0.3389
10177TIP3    H151946   4.940   0.427  17.163 -1.5120  0.4933  1.5947
10177TIP3    H251947   4.938   0.342  17.289  1.0453 -1.3168  0.5164
10178TIP3   OH251948   1.696   1.057  16.730  0.0439 -0.4454 -0.1018
10178TIP3    H151949   1.702   1.068  16.825  1.6471 -0.9929 -0.1207
10178TIP3    H251950   1.765   0.994  16.709  0.8487  0.9605 -1.8561
10179TIP3   OH251951   3.381   4.058  12.377  0.1556  0.1324 -0.2213
10179TIP3    H151952   3.444   4.101  12.435  1.4951  0.0688 -1.5632
10179TIP3    H251953   3.303   4.114  12.381  0.0270 -0.1188  1.9362
10180TIP3   OH251954   4.357   4.605   0.410  0.0095 -0.1830  0.3219
10180TIP3    H151955   4.352   4.522   0.457  1.0086 -0.2973  0.2359
10180TIP3    H251956   4.434   4.597   0.353  1.3676  1.5310  1.7970
10181TIP3   OH251957   0.143   3.960   2.460 -0.0911  0.5583 -0.2851
10181TIP3    H151958   0.136   3.899   2.386 -1.1076 -0.2899  0.4805
10181TIP3    H251959   0.057   4.002   2.466 -0.2868  0.0410  0.8746
10182TIP3   OH251960   3.805   4.154  15.400  0.2103 -0.3743 -0.2757
10182TIP3    H151961   3.829   4.094  15.471 -1.1954 -0.7870 -0.1091
10182TIP3    H251962   3.713   4.134  15.382 -0.0827  1.2285 -0.7290
10183TIP3   OH251963   1.434   0.458   6.869  0.1317 -0.0507 -0.2746
10183TIP3    H151964   1.529   0.458   6.886  0.0918  0.6622 -0.0135
10183TIP3    H251965   1.419   0.536   6.816  0.1310 -1.8336 -3.0758
10184TIP3   OH251966   5.056   0.527  11.731  0.7597  0.4779 -0.0231
10184TIP3    H151967   5.042   0.448  11.783  1.1303 -0.6875 -1.6093
10184TIP3    H251968   5.122   0.576  11.780 -0.4211  0.4737  1.6565
10185TIP3   OH251969   4.513   5.545   3.981  0.1458 -0.6388  0.2020
10185TIP3    H151970   4.523   5.640   3.975  0.6589 -0.7746 -1.6277
10185TIP3    H251971   4.520   5.526   4.074 -2.5618  1.3752  0.9494
10186TIP3   OH251972   1.743   3.341  14.092  0.4365 -0.2399 -0.0187
10186TIP3    H151973   1.659   3.364  14.053  0.3764  0.5001  0.5385
10186TIP3    H251974   1.721   3.304  14.177  0.7931  3.7756  2.0125
10187TIP3   OH251975   4.328   3.889  13.803  0.4700 -0.0150  0.1509
10187TIP3    H151976   4.355   3.844  13.722  0.5654 -2.1266  1.2724
10187TIP3    H251977   4.253   3.837  13.834  2.0748 -0.9480  2.7722
10188TIP3   OH251978   2.318   2.721   1.599 -0.3153  0.5825 -0.1625
10188TIP3    H151979   2.223   2.727   1.604 -0.1821  3.0629  0.7026
10188TIP3    H251980   2.342   2.661   1.670 -1.1802  0.4472  0.0214
10189TIP3   OH251981   3.312   1.071  12.763  0.2931 -0.2665  0.1584
10189TIP3    H151982   3.226   1.087  12.725  0.3574  0.3323  0.2581
10189TIP3    H251983   3.361   1.152  12.748  0.7860 -0.5420  0.2458
10190TIP3   OH251984   1.886   0.329   2.342  0.0417  0.3046  0.5251
10190TIP3    H151985   1.833   0.252   2.320  1.4865 -0.1923 -1.4563
10190TIP3    H251986   1.828   0.383   2.396 -2.9802  0.4265 -2.5220
10191TIP3   OH251987   5.037   1.129  12.425  0.3287 -0.5717 -0.3119
10191TIP3    H151988   4.998   1.195  12.483  3.3052  1.0515  0.0354
10191TIP3    H251989   4.962   1.080  12.391 -1.9646  2.1182  0.4740
10192TIP3   OH251990   4.857   0.680  11.244  0.1859 -0.7291 -0.3274
10192TIP3    H151991   4.931   0.646  11.194  1.1701  1.2063 -0.2827
10192TIP3    H251992   4.879   0.659  11.335  0.6339 -0.2778 -0.3255
10193TIP3   OH251993   1.294   3.479  12.073  0.0123  0.1249 -0.6566
10193TIP3    H151994   1.227   3.530  12.118  1.8607  1.3925  0.7788
10193TIP3    H251995   1.283   3.502  11.980 -2.5888 -1.0354 -0.7268
10194TIP3   OH251996   6.273   2.342   3.915 -0.1032  0.0430  0.4689
10194TIP3    H151997   6.202   2.324   3.855  0.7139 -0.0442 -0.5022
10194TIP3    H251998   6.283   2.438   3.913  1.1062 -0.0787 -0.9791
10195TIP3   OH251999   4.223   6.285   1.999 -0.5013  0.3741  0.0493
10195TIP3    H152000   4.301   6.280   1.943 -2.8136  0.7877 -3.5514
10195TIP3    H252001   4.235   6.215   2.063  1.6678 -1.2996 -2.0029
10196TIP3   OH252002   2.584   2.648   0.175  0.1515 -0.2014  0.2175
10196TIP3    H152003   2.660   2.684   0.222  0.2585 -1.3006  0.9311
10196TIP3    H252004   2.598   2.673   0.084  1.0255  0.1943  0.4500
10197TIP3   OH252005   4.519   6.184   5.997 -0.1925  0.4757  0.4917
10197TIP3    H152006   4.614   6.175   5.985 -0.0180 -2.7666  2.9211
10197TIP3    H252007   4.509   6.256   6.059  0.7751  0.1940  0.9885
10198TIP3   OH252008   6.113   4.576  11.152 -0.0281 -0.0783  0.2172
10198TIP3    H152009   6.191   4.606  11.199 -0.3899  0.7524  0.3129
10198TIP3    H252010   6.050   4.555  11.221 -0.9111  2.0815  0.1770
10199TIP3   OH252011   3.776   1.241   3.835 -0.2500 -0.0014  0.4152
10199TIP3    H152012   3.709   1.246   3.904 -2.3168  0.5694 -1.5050
10199TIP3    H252013   3.802   1.332   3.821  1.4539 -0.2747  1.5633
10200TIP3   OH252014   1.908   3.134   6.706 -0.6073  0.0801  0.0038
10200TIP3    H152015   1.911   3.092   6.620  0.1976  0.9630 -0.4198
10200TIP3    H252016   1.896   3.227   6.686 -0.8561  0.2395  0.8732
10201TIP3   OH252017   0.729   4.805  14.213 -0.5454 -0.6596  0.1832
10201TIP3    H152018   0.757   4.897  14.211 -0.7518 -0.5101  2.1655
10201TIP3    H252019   0.705   4.786  14.122  1.2699  0.6608 -0.6368
10202TIP3   OH252020   1.768   3.112   2.002  0.5818 -0.2982 -0.4944
10202TIP3    H152021   1.863   3.126   2.009  0.5378 -0.3260  0.1922
10202TIP3    H252022   1.759   3.041   1.939  0.9158  1.0919 -2.2051
10203TIP3   OH252023   6.135   4.557   3.734  0.3407 -1.1340 -0.2491
10203TIP3    H152024   6.096   4.552   3.647  1.0025  2.6821 -0.9653
10203TIP3    H252025   6.221   4.517   3.725  0.6796 -0.1564 -1.6115
10204TIP3   OH252026   6.459   2.260  15.715 -0.3184 -0.0266 -0.4477
10204TIP3    H152027   6.365   2.279  15.718 -0.5179 -1.0315  0.3841
10204TIP3    H252028   6.489   2.302  15.634 -1.2412  1.3032 -0.1407
10205TIP3   OH252029   2.049   1.417  16.694  0.1631 -0.0910  0.5884
10205TIP3    H152030   2.143   1.399  16.691 -0.0342 -1.0619 -0.4715
10205TIP3    H252031   2.035   1.456  16.780  1.5511  0.1953  0.7124
10206TIP3   OH252032   0.843   4.181  13.428  0.0924 -0.4937  0.5329
10206TIP3    H152033   0.935   4.155  13.418 -0.3798 -1.5584 -1.9809
10206TIP3    H252034   0.817   4.208  13.340 -2.0192 -0.2715  1.1815
10207TIP3   OH252035   6.523   3.302  11.078 -0.4097  0.2440  0.3197
10207TIP3    H152036   6.549   3.393  11.092  0.5094  0.0489 -0.0833
10207TIP3    H252037   6.558   3.255  11.153 -1.1190  0.2572  0.6673
10208TIP3   OH252038   3.390   0.191  12.358  0.2912 -0.1374  0.0502
10208TIP3    H152039   3.467   0.244  12.340  0.8091 -1.2645 -1.2893
10208TIP3    H252040   3.316   0.243  12.325  0.7763 -0.1418 -1.1081
10209TIP3   OH252041   6.656   5.514  16.055  0.8525 -0.0158 -0.0966
10209TIP3    H152042   6.598   5.522  16.130  0.5737  0.3102 -0.3415
10209TIP3    H252043   6.597   5.514  15.979  1.0214 -1.6703 -0.2731
10210TIP3   OH252044   1.152   6.178   3.983  0.0157 -0.1832  0.4000
10210TIP3    H152045   1.189   6.266   3.984 -0.4430  0.0673 -1.3524
10210TIP3    H252046   1.063   6.189   4.015 -0.7003  0.3641 -1.6610
10211TIP3   OH252047   0.857   1.736   0.958 -0.4255 -0.0613  0.2522
10211TIP3    H152048   0.897   1.717   1.043  0.3892 -2.1021 -0.5429
10211TIP3    H252049   0.850   1.651   0.914 -0.6561  0.9571 -1.8119
10212TIP3   OH252050   5.273   0.467   5.155 -0.0798  0.2733  0.0615
10212TIP3    H152051   5.270   0.543   5.213  5.5442 -0.3163  1.7289
10212TIP3    H252052   5.312   0.499   5.074  2.3144 -0.6201  0.7666
10213TIP3   OH252053   4.856   3.396  13.035  0.3429 -0.0987 -0.0938
10213TIP3    H152054   4.858   3.473  12.979 -1.3185 -0.7144 -1.0856
10213TIP3    H252055   4.763   3.375  13.045  0.6814 -3.8568 -2.6306
10214TIP3   OH252056   6.161   3.486   3.663  0.2483  0.2544 -0.2217
10214TIP3    H152057   6.088   3.425   3.652  1.5521 -1.4527  0.1338
10214TIP3    H252058   6.212   3.450   3.735  1.3407  1.5042 -0.3330
10215TIP3   OH252059   4.382   6.288   1.082  0.2294 -0.1451 -0.3618
10215TIP3    H152060   4.348   6.200   1.069  0.5601 -0.2492 -0.5418
10215TIP3    H252061   4.470   6.286   1.043 -0.3822  0.7151 -1.8751
10216TIP3   OH252062   0.485   2.825  13.667 -0.5630  0.0920 -0.6614
10216TIP3    H152063   0.498   2.920  13.670 -1.4922  0.2112 -0.0599
10216TIP3    H252064   0.542   2.795  13.595 -0.5516  1.1453 -1.1078
10217TIP3   OH252065   5.821   3.331   5.231 -0.0964 -0.4428 -0.5305
10217TIP3    H152066   5.735   3.337   5.273 -1.2413  0.2976 -2.8389
10217TIP3    H252067   5.842   3.238   5.233 -0.5155 -0.5331  0.8111
10218TIP3   OH252068   1.817   3.704   5.802  0.3503  0.1225  0.2801
10218TIP3    H152069   1.854   3.616   5.794 -1.3178 -0.4590 -2.9473
10218TIP3    H252070   1.838   3.745   5.718 -2.9021  1.0844 -0.1806
10219TIP3   OH252071   2.916   1.341  12.623 -0.0674 -0.1225 -0.3157
10219TIP3    H152072   3.009   1.359  12.615  0.5657 -3.2519 -1.5967
10219TIP3    H252073   2.879   1.362  12.537  0.0047 -1.3805 -0.6692
10220TIP3   OH252074   0.204   5.847  10.371  0.3701  0.2367  0.0401
10220TIP3    H152075   0.153   5.843  10.290  1.8245  0.7298 -0.9353
10220TIP3    H252076   0.141   5.824  10.440 -1.6919  2.7041 -0.8444
10221TIP3   OH252077   1.054   3.158   0.521 -0.6629  0.1046  0.2972
10221TIP3    H152078   1.051   3.253   0.518 -2.5012  0.0587 -1.6596
10221TIP3    H252079   1.134   3.134   0.474 -2.1856  0.6845 -2.7825
10222TIP3   OH252080   2.307   0.367  15.744 -0.6299 -0.0029 -0.1648
10222TIP3    H152081   2.290   0.310  15.669 -1.9632  0.6390 -0.3839
10222TIP3    H252082   2.268   0.451  15.720  0.3959  0.7124  0.5709
10223TIP3   OH252083   5.470   6.236   6.065  0.5685  0.7547  0.1312
10223TIP3    H152084   5.434   6.310   6.115 -0.2789 -0.5918  1.6265
10223TIP3    H252085   5.474   6.267   5.975  1.1955  2.9497  0.8574
10224TIP3   OH252086   5.332   0.681   4.931  0.1971 -0.5952 -0.6246
10224TIP3    H152087   5.313   0.617   4.862  0.1019  0.2156 -1.3611
10224TIP3    H252088   5.258   0.741   4.930  1.1853  0.6765 -1.3058
10225TIP3   OH252089   1.581   5.301  16.987 -0.3129  0.3992  0.3874
10225TIP3    H152090   1.656   5.241  16.987 -0.5513  0.0975  0.2550
10225TIP3    H252091   1.551   5.302  16.896  0.2236  1.3977  0.2118
10226TIP3   OH252092   1.890   1.344  13.974 -0.0280 -0.3861 -0.6434
10226TIP3    H152093   1.883   1.393  14.056 -0.9065 -0.1222 -0.8667
10226TIP3    H252094   1.889   1.252  14.001 -2.6050 -0.3817 -0.4566
10227TIP3   OH252095   5.236   3.313  16.656 -0.2345 -0.1574  0.2563
10227TIP3    H152096   5.267   3.334  16.745 -0.9370  0.4842  0.3633
10227TIP3    H252097   5.141   3.303  16.666 -0.7195  2.4885 -0.8416
10228TIP3   OH252098   5.460   5.499  14.049 -0.0080  0.2295  0.1757
10228TIP3    H152099   5.381   5.547  14.026 -2.0303 -2.8067  0.2245
10228TIP3    H252100   5.447   5.472  14.140  1.5606  0.4903  0.5119
10229TIP3   OH252101   1.075   6.153  13.486 -0.2269 -0.3289  0.0477
10229TIP3    H152102   1.003   6.140  13.424 -1.1772  0.0231  1.0562
10229TIP3    H252103   1.151   6.114  13.442 -1.1199 -1.1626 -0.8228
10230TIP3   OH252104   5.455   6.382  12.687 -0.2860 -0.2666  0.6949
10230TIP3    H152105   5.374   6.425  12.714 -1.0070  0.0097 -1.6909
10230TIP3    H252106   5.445   6.368  12.593  3.0083  1.0497  0.0074
10231TIP3   OH252107   5.180   3.919   0.035 -0.2034 -0.1321  0.3783
10231TIP3    H152108   5.117   3.940   0.104  0.4253  1.9538  0.3955
10231TIP3    H252109   5.144   3.961  -0.044  0.7117  0.3228  0.1948
10232TIP3   OH252110   5.006   4.232   4.203 -0.0995  0.0506 -0.1783
10232TIP3    H152111   4.979   4.152   4.249 -0.5190  1.0938  1.4661
10232TIP3    H252112   5.045   4.200   4.122  0.8214 -1.8991  0.9427
10233TIP3   OH252113   2.977   1.576   3.349 -0.1013 -0.4380 -0.4484
10233TIP3    H152114   2.988   1.564   3.444 -0.5620 -0.7140 -0.4261
10233TIP3    H252115   2.925   1.656   3.341  0.6733  0.0694 -0.5035
10234TIP3   OH252116   4.491   1.081  11.289  0.0439  0.0954 -0.6019
10234TIP3    H152117   4.453   1.009  11.238 -1.0301  0.5227 -0.4293
10234TIP3    H252118   4.455   1.160  11.250  0.4288  0.4969 -0.1557
10235TIP3   OH252119   6.566   1.244  10.671  0.4443 -0.3207 -0.0432
10235TIP3    H152120   6.499   1.292  10.621  0.1419  1.0512  1.5867
10235TIP3    H252121   6.565   1.156  10.633 -1.7618 -0.1426 -0.5794
10236TIP3   OH252122   2.659   1.866  13.347  0.1123  0.4748 -0.4809
10236TIP3    H152123   2.749   1.871  13.377  0.1052 -0.8129 -0.1963
10236TIP3    H252124   2.608   1.913  13.413  0.1396 -1.9857  1.4163
10237TIP3   OH252125   4.655   0.845  14.580  0.6410 -0.4647 -0.0206
10237TIP3    H152126   4.700   0.930  14.578  1.6079 -0.9837 -1.6040
10237TIP3    H252127   4.575   0.862  14.630  0.4713  1.5522 -0.8870
10238TIP3   OH252128   5.706   5.360  12.415 -0.5094 -0.1767 -0.2267
10238TIP3    H152129   5.649   5.307  12.471  0.6822 -0.9332  0.3174
10238TIP3    H252130   5.647   5.397  12.349 -1.5428 -1.3063  0.0230
10239TIP3   OH252131   6.644   3.213  14.175  1.1458 -0.4604 -0.2184
10239TIP3    H152132   6.600   3.279  14.122 -1.6242 -0.3443  1.9869
10239TIP3    H252133   6.729   3.252  14.198  0.7114  1.1331 -1.2228
10240TIP3   OH252134   1.515   0.254  15.826  0.3356 -0.5362 -0.3475
10240TIP3    H152135   1.451   0.324  15.819 -1.5666 -2.0597  0.9512
10240TIP3    H252136   1.582   0.289  15.885 -1.5978 -0.4352  1.9297
10241TIP3   OH252137   3.894   3.723  16.190  0.5320 -0.0375 -0.1248
10241TIP3    H152138   3.872   3.793  16.128  1.5442  1.1579  0.8194
10241TIP3    H252139   3.988   3.735  16.206  0.6715 -1.4821  0.2459
10242TIP3   OH252140   2.869   2.319   3.686 -0.0038  0.0756  0.5849
10242TIP3    H152141   2.963   2.321   3.667 -0.0278  0.1940  0.4746
10242TIP3    H252142   2.861   2.270   3.768  0.2939  1.4787  1.4668
10243TIP3   OH252143   6.389   6.618  15.455  0.3174  0.5612 -0.1578
10243TIP3    H152144   6.298   6.645  15.471  0.3429  0.3242  0.4112
10243TIP3    H252145   6.420   6.588  15.540  0.9484  0.6858 -0.3405
10244TIP3   OH252146   3.583   2.887  11.799 -0.2877  0.2686 -0.1341
10244TIP3    H152147   3.590   2.894  11.895 -0.1300 -0.9244 -0.0484
10244TIP3    H252148   3.671   2.864  11.770 -0.5427 -0.2996 -0.4713
10245TIP3   OH252149   2.337   1.323   4.130 -0.3140  0.6311 -0.0405
10245TIP3    H152150   2.388   1.292   4.205  0.4125  2.1026  0.1135
10245TIP3    H252151   2.402   1.361   4.071 -0.9659  0.2068 -1.0613
10246TIP3   OH252152   6.344   6.547   3.413 -0.4213  0.2989 -0.1494
10246TIP3    H152153   6.383   6.467   3.377 -1.7038  0.0014 -0.9298
10246TIP3    H252154   6.406   6.616   3.389  1.2008 -0.5517  1.3763
10247TIP3   OH252155   1.383   1.002  15.615  1.0089 -0.4281  0.2609
10247TIP3    H152156   1.330   0.940  15.565  0.9373 -0.1495 -0.0183
10247TIP3    H252157   1.438   1.044  15.549  1.1537 -0.2973  0.4669
10248TIP3   OH252158   6.255   5.842  14.560  0.1759 -0.0882  0.2757
10248TIP3    H152159   6.260   5.937  14.573  1.8192 -0.2080  0.7760
10248TIP3    H252160   6.301   5.828  14.477 -1.2557 -0.3445 -0.5089
10249TIP3   OH252161   1.569   6.316  12.348 -0.3835  0.2720 -0.1196
10249TIP3    H152162   1.504   6.248  12.332  1.5149 -1.9642  0.9881
10249TIP3    H252163   1.640   6.296  12.286  0.6949  0.5431  0.9863
10250TIP3   OH252164   4.815   1.708  11.341  0.3258 -0.3443 -0.1968
10250TIP3    H152165   4.732   1.702  11.293 -0.6219  2.7979  0.8324
10250TIP3    H252166   4.881   1.722  11.274 -0.2323 -0.9301 -0.8907
10251TIP3   OH252167   1.656   4.398  15.289  0.4451  0.3677  0.1263
10251TIP3    H152168   1.596   4.459  15.332  0.8492 -0.5840  2.1601
10251TIP3    H252169   1.721   4.377  15.356  1.1332 -1.1965 -0.9641
10252TIP3   OH252170   0.057   0.002   4.747  0.4759 -0.0284  0.0940
10252TIP3    H152171  -0.033   0.035   4.748  0.6141  0.3439  1.1450
10252TIP3    H252172   0.084   0.004   4.839  1.3261 -0.7844 -0.1302
10253TIP3   OH252173   0.789   1.901  14.531 -0.3306  0.0030 -0.1495
10253TIP3    H152174   0.835   1.983  14.544 -1.0605  0.5547 -0.9106
10253TIP3    H252175   0.763   1.873  14.619  1.3238 -0.2691  0.2806
10254TIP3   OH252176   1.605   3.892  13.031  1.3680 -0.3966 -0.5099
10254TIP3    H152177   1.580   3.800  13.042 -1.5893  0.3356 -0.3957
10254TIP3    H252178   1.536   3.929  12.976  2.0640  1.9653  0.1111
10255TIP3   OH252179   2.873   2.484  16.603 -0.0284  0.1903 -0.4208
10255TIP3    H152180   2.804   2.521  16.660 -1.5559 -1.5186 -1.0713
10255TIP3    H252181   2.847   2.509  16.515 -0.1095 -0.8930 -0.7174
10256TIP3   OH252182   1.186   0.902  14.604  0.0171 -0.3132 -0.3329
10256TIP3    H152183   1.211   0.822  14.650 -1.1113 -1.1085 -1.0551
10256TIP3    H252184   1.136   0.871  14.529 -0.8749  1.0976 -0.3425
10257TIP3   OH252185   5.297   6.509  13.310  0.0929  0.5367  0.1588
10257TIP3    H152186   5.371   6.521  13.370  0.1413 -0.2203  0.2570
10257TIP3    H252187   5.338   6.489  13.226  0.0034  0.0976  0.2179
10258TIP3   OH252188   5.350   3.218   2.194 -0.2636 -0.1578 -0.2680
10258TIP3    H152189   5.445   3.222   2.204 -0.1071  1.6080 -1.8675
10258TIP3    H252190   5.337   3.189   2.104 -1.1853  1.3812 -0.6543
10259TIP3   OH252191   3.181   2.474  16.058  0.0792 -0.0322 -0.2565
10259TIP3    H152192   3.095   2.474  16.101 -0.4398 -2.0651 -1.1799
10259TIP3    H252193   3.197   2.565  16.035 -1.9417  0.3590 -0.2432
10260TIP3   OH252194   0.948   2.276  12.023  0.8710 -0.1871  0.4035
10260TIP3    H152195   1.004   2.344  11.988  0.3416  1.7003  2.9031
10260TIP3    H252196   0.971   2.271  12.116 -2.4328  0.1126  1.3868
10261TIP3   OH252197   0.043   3.246   1.118  0.7350 -0.6009  0.2290
10261TIP3    H152198   0.039   3.305   1.043  1.1349  0.1440  0.7729
10261TIP3    H252199   0.021   3.160   1.083 -0.7017  0.0093 -0.4283
10262TIP3   OH252200   2.322   6.153  13.505 -0.4408  0.4102  0.3515
10262TIP3    H152201   2.370   6.198  13.574 -0.1594  0.7380 -0.0567
10262TIP3    H252202   2.388   6.100  13.460  0.0849  2.6058 -1.6951
10263TIP3   OH252203   3.948   6.196   4.160  0.5365  0.7509 -0.6444
10263TIP3    H152204   3.988   6.166   4.242  2.4745  0.1261 -1.7628
10263TIP3    H252205   4.011   6.258   4.124 -1.3169  2.7485 -0.6304
10264TIP3   OH252206   3.718   0.779  16.425  0.1574 -0.0074  0.0357
10264TIP3    H152207   3.689   0.724  16.351  0.4422 -0.1739  0.0466
10264TIP3    H252208   3.808   0.751  16.441 -0.1608 -0.5222  0.9623
10265TIP3   OH252209   0.398   3.393   1.425  0.2241  0.5107 -0.3822
10265TIP3    H152210   0.327   3.443   1.464  0.8294  2.1146 -1.2280
10265TIP3    H252211   0.356   3.341   1.356 -0.3990 -0.0710  0.4304
10266TIP3   OH252212   1.182   4.741   0.409 -0.2203 -0.3683  0.6083
10266TIP3    H152213   1.093   4.743   0.443 -0.2074  4.1704  0.9617
10266TIP3    H252214   1.232   4.797   0.469  2.0284  0.0611 -1.4998
10267TIP3   OH252215   0.321   3.905   6.757 -0.4669  0.6214 -0.5683
10267TIP3    H152216   0.290   3.818   6.780  0.8196  0.4244  0.5297
10267TIP3    H252217   0.242   3.957   6.747 -1.1934 -0.2092  0.6794
10268TIP3   OH252218   1.751   5.862   2.433 -0.5155 -0.5419  0.9846
10268TIP3    H152219   1.831   5.815   2.409 -1.5770 -1.9231  0.0315
10268TIP3    H252220   1.712   5.809   2.502 -0.2649  0.5274  1.9872
10269TIP3   OH252221   5.261   1.453   2.110 -0.1920  0.0778  0.3133
10269TIP3    H152222   5.353   1.473   2.095 -0.5163  0.4080 -1.4517
10269TIP3    H252223   5.215   1.535   2.091 -0.9294 -0.3659  0.1508
10270TIP3   OH252224   4.965   6.696  13.745  0.4459 -0.0224  0.0223
10270TIP3    H152225   5.050   6.652  13.752 -0.3106 -1.6598 -0.5403
10270TIP3    H252226   4.987   6.787  13.729  2.0967 -0.3175  0.3924
10271TIP3   OH252227   5.339   1.295  10.586 -0.1694  0.5395  0.1529
10271TIP3    H152228   5.380   1.322  10.668  2.3295  0.4293 -0.9739
10271TIP3    H252229   5.317   1.377  10.542 -0.5781  0.6020  0.4613
10272TIP3   OH252230   0.303   5.057  12.302  1.0899 -0.5417  0.2118
10272TIP3    H152231   0.347   5.082  12.383  1.2382 -1.1254  0.3206
10272TIP3    H252232   0.342   4.973  12.278  0.3933 -0.8259  0.0347
10273TIP3   OH252233   2.929   2.770  13.381  0.9177 -0.4464 -0.4548
10273TIP3    H152234   2.989   2.696  13.367 -0.3321 -1.6425  0.2236
10273TIP3    H252235   2.976   2.829  13.439  0.7591 -2.3092  1.6949
10274TIP3   OH252236   6.575   2.022  12.399 -0.6188  0.2876  0.0928
10274TIP3    H152237   6.543   2.053  12.484  0.3455 -1.8729  1.3388
10274TIP3    H252238   6.506   1.963  12.368 -0.1004 -0.4982  0.3914
10275TIP3   OH252239   1.914   4.063   2.574  0.3378  0.4523 -0.3709
10275TIP3    H152240   1.955   4.109   2.647  0.4284 -1.7145  1.0529
10275TIP3    H252241   1.821   4.062   2.595  0.2573  0.5583 -0.7188
10276TIP3   OH252242   2.089   5.597  13.972  0.2826  0.0916 -0.0266
10276TIP3    H152243   2.043   5.516  13.993  3.2002 -2.1001 -1.3359
10276TIP3    H252244   2.021   5.664  13.970 -2.3251 -2.3386  0.8501
10277TIP3   OH252245   4.297   3.314  15.865  0.1430 -0.0529  0.5158
10277TIP3    H152246   4.329   3.325  15.775  1.0067  1.6062  0.9920
10277TIP3    H252247   4.376   3.307  15.918 -0.3455 -2.4140  1.0613
10278TIP3   OH252248   0.664   4.945   3.449  0.2866  0.1493  0.2363
10278TIP3    H152249   0.585   4.893   3.457 -0.1700  0.5765 -1.2644
10278TIP3    H252250   0.655   5.013   3.516 -0.1833 -0.3222  0.6596
10279TIP3   OH252251   2.733   2.541  14.026  1.2088 -0.2173  0.2529
10279TIP3    H152252   2.652   2.502  13.994 -0.1349  2.7780 -0.2844
10279TIP3    H252253   2.735   2.518  14.119 -0.4599 -0.0096  0.3642
10280TIP3   OH252254   2.511   1.266   0.808  0.4422  0.1293  0.1348
10280TIP3    H152255   2.599   1.259   0.845  0.4649  0.2021  0.0936
10280TIP3    H252256   2.505   1.356   0.775  0.1490  0.3135  0.6672
10281TIP3   OH252257   4.984   4.795   1.061 -0.2385  0.0365  0.1436
10281TIP3    H152258   4.901   4.753   1.037  0.4257 -1.2826  0.0489
10281TIP3    H252259   5.026   4.814   0.977 -0.8762  1.6575  0.1658
10282TIP3   OH252260   6.778   3.566  11.889 -0.5186  0.6474 -0.1069
10282TIP3    H152261   6.708   3.623  11.920  0.0712  1.0438  0.5430
10282TIP3    H252262   6.836   3.625  11.840 -0.7610  0.2780 -0.8433
10283TIP3   OH252263   1.720   4.432  10.818 -0.1411  0.2939  0.1115
10283TIP3    H152264   1.751   4.515  10.855  0.2993 -0.4415  1.4575
10283TIP3    H252265   1.793   4.402  10.763  0.0118  0.4155  0.2457
10284TIP3   OH252266   5.311   6.034  15.268 -0.5953  0.0495  0.2353
10284TIP3    H152267   5.307   6.108  15.328 -3.5525  0.7662 -0.6798
10284TIP3    H252268   5.368   5.970  15.312  2.2970  2.8638  0.9226
10285TIP3   OH252269   2.832   0.705   1.000 -0.0550 -0.0575 -0.2342
10285TIP3    H152270   2.801   0.711   0.910 -1.6462  0.1881  0.2975
10285TIP3    H252271   2.765   0.748   1.052  0.4651 -0.8298  1.1491
10286TIP3   OH252272   0.681   3.616  13.065 -0.0096  0.1176  0.1965
10286TIP3    H152273   0.626   3.687  13.098 -0.2000  0.2477 -0.3911
10286TIP3    H252274   0.667   3.545  13.127 -1.1729  0.0053 -0.1610
10287TIP3   OH252275   1.050   2.226   1.730  0.5353  0.6956  0.2938
10287TIP3    H152276   0.983   2.166   1.762  2.2401 -1.7565 -0.4899
10287TIP3    H252277   1.018   2.313   1.756 -1.8406 -0.5228  1.8309
10288TIP3   OH252278   4.869   0.313  16.488  0.6555  0.0730 -0.0620
10288TIP3    H152279   4.919   0.268  16.556  2.5415  2.9783  0.6514
10288TIP3    H252280   4.794   0.350  16.534 -0.1085 -1.0431 -0.3672
10289TIP3   OH252281   1.117   4.234   4.821  0.0592 -0.0277  0.7595
10289TIP3    H152282   1.151   4.148   4.795  0.0193 -0.0767  0.8701
10289TIP3    H252283   1.035   4.243   4.772  0.3910  0.2306  0.2455
10290TIP3   OH252284   1.769   0.252   6.571  0.0568 -0.2322  0.0935
10290TIP3    H152285   1.707   0.263   6.642 -0.1654  0.0419 -0.1398
10290TIP3    H252286   1.808   0.166   6.586 -2.0416 -1.4568 -1.0470
10291TIP3   OH252287   1.904   1.809   4.628 -0.0810  0.5970 -0.3642
10291TIP3    H152288   1.870   1.822   4.540  2.8442  1.5097 -1.5066
10291TIP3    H252289   1.951   1.890   4.648 -1.5316  0.8737  2.5489
10292TIP3   OH252290   1.434   2.052  12.585  0.5445 -0.4397 -0.7223
10292TIP3    H152291   1.396   2.133  12.620  0.5557  0.0728 -1.8488
10292TIP3    H252292   1.507   2.082  12.531  1.1318 -1.2779 -0.4095
10293TIP3   OH252293   4.697   4.346  11.589  0.1039  0.0100  0.1341
10293TIP3    H152294   4.639   4.416  11.561  0.5316  0.3003 -0.0311
10293TIP3    H252295   4.642   4.267  11.587 -0.0735  0.1482 -0.7780
10294TIP3   OH252296   2.783   1.658   0.680 -0.3966 -0.1149  0.2721
10294TIP3    H152297   2.794   1.753   0.671  0.2336 -0.2117 -0.0260
10294TIP3    H252298   2.824   1.637   0.764  0.1234 -0.2212 -0.0022
10295TIP3   OH252299   2.584   3.228   4.571 -0.3066  0.2093 -0.4053
10295TIP3    H152300   2.516   3.222   4.504 -0.9694 -1.5745  0.3847
10295TIP3    H252301   2.663   3.251   4.522 -1.2738  1.5105 -1.4418
10296TIP3   OH252302   5.475   1.503   0.127  0.3020 -0.0586 -0.1586
10296TIP3    H152303   5.529   1.579   0.104  0.3193 -0.7167 -2.5582
10296TIP3    H252304   5.414   1.494   0.053 -1.3542 -0.9232  1.2396
10297TIP3   OH252305   4.363   2.579  11.318 -0.2065 -0.1431  0.2793
10297TIP3    H152306   4.278   2.621  11.309  0.1109  0.3560 -0.5487
10297TIP3    H252307   4.385   2.550  11.230  1.0278  0.8580  0.2215
10298TIP3   OH252308   1.636   4.636   3.685 -0.3065  0.0526  0.1432
10298TIP3    H152309   1.713   4.633   3.742 -0.0954  0.9501 -0.0791
10298TIP3    H252310   1.561   4.634   3.744 -0.0854  1.5610  0.4987
10299TIP3   OH252311   0.889   3.728  14.440  0.4712  0.0970 -0.4097
10299TIP3    H152312   0.848   3.813  14.429  2.5119  0.9847 -1.7111
10299TIP3    H252313   0.951   3.721  14.367  1.5475 -1.7873  0.5879
10300TIP3   OH252314   4.378   4.200   1.514 -0.6765  0.4775 -0.1000
10300TIP3    H152315   4.439   4.139   1.556 -2.3999 -1.6814 -0.5279
10300TIP3    H252316   4.421   4.285   1.519  2.2393 -0.8948 -0.1999
10301TIP3   OH252317   3.461   0.035  16.960  0.2685 -0.2830  0.5517
10301TIP3    H152318   3.464   0.095  17.034  0.1319 -0.6917  0.8926
10301TIP3    H252319   3.427   0.088  16.888 -1.8329 -0.4462  1.3567
10302TIP3   OH252320   5.987   1.493   4.320  0.1393 -0.1318 -0.0660
10302TIP3    H152321   5.997   1.428   4.250  1.5875 -0.3844  0.3345
10302TIP3    H252322   5.896   1.484   4.349  0.5330 -2.7338  0.6629
10303TIP3   OH252323   2.927   6.672   5.953 -0.5044 -0.1404  0.0723
10303TIP3    H152324   2.981   6.750   5.936  1.5259 -1.0779  1.7227
10303TIP3    H252325   2.845   6.689   5.907  0.6797  1.9897 -1.4435
10304TIP3   OH252326   6.180   2.754   3.889  0.0177  0.4643 -0.5866
10304TIP3    H152327   6.120   2.734   3.817 -0.9227 -0.0128  0.2979
10304TIP3    H252328   6.180   2.850   3.894  1.3540  0.5876 -2.2270
10305TIP3   OH252329   5.020   0.878   1.638 -0.2535 -0.7087  0.8724
10305TIP3    H152330   4.959   0.951   1.632  2.4567  1.5984 -0.7684
10305TIP3    H252331   5.035   0.851   1.547  1.4375 -0.9366  1.1849
10306TIP3   OH252332   5.084   5.463   1.244  0.1716  0.3963 -0.2304
10306TIP3    H152333   5.122   5.470   1.332  1.1612  1.3636 -0.7140
10306TIP3    H252334   5.114   5.542   1.199 -0.8145  0.2024 -1.2592
10307TIP3   OH252335   0.869   3.239  16.443  0.1185  0.1838 -0.0284
10307TIP3    H152336   0.861   3.219  16.536  1.2051  0.3156  0.1065
10307TIP3    H252337   0.959   3.215  16.421  0.1114  0.8645 -0.8698
10308TIP3   OH252338   2.531   4.934   5.532  0.4366 -0.2497  0.1696
10308TIP3    H152339   2.502   4.850   5.496  0.7999  0.3399 -1.5870
10308TIP3    H252340   2.465   4.997   5.502  0.5505  0.2059  0.8622
10309TIP3   OH252341   0.418   6.645  14.141 -0.1189  0.7711 -0.0847
10309TIP3    H152342   0.391   6.721  14.193 -0.4183 -0.0940  1.0771
10309TIP3    H252343   0.497   6.614  14.186 -0.0996  0.2950 -0.4478
10310TIP3   OH252344   2.522   1.153  14.535  0.0789 -0.3220  0.1654
10310TIP3    H152345   2.436   1.160  14.576 -0.3823 -0.0386 -0.8113
10310TIP3    H252346   2.569   1.090  14.589 -0.6755 -0.3415  0.8242
10311TIP3   OH252347   0.806   5.060  14.287 -0.8016 -0.7463 -0.5681
10311TIP3    H152348   0.864   5.049  14.363 -2.5400 -0.2064  0.9068
10311TIP3    H252349   0.856   5.116  14.227  0.3990 -0.7030  0.4251
10312TIP3   OH252350   5.268   4.762   2.609 -0.0387  0.5138 -0.2438
10312TIP3    H152351   5.217   4.840   2.587 -0.4766  0.4954  0.6393
10312TIP3    H252352   5.343   4.765   2.550 -2.9364 -1.6305 -4.5373
10313TIP3   OH252353   1.343   2.091  10.454  0.1623  0.1309 -0.1364
10313TIP3    H152354   1.432   2.119  10.435  0.1324 -0.1267 -0.6752
10313TIP3    H252355   1.288   2.167  10.435  0.1976  0.0731 -0.4643
10314TIP3   OH252356   1.569   4.854  11.948 -0.0449 -0.9412  0.1370
10314TIP3    H152357   1.658   4.826  11.929  0.4881  0.5461  0.3899
10314TIP3    H252358   1.542   4.800  12.022  1.0407 -0.6389  0.7654
10315TIP3   OH252359   0.038   1.727   0.229 -0.9108 -0.4939  0.5009
10315TIP3    H152360   0.113   1.718   0.169 -1.1458 -1.9964  0.3950
10315TIP3    H252361   0.028   1.821   0.241 -1.2566 -0.0715 -2.3548
10316TIP3   OH252362   3.423   0.467  16.307 -0.1422  0.0229 -0.1283
10316TIP3    H152363   3.456   0.416  16.232 -2.4544  1.2868 -2.1618
10316TIP3    H252364   3.495   0.527  16.328  0.8873 -0.9429 -0.7294
10317TIP3   OH252365   5.793   0.226   3.293 -0.0128  0.5921 -0.3361
10317TIP3    H152366   5.805   0.229   3.388  2.4672  0.4261 -0.5757
10317TIP3    H252367   5.793   0.318   3.266 -1.8815  0.6916 -0.1011
10318TIP3   OH252368   5.102   3.048  14.597  0.4298 -0.6295  0.2204
10318TIP3    H152369   5.097   3.141  14.575  0.6284 -0.4440  0.9607
10318TIP3    H252370   5.189   3.021  14.568  0.0434 -0.8165 -0.8388
10319TIP3   OH252371   5.329   5.083   5.759  0.0868 -0.5287  0.2341
10319TIP3    H152372   5.344   5.026   5.834  1.4569 -0.0216  0.3774
10319TIP3    H252373   5.299   5.165   5.797  0.5541 -0.3489  0.2283
10320TIP3   OH252374   3.203   3.569  12.392 -0.0178  0.3946  0.6959
10320TIP3    H152375   3.231   3.649  12.436  0.5385 -0.4445  1.9226
10320TIP3    H252376   3.234   3.498  12.449  0.8244 -0.7569 -1.1024
10321TIP3   OH252377   5.101   4.701   2.054 -0.2081 -0.7396 -0.1219
10321TIP3    H152378   5.029   4.667   2.107 -1.1562  0.9225 -0.2635
10321TIP3    H252379   5.091   4.657   1.969 -1.2439 -0.3441 -0.2289
10322TIP3   OH252380   2.768   3.594  16.412 -0.1986  0.4439  0.0170
10322TIP3    H152381   2.711   3.651  16.465  1.7250  0.4104  2.3342
10322TIP3    H252382   2.844   3.649  16.392  0.4974 -0.5076 -0.0137
10323TIP3   OH252383   3.419   2.194  13.739 -0.2556 -0.3366 -0.4127
10323TIP3    H152384   3.411   2.110  13.693 -1.8840  0.4829 -1.7201
10323TIP3    H252385   3.338   2.240  13.719  0.8626  1.8136 -0.2107
10324TIP3   OH252386   1.522   6.769  15.117 -0.6976  0.4112  0.0853
10324TIP3    H152387   1.481   6.686  15.142  0.7464 -0.5207 -0.5180
10324TIP3    H252388   1.453   6.835  15.131 -1.0454 -0.4718  3.2176
10325TIP3   OH252389   2.603   5.395   3.751  0.8620 -0.4853 -0.1394
10325TIP3    H152390   2.624   5.302   3.755 -0.4950 -0.9148 -1.7042
10325TIP3    H252391   2.511   5.400   3.779  0.4214  0.1270 -1.5964
10326TIP3   OH252392   2.002   4.985   3.628 -0.1480  0.4527  0.1015
10326TIP3    H152393   1.988   4.927   3.553 -1.9366  1.3245 -0.3048
10326TIP3    H252394   2.023   5.070   3.589  3.8328 -0.0831  0.6856
10327TIP3   OH252395   2.653   5.460   3.076  0.2909  0.1651  0.2928
10327TIP3    H152396   2.732   5.406   3.080  0.3591  0.2346 -0.1022
10327TIP3    H252397   2.678   5.535   3.022  0.0058  0.2777  0.3164
10328TIP3   OH252398   5.413   2.322   3.405  0.1182  0.8724 -0.4592
10328TIP3    H152399   5.459   2.307   3.488 -1.9212 -1.6640  0.3500
10328TIP3    H252400   5.348   2.252   3.401 -0.4037  1.3912 -3.8582
10329TIP3   OH252401   6.061   3.833   5.744  0.6380 -0.5133  0.0744
10329TIP3    H152402   6.037   3.773   5.815  0.3298 -0.0760  0.3491
10329TIP3    H252403   6.123   3.894   5.784 -1.7083  1.5577  0.8468
10330TIP3   OH252404   0.082   1.050  17.018  0.5242 -0.1617  0.4102
10330TIP3    H152405   0.064   1.135  17.059 -0.7395 -0.1126 -0.2112
10330TIP3    H252406   0.156   1.067  16.960  1.6003  0.0293  1.7810
10331TIP3   OH252407   4.168   2.951  11.156  0.6439 -0.7321 -0.7293
10331TIP3    H152408   4.097   2.940  11.092  0.2616  1.0072 -0.6699
10331TIP3    H252409   4.162   2.874  11.213 -0.8534 -0.8965 -1.0682
10332TIP3   OH252410   6.111   3.159  11.699  0.4018 -0.5687  0.3810
10332TIP3    H152411   6.164   3.212  11.640 -0.0447 -1.2238 -0.6389
10332TIP3    H252412   6.169   3.140  11.773  1.5113 -1.0582 -0.5866
10333TIP3   OH252413   3.104   4.943   5.177  0.2614 -0.9908 -0.1602
10333TIP3    H152414   3.186   4.898   5.194  0.3908 -0.9054 -0.5507
10333TIP3    H252415   3.089   4.995   5.256  1.2356 -0.0274 -0.5867
10334TIP3   OH252416   0.355   2.682   4.235 -0.0609 -0.1111  0.4606
10334TIP3    H152417   0.357   2.750   4.302 -0.8993 -1.6030  2.0834
10334TIP3    H252418   0.445   2.678   4.202 -0.6343  4.5033 -2.7311
10335TIP3   OH252419   2.301   5.361  14.892 -0.6621  0.4884 -0.0014
10335TIP3    H152420   2.334   5.334  14.807 -1.3819  1.7613 -0.7113
10335TIP3    H252421   2.231   5.298  14.913 -0.1648 -0.1060 -0.1160
10336TIP3   OH252422   3.519   2.327   3.907  0.4265 -0.2019  0.1846
10336TIP3    H152423   3.450   2.287   3.854 -1.6262  2.2294  0.8264
10336TIP3    H252424   3.486   2.326   3.996  1.4159  0.6181  0.5931
10337TIP3   OH252425   1.980   2.246  11.585  0.2983 -0.2549  0.3038
10337TIP3    H152426   2.006   2.312  11.520 -1.4561  1.0186  0.8350
10337TIP3    H252427   1.964   2.167  11.533  1.3632  0.0221 -0.4818
10338TIP3   OH252428   2.523   0.583   0.898  0.1530  0.2004  0.0987
10338TIP3    H152429   2.514   0.488   0.895 -1.2269  0.3198 -0.0695
10338TIP3    H252430   2.599   0.601   0.842  1.4332 -0.8977  1.3997
10339TIP3   OH252431   3.192   0.381  15.804 -0.6016 -0.4292  0.1363
10339TIP3    H152432   3.125   0.449  15.793 -0.8223 -0.4260  1.3442
10339TIP3    H252433   3.227   0.396  15.892  0.8217 -0.5938 -0.3887
10340TIP3   OH252434   6.382   2.845   0.063 -0.2198  0.7540 -0.4358
10340TIP3    H152435   6.324   2.809  -0.005 -0.4880  0.4654 -0.0569
10340TIP3    H252436   6.325   2.856   0.140  0.2059  0.5660 -0.0944
10341TIP3   OH252437   3.680   0.633  12.714  0.1826 -0.2517 -0.5063
10341TIP3    H152438   3.721   0.702  12.766  1.4525 -0.8458 -0.6881
10341TIP3    H252439   3.615   0.594  12.773  1.9691 -1.2807  0.8856
10342TIP3   OH252440   5.802   1.451   0.731  0.5592  0.1425 -0.3365
10342TIP3    H152441   5.866   1.391   0.694  1.2378  0.8476 -0.3441
10342TIP3    H252442   5.719   1.403   0.729  1.0266 -0.6690 -0.6170
10343TIP3   OH252443   6.187   4.425  15.200 -0.6692 -0.2335 -0.0284
10343TIP3    H152444   6.200   4.365  15.127 -0.9411  0.2523 -0.4866
10343TIP3    H252445   6.250   4.396  15.266 -0.2157 -0.5069 -0.5669
10344TIP3   OH252446   2.582   6.563  14.316 -0.2163  0.5468  0.0825
10344TIP3    H152447   2.494   6.600  14.323 -0.1728  0.6717 -0.0229
10344TIP3    H252448   2.581   6.516  14.232 -1.0317 -1.7260  1.2938
10345TIP3   OH252449   2.064   4.149  12.210  0.4599  0.6505 -0.0404
10345TIP3    H152450   2.082   4.229  12.160 -1.3428  0.7749 -0.5522
10345TIP3    H252451   1.990   4.108  12.164 -1.2094  0.6917  2.4352
10346TIP3   OH252452   2.986   3.764   4.011  0.0166 -0.3196 -0.4009
10346TIP3    H152453   2.931   3.725   3.944 -0.2093 -0.2972 -0.2310
10346TIP3    H252454   3.016   3.689   4.064 -1.3750 -0.1850  0.6462
10347TIP3   OH252455   3.182   0.842   5.288  0.1100  0.1986 -0.1712
10347TIP3    H152456   3.160   0.934   5.278  1.1901  0.4170 -0.6698
10347TIP3    H252457   3.258   0.841   5.346 -0.8263 -0.4962  1.0924
10348TIP3   OH252458   4.596   4.099   4.869 -0.0502  0.0582  0.6261
10348TIP3    H152459   4.567   4.127   4.955  3.6358  2.2670  1.3497
10348TIP3    H252460   4.611   4.180   4.821  2.6171 -0.8928 -0.3319
10349TIP3   OH252461   5.989   4.462  12.622 -0.0671 -1.0555  0.3808
10349TIP3    H152462   6.018   4.544  12.661 -2.5061 -0.7249  1.6285
10349TIP3    H252463   5.901   4.480  12.590  0.8296 -2.0522 -3.1212
10350TIP3   OH252464   5.959   0.392  12.376 -0.6801 -0.4258  0.1837
10350TIP3    H152465   5.910   0.415  12.297  0.6066 -1.3700 -0.9362
10350TIP3    H252466   6.021   0.324  12.347 -1.7644 -2.5426  2.5141
10351TIP3   OH252467   3.904   5.995  12.927  0.5067 -0.1157  0.0776
10351TIP3    H152468   3.925   6.088  12.938 -0.0081  0.1494 -1.0443
10351TIP3    H252469   3.823   5.995  12.876  1.0051 -1.1906 -0.7458
10352TIP3   OH252470   0.266   0.381   5.062  0.0506  0.7819 -0.2662
10352TIP3    H152471   0.239   0.398   5.152  0.2203 -0.6767  0.0777
10352TIP3    H252472   0.184   0.364   5.015 -0.0896  2.0526 -0.5407
10353TIP3   OH252473   5.938   3.588   4.636  0.2183  0.2843  0.2794
10353TIP3    H152474   5.987   3.653   4.686  1.2653  0.2246 -0.6398
10353TIP3    H252475   5.893   3.638   4.568 -2.3975  0.5704  2.0591
10354TIP3   OH252476   6.198   2.784  17.060  0.1524  0.1038 -1.0739
10354TIP3    H152477   6.137   2.857  17.069 -1.2645 -1.1647  0.0562
10354TIP3    H252478   6.224   2.786  16.967 -0.2053  1.7308 -1.1672
10355TIP3   OH252479   5.239   4.586  14.308 -0.9809 -0.2491  0.0447
10355TIP3    H152480   5.181   4.509  14.303 -0.6799 -0.4417 -0.5687
10355TIP3    H252481   5.273   4.584  14.398 -2.6489  0.4101  0.7381
10356TIP3   OH252482   1.584   6.685   0.799  0.3394  0.0846  0.6646
10356TIP3    H152483   1.584   6.637   0.716  0.2535  0.3880  0.4870
10356TIP3    H252484   1.491   6.697   0.819  0.3599  0.3367  0.6125
10357TIP3   OH252485   3.475   0.882   2.360 -0.3657 -0.1408 -0.0661
10357TIP3    H152486   3.535   0.886   2.435 -1.2388  1.5328  0.5724
10357TIP3    H252487   3.422   0.804   2.377 -0.0304 -0.2298  0.6326
10358TIP3   OH252488   2.315   5.423  16.816  0.2977  0.1849  0.5685
10358TIP3    H152489   2.321   5.333  16.785 -0.7163  0.7510 -1.4938
10358TIP3    H252490   2.406   5.449  16.832  0.8477 -0.4826 -1.1946
10359TIP3   OH252491   0.940   5.763  15.916  0.3838 -0.0718  0.1004
10359TIP3    H152492   0.874   5.820  15.958 -0.9102 -0.6414 -1.0759
10359TIP3    H252493   1.002   5.824  15.876 -0.2487  0.5012 -0.0319
10360TIP3   OH252494   6.215   5.164  11.489 -0.5981 -0.6053 -0.3105
10360TIP3    H152495   6.218   5.228  11.560 -2.2487  0.5125 -1.1811
10360TIP3    H252496   6.304   5.130  11.484  0.0691  0.8299  0.8988
10361TIP3   OH252497   2.390   4.002   3.886 -0.3026 -0.0716  0.3920
10361TIP3    H152498   2.436   4.071   3.838  0.4725 -1.1631 -0.5008
10361TIP3    H252499   2.456   3.933   3.896 -1.4068 -1.1979  0.1213
10362TIP3   OH252500   0.787   3.442  16.898  0.1416  0.0632  0.2258
10362TIP3    H152501   0.815   3.481  16.980  1.3236 -2.2945  1.0444
10362TIP3    H252502   0.866   3.442  16.843 -0.6466  1.6715 -0.9846
10363TIP3   OH252503   3.587   3.469   6.637  0.1292  0.1445 -0.7011
10363TIP3    H152504   3.678   3.468   6.668  0.5125 -0.3392 -1.7921
10363TIP3    H252505   3.568   3.562   6.622 -0.6142  0.6145  2.3870
10364TIP3   OH252506   1.449   0.763  11.225 -0.4863 -0.3775 -0.0560
10364TIP3    H152507   1.466   0.826  11.295 -0.6419  0.9091 -1.1379
10364TIP3    H252508   1.392   0.809  11.164 -0.4722 -1.5186 -0.9741
10365TIP3   OH252509   5.778   6.760   0.238 -0.1757 -0.6756  0.8802
10365TIP3    H152510   5.813   6.741   0.325 -0.2666 -1.2448  0.7930
10365TIP3    H252511   5.738   6.847   0.248  0.5311 -0.3750  1.1870
10366TIP3   OH252512   5.752   3.351   3.833  0.1101 -0.7609 -0.2594
10366TIP3    H152513   5.758   3.256   3.836  2.8352 -0.6426  1.3527
10366TIP3    H252514   5.833   3.382   3.873 -0.3619  2.2682 -1.3287
10367TIP3   OH252515   4.334   5.698   3.607 -0.4284  0.4987 -0.1145
10367TIP3    H152516   4.326   5.603   3.614 -0.0514  0.4729  0.0299
10367TIP3    H252517   4.389   5.723   3.682 -0.4417  0.8156 -0.2077
10368TIP3   OH252518   1.470   1.352   5.051  0.0036  0.1019 -0.3397
10368TIP3    H152519   1.562   1.323   5.058  0.3209  1.4212  2.4073
10368TIP3    H252520   1.475   1.448   5.052 -1.4120  0.2067  1.1438
10369TIP3   OH252521   1.691   5.241  12.770  0.5120 -0.0249  0.1055
10369TIP3    H152522   1.609   5.279  12.740  0.5234 -0.2503 -0.2160
10369TIP3    H252523   1.738   5.314  12.810  0.6836  0.3905 -0.8138
10370TIP3   OH252524   1.839   3.733  15.692 -0.6092 -0.5834  0.4023
10370TIP3    H152525   1.806   3.821  15.671 -0.0676 -0.5852 -0.5038
10370TIP3    H252526   1.884   3.744  15.776 -0.1510  0.1071  0.0718
10371TIP3   OH252527   4.283   6.063   2.217  0.3863 -0.9189 -0.0942
10371TIP3    H152528   4.372   6.089   2.237 -0.1593 -0.1668  1.6032
10371TIP3    H252529   4.268   5.985   2.270 -0.0504 -0.8670 -0.1302
10372TIP3   OH252530   4.997   6.499   0.798 -0.1550  0.3527  0.4928
10372TIP3    H152531   5.017   6.579   0.749 -2.0740  1.9389  2.1142
10372TIP3    H252532   5.061   6.497   0.869  0.8354 -0.4157 -0.3865
10373TIP3   OH252533   6.707   2.317  15.858  0.0029  0.3196 -0.2641
10373TIP3    H152534   6.644   2.353  15.795 -0.2113 -2.7344 -2.0384
10373TIP3    H252535   6.653   2.278  15.927 -0.0962 -1.1692 -1.1279
10374TIP3   OH252536   5.294   5.906   1.051  0.0144  0.0069  0.0627
10374TIP3    H152537   5.295   5.982   1.110 -0.4861  0.6935 -0.7823
10374TIP3    H252538   5.241   5.935   0.977  1.3224 -0.5211 -1.1211
10375TIP3   OH252539   3.468   0.769  12.290 -0.4228  0.1564 -0.7868
10375TIP3    H152540   3.466   0.745  12.197 -0.1748  2.4513 -1.4561
10375TIP3    H252541   3.376   0.779  12.315 -0.5144 -0.9694 -0.5946
10376TIP3   OH252542   0.627   2.648   3.907 -0.7021 -0.7679  0.0629
10376TIP3    H152543   0.650   2.687   3.992  0.1001 -0.6624 -0.1945
10376TIP3    H252544   0.707   2.606   3.877 -1.0751 -1.0984 -0.4933
10377TIP3   OH252545   6.249   2.058  12.922  0.4870  0.0868  1.3063
10377TIP3    H152546   6.218   2.103  13.000 -1.0082 -0.3247  0.9773
10377TIP3    H252547   6.189   2.086  12.853  2.7151  1.7030 -0.1116
10378TIP3   OH252548   2.798   2.573   2.264 -0.0389 -0.8263  0.0901
10378TIP3    H152549   2.890   2.594   2.248  0.3028 -1.9709  0.4337
10378TIP3    H252550   2.756   2.658   2.275  0.8379 -0.2574 -0.7730
10379TIP3   OH252551   0.359   1.774   1.814 -0.5009 -0.4302  0.6622
10379TIP3    H152552   0.344   1.863   1.847 -1.2887 -0.2921 -0.0438
10379TIP3    H252553   0.371   1.785   1.720  0.4987 -0.9585  0.7135
10380TIP3   OH252554   1.650   0.763   6.028  0.4007 -0.1370 -0.1986
10380TIP3    H152555   1.674   0.743   6.119 -1.6309 -1.0914  0.1708
10380TIP3    H252556   1.715   0.717   5.975  0.4593 -1.1991  0.7661
10381TIP3   OH252557   6.038   6.418  11.524 -0.5233  0.3396 -0.1986
10381TIP3    H152558   6.078   6.346  11.476 -0.4673 -0.0581  0.4297
10381TIP3    H252559   6.083   6.418  11.609  0.4619  1.9798 -0.6621
10382TIP3   OH252560   0.594   6.594   1.585 -0.0962  0.5090  0.1227
10382TIP3    H152561   0.530   6.636   1.643 -0.8992 -0.4717 -0.0225
10382TIP3    H252562   0.670   6.579   1.641 -0.3612  0.7906  0.5701
10383TIP3   OH252563   2.095   0.723  14.738  0.3828 -0.2947 -0.2661
10383TIP3    H152564   2.009   0.729  14.697  0.7427  0.0024 -1.0088
10383TIP3    H252565   2.112   0.629  14.746 -0.4881 -0.3676  0.9415
10384TIP3   OH252566   2.928   5.089   1.229 -0.3685 -0.3952 -0.1458
10384TIP3    H152567   2.908   5.180   1.208 -0.3960 -0.6756 -1.4299
10384TIP3    H252568   3.023   5.086   1.236 -0.4121 -0.1273  0.6443
10385TIP3   OH252569   4.348   2.771   5.805  0.0415 -0.1584 -0.2080
10385TIP3    H152570   4.280   2.733   5.860 -1.1493 -1.6303 -2.5462
10385TIP3    H252571   4.377   2.698   5.750 -0.2456  1.6274 -2.8636
10386TIP3   OH252572   4.273   5.079  11.634  0.9411 -0.8328 -0.4925
10386TIP3    H152573   4.319   5.039  11.707 -0.1342 -1.2789 -0.0329
10386TIP3    H252574   4.306   5.169  11.630  1.1326 -0.8545  0.4403
10387TIP3   OH252575   0.811   3.149   0.662 -0.3100  0.0245  0.0518
10387TIP3    H152576   0.799   3.244   0.661 -2.2404 -0.1776 -1.8675
10387TIP3    H252577   0.894   3.135   0.616  0.4920  0.7835  1.2069
10388TIP3   OH252578   0.130   4.870  13.793 -0.4092 -0.2660  0.0206
10388TIP3    H152579   0.112   4.822  13.712 -0.0915 -0.8801  0.3093
10388TIP3    H252580   0.184   4.944  13.766  0.0981 -0.7353 -0.2640
10389TIP3   OH252581   3.068   2.308   5.781 -0.0302  0.4443  0.1782
10389TIP3    H152582   3.042   2.264   5.861 -1.4637  1.5127  0.3393
10389TIP3    H252583   2.995   2.293   5.720 -0.5823  2.5229  0.2401
10390TIP3   OH252584   3.606   1.561   4.899 -0.0392  0.3368 -0.2637
10390TIP3    H152585   3.634   1.594   4.985  0.1196  0.1047 -0.2268
10390TIP3    H252586   3.633   1.470   4.898 -1.6486 -0.1647  0.1338
10391TIP3   OH252587   0.024   0.447   6.201 -0.1849 -0.3989  0.0823
10391TIP3    H152588   0.009   0.367   6.251  1.8890 -0.9935 -0.1319
10391TIP3    H252589   0.049   0.513   6.266  0.4525 -0.6039  0.0565
10392TIP3   OH252590   6.583   0.229  11.907  0.3935  1.0902  0.1054
10392TIP3    H152591   6.597   0.139  11.876 -1.1536  1.2903 -1.3360
10392TIP3    H252592   6.631   0.284  11.845  1.1537  1.2993  0.8564
10393TIP3   OH252593   0.546   0.588  15.746  0.1659  0.0793  0.0247
10393TIP3    H152594   0.588   0.508  15.716  0.7337  0.2262  0.4010
10393TIP3    H252595   0.541   0.643  15.667 -1.0475 -0.6476 -0.4393
10394TIP3   OH252596   2.458   0.474   1.651  0.0859  0.2819 -0.2310
10394TIP3    H152597   2.524   0.543   1.645  0.3704 -0.0595 -1.2792
10394TIP3    H252598   2.438   0.452   1.560 -0.8321 -0.2294  0.0858
10395TIP3   OH252599   6.797   4.825   1.241 -0.5137 -0.3985 -0.3296
10395TIP3    H152600   6.759   4.742   1.271  0.2360 -0.7680 -0.3728
10395TIP3    H252601   6.823   4.809   1.151 -1.6259  0.3269 -0.7910
10396TIP3   OH252602   6.736   0.048   0.858 -0.3267 -0.0283 -0.0047
10396TIP3    H152603   6.660   0.061   0.914  0.9373 -2.8639  2.6748
10396TIP3    H252604   6.709  -0.018   0.794 -0.7783  0.7367 -0.6174
10397TIP3   OH252605   0.764   4.667   1.401  0.4900  0.3852 -0.1039
10397TIP3    H152606   0.686   4.632   1.358  2.0146 -0.4699 -2.3945
10397TIP3    H252607   0.828   4.596   1.396  2.6233  2.2586 -1.8460
10398TIP3   OH252608   6.514   6.160  11.730  0.5912 -0.4880 -0.2062
10398TIP3    H152609   6.547   6.207  11.807 -0.4255 -0.2388  0.0872
10398TIP3    H252610   6.504   6.069  11.760 -1.2058 -0.1240  0.4391
10399TIP3   OH252611   5.967   1.739  14.459 -0.3580  0.0994 -0.3540
10399TIP3    H152612   5.906   1.804  14.424 -0.5699  0.8267  1.2815
10399TIP3    H252613   5.911   1.667  14.489 -0.4093  0.5442  0.6750
10400TIP3   OH252614   1.166   1.466   3.501  0.5003 -0.6830 -0.0780
10400TIP3    H152615   1.112   1.402   3.454 -0.1923  0.4159 -0.8046
10400TIP3    H252616   1.218   1.413   3.561 -1.7078 -1.7919  0.9936
10401TIP3   OH252617   3.352   0.985  15.960 -0.4234  0.2312 -0.1627
10401TIP3    H152618   3.261   1.004  15.983 -0.9674 -1.1973 -0.9881
10401TIP3    H252619   3.355   0.992  15.864  0.5992  1.2498 -0.0799
10402TIP3   OH252620   4.660   4.517  12.890 -1.2458 -0.1313 -0.4276
10402TIP3    H152621   4.627   4.580  12.955  0.2811  0.3796 -0.1116
10402TIP3    H252622   4.682   4.571  12.814 -2.2977 -0.6316 -1.1016
10403TIP3   OH252623   4.921   6.713   2.967 -0.2897  0.0347  0.0419
10403TIP3    H152624   4.957   6.799   2.990  0.2112  0.2865 -1.5771
10403TIP3    H252625   4.956   6.654   3.034 -0.8298  1.1111  1.3155
10404TIP3   OH252626   3.327   2.323  15.844 -0.0170 -0.3207  0.0982
10404TIP3    H152627   3.281   2.340  15.926  1.3757  1.2871  0.6108
10404TIP3    H252628   3.293   2.388  15.783 -1.3212 -1.7527 -0.7672
10405TIP3   OH252629   4.322   4.598  13.257  0.1420  0.5645 -0.0543
10405TIP3    H152630   4.229   4.615  13.240  0.2927  0.1356 -1.4962
10405TIP3    H252631   4.324   4.510  13.295 -0.0476  0.5921  0.0194
10406TIP3   OH252632   4.488   5.502  13.391 -0.1077 -0.3794  0.1246
10406TIP3    H152633   4.550   5.508  13.464 -0.7421  0.8398  0.5892
10406TIP3    H252634   4.403   5.526  13.429 -0.8571 -1.8652 -0.5369
10407TIP3   OH252635   4.332   6.286  16.832  0.6341 -0.6667 -0.1415
10407TIP3    H152636   4.424   6.304  16.852  0.5483 -1.8075  1.4913
10407TIP3    H252637   4.283   6.337  16.897  0.2346 -2.0503  0.6957
10408TIP3   OH252638   0.595   6.377  12.655  1.0957  0.1762  0.3262
10408TIP3    H152639   0.517   6.432  12.653  0.5847 -0.5180 -2.1094
10408TIP3    H252640   0.656   6.424  12.712 -0.3315  1.8029  0.5976
10409TIP3   OH252641   2.687   4.633  15.085  0.0371  0.2990  0.0646
10409TIP3    H152642   2.733   4.681  15.016 -0.9264  1.2925  0.0931
10409TIP3    H252643   2.596   4.660  15.077 -0.2823 -0.4176  1.0324
10410TIP3   OH252644   0.323   5.837   1.243 -0.1490  0.8043  0.6655
10410TIP3    H152645   0.309   5.932   1.238 -0.5619  0.7708  1.1214
10410TIP3    H252646   0.285   5.804   1.162 -0.3371  0.9904  0.6768
10411TIP3   OH252647   2.086   2.194   1.121  0.3243 -0.3702 -0.2588
10411TIP3    H152648   2.127   2.113   1.152  1.7602  0.9120  1.4365
10411TIP3    H252649   2.155   2.238   1.072 -0.0673  0.3736 -0.1440
10412TIP3   OH252650   5.160   0.863   5.438  0.1496 -0.6513  0.3109
10412TIP3    H152651   5.192   0.821   5.517  0.5335 -2.8164 -0.9273
10412TIP3    H252652   5.092   0.923   5.468  0.4223 -1.2819  2.2827
10413TIP3   OH252653   1.572   3.161  12.504 -0.0416 -0.1150 -0.3434
10413TIP3    H152654   1.523   3.081  12.487  1.0273 -1.0177  0.6295
10413TIP3    H252655   1.609   3.185  12.419  1.3284 -1.8551 -0.2974
10414TIP3   OH252656   3.426   0.959  13.342 -0.1282  0.8572  0.1455
10414TIP3    H152657   3.363   1.019  13.380  0.1669  0.7202  0.8771
10414TIP3    H252658   3.380   0.876  13.335  0.4221  0.3061  2.2446
10415TIP3   OH252659   0.924   6.239   5.699 -0.2932 -0.4065 -0.0739
10415TIP3    H152660   0.910   6.261   5.607 -1.4749  1.2216  0.4547
10415TIP3    H252661   1.019   6.236   5.709 -0.1519  0.2694 -1.1472
10416TIP3   OH252662   6.340   1.182  11.848  0.0400 -0.3546  0.4713
10416TIP3    H152663   6.266   1.240  11.866  0.7103  0.7500 -0.1947
10416TIP3    H252664   6.334   1.165  11.754 -1.0539 -2.6951  0.8918
10417TIP3   OH252665   0.091   0.009  10.801  0.6417 -0.3344 -0.0080
10417TIP3    H152666   0.095  -0.081  10.769  1.0713 -1.3107  2.5262
10417TIP3    H252667   0.069   0.001  10.893 -0.2448  2.2469  0.0888
10418TIP3   OH252668   3.288   6.748  10.292  0.3704  0.8434 -0.2361
10418TIP3    H152669   3.307   6.760  10.385 -1.1277  0.3083  0.1702
10418TIP3    H252670   3.208   6.798  10.277  0.0468  0.1282 -0.9961
10419TIP3   OH252671   3.281   6.376   0.001  0.3354 -0.3737 -0.4227
10419TIP3    H152672   3.227   6.302  -0.027 -0.7612  0.0987  0.3592
10419TIP3    H252673   3.261   6.445  -0.062 -0.2814 -0.0782  0.0870
10420TIP3   OH252674   4.244   0.510   1.918 -0.3120 -0.3260  0.2707
10420TIP3    H152675   4.300   0.438   1.946  0.2721  0.1736  0.3976
10420TIP3    H252676   4.160   0.469   1.898  0.6730 -1.4184 -1.9910
10421TIP3   OH252677   2.556   3.573   5.566  0.3649  0.3453 -0.6212
10421TIP3    H152678   2.473   3.582   5.519 -0.4511  0.0258  0.7120
10421TIP3    H252679   2.617   3.629   5.518 -0.9235  1.5059 -0.9588
10422TIP3   OH252680   1.691   3.139  12.966 -0.1245 -0.0069  0.2008
10422TIP3    H152681   1.767   3.190  12.993 -1.1270  0.8607  1.5618
10422TIP3    H252682   1.647   3.117  13.048 -1.5764 -0.0847 -0.5594
10423TIP3   OH252683   6.478   4.736  16.784  0.1266 -0.0176  0.1943
10423TIP3    H152684   6.464   4.757  16.876 -1.0817 -1.0494  0.2826
10423TIP3    H252685   6.573   4.739  16.772  0.2965  0.0864  1.4777
10424TIP3   OH252686   2.434   5.136   1.946  0.3349  0.2146 -0.1790
10424TIP3    H152687   2.489   5.061   1.965 -0.8634 -1.0288 -1.3662
10424TIP3    H252688   2.383   5.150   2.025 -0.0837 -0.8245 -0.2557
10425TIP3   OH252689   5.502   0.302   5.669 -0.3184  0.3395 -0.5480
10425TIP3    H152690   5.434   0.238   5.647  0.6999 -0.8077 -0.4793
10425TIP3    H252691   5.462   0.356   5.738 -1.6254  0.5780 -1.4494
10426TIP3   OH252692   4.241   5.847  14.338 -0.6060  0.0821  0.0651
10426TIP3    H152693   4.161   5.823  14.386 -0.5361 -1.5298 -0.5439
10426TIP3    H252694   4.296   5.890  14.402 -1.6768  0.5594  0.6854
10427TIP3   OH252695   1.258   6.362  14.003 -0.1330  0.0699  0.2378
10427TIP3    H152696   1.278   6.269  13.992 -0.8671 -0.0931  0.1698
10427TIP3    H252697   1.205   6.366  14.083  1.5864  0.7045  1.4012
10428TIP3   OH252698   2.308   1.247  14.358 -0.5200 -1.0387  0.4636
10428TIP3    H152699   2.362   1.294  14.422  2.9058 -0.8548 -2.2818
10428TIP3    H252700   2.323   1.155  14.376  0.1835 -0.9899  0.1469
10429TIP3   OH252701   4.224   5.095  16.324  0.7775 -0.1438 -0.7995
10429TIP3    H152702   4.310   5.104  16.282  2.6133  0.9883  2.7603
10429TIP3    H252703   4.194   5.185  16.336  1.1390 -0.2843  1.6175
10430TIP3   OH252704   5.519   5.531   2.477  1.2106  0.1941  0.6958
10430TIP3    H152705   5.471   5.551   2.396  1.1317  2.1789  1.1712
10430TIP3    H252706   5.592   5.476   2.449 -0.1052 -1.0861 -0.3625
10431TIP3   OH252707   3.274   0.555   1.843  0.4930 -0.1768 -0.3663
10431TIP3    H152708   3.295   0.608   1.766 -0.6255  1.4650  0.4043
10431TIP3    H252709   3.351   0.564   1.899  0.5940  0.0907 -0.5418
10432TIP3   OH252710   5.164   3.137  11.602 -0.0730  0.3461 -0.2968
10432TIP3    H152711   5.132   3.082  11.530 -0.5210  2.2349 -1.6091
10432TIP3    H252712   5.209   3.209  11.559  1.6980  0.3279  1.4161
10433TIP3   OH252713   6.692   2.105   4.085  0.6073 -0.5979 -0.6135
10433TIP3    H152714   6.766   2.166   4.083  0.6121 -0.6048 -0.6459
10433TIP3    H252715   6.647   2.124   4.167  0.1996 -0.0653 -0.9551
10434TIP3   OH252716   0.311   4.558   5.091  0.1330  0.5339  0.5382
10434TIP3    H152717   0.335   4.650   5.090 -0.9971  0.9174 -2.5367
10434TIP3    H252718   0.222   4.557   5.126 -0.2437  0.7996 -0.3628
10435TIP3   OH252719   2.317   5.185   1.389  0.1206  0.0153  0.1019
10435TIP3    H152720   2.402   5.163   1.350 -0.7037 -2.6734 -0.4161
10435TIP3    H252721   2.329   5.170   1.483  0.9256  2.3469  0.4250
10436TIP3   OH252722   3.787   1.283  16.624 -0.3665  0.5627 -0.5789
10436TIP3    H152723   3.816   1.227  16.552  0.1480  0.4326 -0.2766
10436TIP3    H252724   3.838   1.253  16.700  1.7955  2.9848 -0.9007
10437TIP3   OH252725   5.999   0.787  12.247 -0.3419  0.7008  0.0319
10437TIP3    H152726   5.918   0.750  12.213 -0.4257  2.5261 -1.9395
10437TIP3    H252727   6.024   0.854  12.184  2.0666  1.0515  1.2200
10438TIP3   OH252728   6.129   2.930  14.834 -0.5531 -0.2626  0.5396
10438TIP3    H152729   6.058   2.869  14.812 -0.6049  0.1457 -0.4864
10438TIP3    H252730   6.084   3.008  14.866 -0.6090  0.1537 -0.5053
10439TIP3   OH252731   3.753   0.898  13.151 -0.6982 -0.4651  0.1541
10439TIP3    H152732   3.735   0.865  13.063  1.1627  0.4055 -0.6006
10439TIP3    H252733   3.740   0.992  13.145  3.2699  0.2126 -0.3780
10440TIP3   OH252734   6.299   2.368   5.900 -0.4258  0.6261 -0.0575
10440TIP3    H152735   6.279   2.310   5.827  2.1602 -0.9645  0.3473
10440TIP3    H252736   6.313   2.454   5.860  1.3078 -0.2771 -1.5882
10441TIP3   OH252737   0.300   2.157  11.889  0.1887 -0.3254  0.1806
10441TIP3    H152738   0.322   2.124  11.976 -0.2119 -0.4667  0.2300
10441TIP3    H252739   0.267   2.080  11.842 -1.9955  0.2155  0.7043
10442TIP3   OH252740   1.359   5.684   1.785  0.0746  0.2364 -0.0040
10442TIP3    H152741   1.368   5.726   1.870  1.6797 -1.6341  0.8326
10442TIP3    H252742   1.323   5.597   1.806 -0.1826  0.0057 -1.3266
10443TIP3   OH252743   2.002   5.339   4.817  0.1503  0.1061 -0.1160
10443TIP3    H152744   2.047   5.288   4.885 -0.6362 -2.5593 -1.4461
10443TIP3    H252745   2.055   5.326   4.739 -0.2492  1.1200 -0.5695
10444TIP3   OH252746   2.718   1.534   1.151 -0.3772 -0.3075  0.6543
10444TIP3    H152747   2.646   1.477   1.180  0.1449 -1.1412  0.3369
10444TIP3    H252748   2.780   1.533   1.224  0.2211 -1.1771  0.1514
10445TIP3   OH252749   1.119   5.841   4.366 -0.2909 -0.4426  0.7929
10445TIP3    H152750   1.108   5.861   4.273 -0.6368 -0.4141  0.8407
10445TIP3    H252751   1.031   5.843   4.403 -0.1293 -0.1784  1.1790
10446TIP3   OH252752   4.767   3.737  16.521 -0.0070  0.0984  0.4171
10446TIP3    H152753   4.777   3.829  16.546 -0.3198 -0.1568  1.5291
10446TIP3    H252754   4.853   3.698  16.536  0.5023  0.4609 -1.2886
10447TIP3   OH252755   0.516   4.262   4.091 -0.1327  0.0458 -0.3945
10447TIP3    H152756   0.579   4.261   4.018 -0.2262  1.0671 -0.4978
10447TIP3    H252757   0.520   4.351   4.126 -0.7744 -0.1680  0.2588
10448TIP3   OH252758   0.800   6.785  12.351  0.0335 -0.1347 -0.3902
10448TIP3    H152759   0.887   6.818  12.375  0.3327 -1.1604  0.0004
10448TIP3    H252760   0.806   6.768  12.257  1.4254 -3.4025  0.1555
10449TIP3   OH252761   4.677   4.724  14.583  0.1202 -0.6508  0.4093
10449TIP3    H152762   4.718   4.662  14.523  0.8351  0.1510  0.0368
10449TIP3    H252763   4.590   4.689  14.598 -0.1811 -0.7550 -1.3113
10450TIP3   OH252764   3.927   1.490  14.190 -0.0039  0.5228 -0.2040
10450TIP3    H152765   4.013   1.531  14.195 -0.6664  1.9772  0.1385
10450TIP3    H252766   3.873   1.554  14.144 -1.0396 -0.0856  0.1251
10451TIP3   OH252767   5.882   3.640  15.981 -0.5249 -0.5980  0.3057
10451TIP3    H152768   5.838   3.600  16.055 -0.3094 -1.8379 -0.2134
10451TIP3    H252769   5.935   3.570  15.943  0.5667  0.4113 -0.1055
10452TIP3   OH252770   0.814   1.429   5.093  0.2854 -0.8254 -0.3882
10452TIP3    H152771   0.729   1.467   5.116 -1.1049 -2.4156 -2.4177
10452TIP3    H252772   0.832   1.366   5.163 -0.4150 -0.7478 -0.1292
10453TIP3   OH252773   4.867   6.587  12.985 -0.5016 -0.7297 -0.0275
10453TIP3    H152774   4.834   6.610  12.898 -0.4851 -0.6104 -0.0032
10453TIP3    H252775   4.833   6.656  13.042  1.3744  0.5194 -0.3159
10454TIP3   OH252776   6.107   1.156  14.420 -0.5974 -0.2687 -0.0491
10454TIP3    H152777   6.103   1.114  14.506  0.0145 -0.2291  0.0043
10454TIP3    H252778   6.126   1.083  14.360  0.9606 -0.0168  0.1046
10455TIP3   OH252779   3.384   1.248  12.175 -1.0210  0.3727  0.2410
10455TIP3    H152780   3.351   1.185  12.239  0.3783  0.7491  1.3800
10455TIP3    H252781   3.423   1.194  12.106  0.0084 -0.0375  1.1175
10456TIP3   OH252782   4.958   5.742   0.721  0.3984 -0.2785 -0.0553
10456TIP3    H152783   4.871   5.777   0.741  0.7914 -0.1292  1.5961
10456TIP3    H252784   5.003   5.815   0.678 -0.3745 -0.4708 -1.2495
10457TIP3   OH252785   6.326   5.208  14.168 -0.1894  0.2954  0.0768
10457TIP3    H152786   6.392   5.270  14.136 -0.6446  1.1507  0.7443
10457TIP3    H252787   6.354   5.123  14.134  1.4713  0.5799  0.6646
10458TIP3   OH252788   0.953   6.161  15.152 -0.3649 -0.3488  0.5058
10458TIP3    H152789   0.923   6.117  15.232 -1.0012  0.5996  0.8067
10458TIP3    H252790   1.039   6.198  15.176 -0.6346  0.0878  0.8177
10459TIP3   OH252791   6.314   1.229  11.570  0.1363 -1.0034 -0.8569
10459TIP3    H152792   6.367   1.307  11.551  0.0641 -0.9272 -0.7479
10459TIP3    H252793   6.251   1.225  11.498 -0.4056 -0.4780 -0.4258
10460TIP3   OH252794   6.347   6.699  11.018  0.0031 -0.4521  0.6533
10460TIP3    H152795   6.300   6.759  11.076  0.4775 -1.0149  1.6391
10460TIP3    H252796   6.423   6.748  10.989 -0.4924  0.0030  0.1008
10461TIP3   OH252797   2.816   1.213   5.029  0.3857  0.3233 -0.6673
10461TIP3    H152798   2.821   1.118   5.024  0.7451  0.3493 -0.8525
10461TIP3    H252799   2.873   1.236   5.102  1.9808  0.5339 -1.9275
10462TIP3   OH252800   4.183   1.292   2.291 -0.4267 -0.1109  0.0907
10462TIP3    H152801   4.196   1.378   2.251 -1.4293  0.3587  0.7339
10462TIP3    H252802   4.271   1.266   2.321  0.6459 -1.0673 -3.4319
10463TIP3   OH252803   5.868   3.355   3.253 -0.1681 -0.2160  0.1728
10463TIP3    H152804   5.887   3.263   3.272  0.0669 -0.8410 -2.6108
10463TIP3    H252805   5.893   3.366   3.161  0.5864  2.8798  0.6567
10464TIP3   OH252806   6.522   3.660   4.283 -0.0096 -0.5229  0.3007
10464TIP3    H152807   6.506   3.750   4.256  4.7532  0.7722  0.7925
10464TIP3    H252808   6.469   3.607   4.224 -0.8253  2.5348 -1.9473
10465TIP3   OH252809   5.093   6.632   3.775 -0.9168 -0.1591 -0.2285
10465TIP3    H152810   5.077   6.718   3.736  1.0252 -0.2644 -1.3848
10465TIP3    H252811   5.100   6.649   3.869 -0.8098  0.9044 -0.4195
10466TIP3   OH252812   2.292   0.036   0.922  0.2991  0.2761  0.0375
10466TIP3    H152813   2.340  -0.041   0.891  0.7799  0.4843  0.2606
10466TIP3    H252814   2.293   0.097   0.849  0.2549  0.2264 -0.0047
10467TIP3   OH252815   3.517   2.804  14.499  0.6907 -0.1967 -0.1860
10467TIP3    H152816   3.563   2.731  14.539 -0.3163 -1.5313 -1.3516
10467TIP3    H252817   3.437   2.765  14.463  0.4024  1.3646 -1.3451
10468TIP3   OH252818   3.710   2.018  14.899  0.3699  0.3164  0.3946
10468TIP3    H152819   3.656   2.071  14.840 -0.1635  0.4785  1.0301
10468TIP3    H252820   3.673   1.929  14.891  0.3572  0.3195  0.4206
10469TIP3   OH252821   5.266   2.160   5.867 -0.0688 -0.5479  0.4069
10469TIP3    H152822   5.175   2.133   5.853 -0.4930  0.7267  0.5147
10469TIP3    H252823   5.269   2.250   5.835  0.6110  0.1759  2.3400
10470TIP3   OH252824   3.901   4.117   2.749 -0.2958  0.6848 -0.4641
10470TIP3    H152825   3.818   4.160   2.727 -0.7139  0.3291  0.3634
10470TIP3    H252826   3.963   4.150   2.685 -1.3782 -0.0346 -1.9554
10471TIP3   OH252827   6.691   2.838   0.497 -0.0424  0.6821 -0.2349
10471TIP3    H152828   6.626   2.788   0.450 -1.8831  2.2590  0.4826
10471TIP3    H252829   6.675   2.818   0.590  0.5165  1.0680 -0.0435
10472TIP3   OH252830   1.088   2.842   1.024 -0.8839 -0.6464 -0.0637
10472TIP3    H152831   1.036   2.861   1.102  1.9277  0.8400  1.6321
10472TIP3    H252832   1.083   2.922   0.972  1.0305  0.2380  1.0096
10473TIP3   OH252833   2.846   3.156   4.154 -0.0814 -0.2121 -0.1156
10473TIP3    H152834   2.883   3.114   4.077 -0.5084 -2.5418  0.8542
10473TIP3    H252835   2.809   3.238   4.122  1.9306  0.0878 -1.8906
10474TIP3   OH252836   2.096   6.170   0.076  0.3889  0.0572 -0.0316
10474TIP3    H152837   2.118   6.200   0.164  2.0193  1.1025 -0.7432
10474TIP3    H252838   2.053   6.085   0.089 -1.6158  1.2601  1.8837
10475TIP3   OH252839   0.848   6.265   1.352  0.5575  0.5458  0.0946
10475TIP3    H152840   0.935   6.296   1.327  0.5050  0.6981  0.1051
10475TIP3    H252841   0.864   6.204   1.424  0.7923 -0.5071 -0.8022
10476TIP3   OH252842   3.601   5.803  16.344  0.5919 -0.2839 -0.3043
10476TIP3    H152843   3.632   5.739  16.409  1.7138  0.2913 -0.2449
10476TIP3    H252844   3.626   5.887  16.381 -1.4631  0.2781 -0.0551
10477TIP3   OH252845   2.131   5.119  11.859  0.5602  0.0926 -0.6773
10477TIP3    H152846   2.195   5.050  11.879 -0.6249 -0.9786 -0.4767
10477TIP3    H252847   2.106   5.153  11.945 -0.1534 -0.4484 -0.6625
10478TIP3   OH252848   4.358   5.691   1.779  0.2513 -0.2047  0.0410
10478TIP3    H152849   4.444   5.653   1.797  0.0074 -0.6761  0.2359
10478TIP3    H252850   4.362   5.719   1.687  0.2810 -1.1574 -0.2641
10479TIP3   OH252851   1.473   4.105   3.221 -0.0257 -0.1537 -0.2767
10479TIP3    H152852   1.530   4.140   3.289 -0.1334 -2.1067  0.8955
10479TIP3    H252853   1.395   4.075   3.268 -0.8392 -0.0189 -1.4963
10480TIP3   OH252854   5.213   1.323  12.322 -0.0932  0.0611 -0.0160
10480TIP3    H152855   5.170   1.250  12.365 -1.6460  0.2292 -1.1917
10480TIP3    H252856   5.146   1.392  12.318 -0.2726 -0.1396 -3.1242
10481TIP3   OH252857   5.789   2.288   5.687 -0.0330 -0.4455  0.5862
10481TIP3    H152858   5.758   2.267   5.775  1.5537 -1.1887  1.0104
10481TIP3    H252859   5.767   2.211   5.635 -0.4671 -0.2355  0.4508
10482TIP3   OH252860   6.660   6.708   2.232 -0.1599  0.6441  0.1857
10482TIP3    H152861   6.751   6.712   2.262 -0.0038  2.3858 -0.4186
10482TIP3    H252862   6.627   6.797   2.244 -1.1874  0.5182 -1.4311
10483TIP3   OH252863   2.576   0.690   0.388 -0.0037  0.3169 -0.0131
10483TIP3    H152864   2.500   0.638   0.414 -1.3123  1.7473 -0.8037
10483TIP3    H252865   2.638   0.626   0.351 -2.0348 -0.5978 -2.0696
10484TIP3   OH252866   5.081   2.051   3.056  0.1490 -0.5804  0.7012
10484TIP3    H152867   5.101   2.144   3.067  1.9686 -0.7313 -0.6714
10484TIP3    H252868   5.138   2.007   3.118  0.7007 -0.8302  0.0362
10485TIP3   OH252869   3.335   4.497  16.883 -0.2210  0.3066  0.4116
10485TIP3    H152870   3.363   4.482  16.974  0.0541 -1.5642  0.0612
10485TIP3    H252871   3.388   4.436  16.832 -3.0720 -1.4983 -0.5907
10486TIP3   OH252872   5.453   1.024  10.848  0.2448  0.2100  0.4468
10486TIP3    H152873   5.435   1.105  10.799 -0.8226 -0.3442 -0.1007
10486TIP3    H252874   5.506   1.053  10.923  1.8745  1.0874 -0.9794
10487TIP3   OH252875   6.045   4.853  16.227 -0.0331  0.5862 -0.1050
10487TIP3    H152876   6.117   4.839  16.165 -0.0156 -3.8705  0.6336
10487TIP3    H252877   6.088   4.873  16.310  0.1075  1.8270 -0.4497
10488TIP3   OH252878   6.451   5.154   0.581  0.0302  0.2234  0.1489
10488TIP3    H152879   6.450   5.231   0.524  0.7805  0.0827 -0.0729
10488TIP3    H252880   6.487   5.085   0.525  0.6201  0.0446  0.7438
10489TIP3   OH252881   0.806   3.538   2.334 -0.5304  0.5539  0.3285
10489TIP3    H152882   0.863   3.471   2.295 -0.0935  1.5851 -0.8778
10489TIP3    H252883   0.786   3.504   2.421  1.1706 -0.3045  0.4405
10490TIP3   OH252884   5.782   2.102  15.717  0.8158 -0.9273  0.4179
10490TIP3    H152885   5.862   2.135  15.759  0.7005 -0.9567  0.6598
10490TIP3    H252886   5.801   2.010  15.699  0.4200 -1.2364  1.5126
10491TIP3   OH252887   5.713   0.363   0.985 -0.8452 -0.0694  0.1457
10491TIP3    H152888   5.697   0.328   1.072  1.2801  0.5969  0.8710
10491TIP3    H252889   5.767   0.441   1.000 -0.1565 -0.1152 -1.7570
10492TIP3   OH252890   1.155   3.151  11.822 -0.1745  0.3403  0.2115
10492TIP3    H152891   1.089   3.114  11.763  0.4844  1.4665 -1.3029
10492TIP3    H252892   1.132   3.243  11.829  0.7682  0.5791  0.2971
10493TIP3   OH252893   6.194   1.780  15.145 -0.9422  0.3514  0.6683
10493TIP3    H152894   6.232   1.734  15.220 -0.4507 -1.0004 -0.3614
10493TIP3    H252895   6.236   1.866  15.146  1.6149 -0.7739  0.1053
10494TIP3   OH252896   6.478   6.642   5.789 -0.2896 -0.0813 -0.3519
10494TIP3    H152897   6.390   6.679   5.802 -0.6209 -0.7171 -0.7399
10494TIP3    H252898   6.496   6.595   5.869 -0.6403 -0.6173 -0.5837
10495TIP3   OH252899   5.072   5.500  14.234  0.2864  0.0205  0.3870
10495TIP3    H152900   5.114   5.449  14.165 -1.2297 -0.5112 -0.1868
10495TIP3    H252901   5.068   5.440  14.309 -1.5457 -0.8174 -0.3034
10496TIP3   OH252902   3.776   2.223   2.066  0.4866 -0.3830 -0.0172
10496TIP3    H152903   3.812   2.134   2.071 -3.7667 -2.3567  0.3136
10496TIP3    H252904   3.740   2.229   1.978  0.7883  1.0541 -0.0532
10497TIP3   OH252905   5.898   0.097  15.255  0.0273 -0.3084 -0.3388
10497TIP3    H152906   5.928   0.008  15.236 -0.4718 -0.3201 -1.1238
10497TIP3    H252907   5.815   0.085  15.301 -0.3830 -0.2529 -1.0484
10498TIP3   OH252908   1.988   5.686   2.338  0.4427  0.9683 -0.0467
10498TIP3    H152909   2.041   5.678   2.259 -0.3039 -0.7760 -0.3966
10498TIP3    H252910   2.052   5.686   2.410  1.0299 -3.6985 -0.2555
10499TIP3   OH252911   0.289   5.950  12.412 -0.3260  0.0061  0.5819
10499TIP3    H152912   0.361   5.959  12.350  0.3974  0.3148  1.4608
10499TIP3    H252913   0.331   5.932  12.496 -1.3375 -2.2727  0.6866
10500TIP3   OH252914   4.406   5.345  16.252  0.6425 -0.0050  0.3145
10500TIP3    H152915   4.375   5.352  16.342  0.1576 -0.0220  0.1546
10500TIP3    H252916   4.418   5.435  16.223 -1.3870  0.1001 -0.3298
10501TIP3   OH252917   0.690   5.242  13.561  0.0089 -0.3394  0.4924
10501TIP3    H152918   0.650   5.157  13.541 -0.3047 -0.6769  2.3656
10501TIP3    H252919   0.616   5.302  13.566  0.0248 -0.3716  1.1326
10502TIP3   OH252920   4.047   4.705   4.368  0.0625 -0.1377  0.1742
10502TIP3    H152921   4.071   4.771   4.432 -0.6006 -0.8799  1.2083
10502TIP3    H252922   4.096   4.730   4.289  1.7643  0.1583  1.2684
10503TIP3   OH252923   1.029   4.606  11.304 -0.3722  0.1854  0.6781
10503TIP3    H152924   1.102   4.655  11.343 -0.2589  1.0953 -0.6128
10503TIP3    H252925   0.955   4.666  11.309 -0.1376  0.7363 -1.2861
10504TIP3   OH252926   2.821   1.109  11.987 -0.4221  0.0332  0.2519
10504TIP3    H152927   2.868   1.160  11.922 -0.1268 -0.0609  0.3920
10504TIP3    H252928   2.837   1.018  11.963 -0.0420 -0.0054  0.6504
10505TIP3   OH252929   0.179   5.054  14.345  0.6650  0.1500 -0.3090
10505TIP3    H152930   0.262   5.015  14.319  0.5530 -0.1733 -0.1904
10505TIP3    H252931   0.198   5.097  14.428  0.9279  0.8453 -0.7253
10506TIP3   OH252932   1.696   3.853   0.844 -0.9246 -0.0059  0.2411
10506TIP3    H152933   1.714   3.918   0.911 -0.0958 -1.5316  1.5779
10506TIP3    H252934   1.655   3.780   0.891  1.5314 -1.9771 -0.4353
10507TIP3   OH252935   6.213   6.723   2.505  0.3682 -0.5856 -0.1800
10507TIP3    H152936   6.203   6.635   2.541  1.8522  0.0883  2.0680
10507TIP3    H252937   6.163   6.778   2.565  1.6720  0.4056  0.0270
10508TIP3   OH252938   1.350   0.893   5.148 -0.0178  0.1412  0.3488
10508TIP3    H152939   1.366   0.827   5.216  0.1427  0.3358  0.5017
10508TIP3    H252940   1.400   0.969   5.177  1.9676 -0.5105 -1.1453
10509TIP3   OH252941   2.987   1.200   3.926  0.2220  0.1793  1.1550
10509TIP3    H152942   3.057   1.260   3.950  0.2089  0.8804 -0.4238
10509TIP3    H252943   2.912   1.228   3.979  0.3429  1.2714  0.7686
10510TIP3   OH252944   5.393   4.825  15.456  0.1850  0.2604  0.1945
10510TIP3    H152945   5.364   4.805  15.545  2.9403  0.2595  1.1809
10510TIP3    H252946   5.347   4.906  15.434 -1.1098 -0.1341  1.2799
10511TIP3   OH252947   5.808   0.703   6.470  0.0726 -0.0787 -0.2380
10511TIP3    H152948   5.831   0.610   6.474 -0.8725 -0.4369 -2.0207
10511TIP3    H252949   5.752   0.718   6.546  3.6296  0.1545  2.6065
10512TIP3   OH252950   3.450   2.363  16.484  0.0464  0.9297 -0.6278
10512TIP3    H152951   3.466   2.446  16.438 -3.1876  1.9415 -0.1632
10512TIP3    H252952   3.356   2.352  16.481  0.1410 -1.3989  1.6964
10513TIP3   OH252953   5.944   2.671  16.182  0.0429  0.6712 -0.1599
10513TIP3    H152954   5.992   2.739  16.228  0.5750 -0.4174  0.9791
10513TIP3    H252955   5.869   2.716  16.143 -0.8309  1.5839  2.3657
10514TIP3   OH252956   0.627   0.000  14.560  0.5706 -0.3012  0.5665
10514TIP3    H152957   0.588   0.082  14.591  0.6072 -0.5030  1.1695
10514TIP3    H252958   0.711  -0.004  14.606  0.1786 -1.1108  1.2366
10515TIP3   OH252959   1.055   5.235   6.054 -0.1028  0.0768 -0.2641
10515TIP3    H152960   0.971   5.274   6.030 -0.9129 -1.1303  0.5148
10515TIP3    H252961   1.116   5.269   5.989 -1.6148 -0.7730 -2.2546
10516TIP3   OH252962   2.961   1.676  16.656  0.1256 -0.0916 -0.1798
10516TIP3    H152963   2.931   1.612  16.720  1.3773 -0.1625  0.3768
10516TIP3    H252964   3.011   1.624  16.592 -0.4119  0.0915 -0.7563
10517TIP3   OH252965   1.397   4.014  11.334  0.2448 -0.4807  0.5590
10517TIP3    H152966   1.416   3.934  11.382  0.9004 -0.5207  0.2402
10517TIP3    H252967   1.419   3.994  11.243  0.5009  0.0808  0.4888
10518TIP3   OH252968   1.924   3.324  13.827 -0.1171 -0.4431  1.1039
10518TIP3    H152969   1.911   3.260  13.897  1.1516 -2.2650 -0.2253
10518TIP3    H252970   1.908   3.275  13.747  1.8305  0.6327 -0.0148
10519TIP3   OH252971   4.303   3.386  11.165  0.0415 -0.0829 -1.0826
10519TIP3    H152972   4.333   3.305  11.205 -0.6412  0.5865  0.9193
10519TIP3    H252973   4.215   3.367  11.134 -1.3303  0.5970  2.0626
10520TIP3   OH252974   2.471   4.001   0.581 -0.1400 -0.2659  0.1257
10520TIP3    H152975   2.489   3.924   0.528  0.3376 -1.1443  1.5237
10520TIP3    H252976   2.376   3.998   0.597  0.0603 -1.3073  1.2483
10521TIP3   OH252977   3.401   6.325  13.527 -0.3726  0.3235  0.6411
10521TIP3    H152978   3.404   6.302  13.434  0.2657  0.8612  0.5240
10521TIP3    H252979   3.441   6.412  13.532 -1.9163  1.0447  1.1954
10522TIP3   OH252980   0.144   0.889   4.057  0.2982 -0.3365 -0.2152
10522TIP3    H152981   0.230   0.920   4.030 -0.4573  1.9593 -0.2029
10522TIP3    H252982   0.158   0.846   4.141  1.3091  1.0003  0.3345
10523TIP3   OH252983   2.007   2.396   5.139  0.2871  0.1219  0.6227
10523TIP3    H152984   2.046   2.356   5.062 -1.5131  0.9191 -0.7782
10523TIP3    H252985   2.029   2.489   5.131 -0.3318  0.2891  0.7778
10524TIP3   OH252986   0.544   5.513  11.821  0.3624  0.1048  0.3794
10524TIP3    H152987   0.565   5.463  11.741 -1.9896 -0.8127  0.2426
10524TIP3    H252988   0.624   5.509  11.873  1.9676  0.6854 -1.8710
10525TIP3   OH252989   3.688   0.974   1.254  0.5063 -0.1865 -0.1034
10525TIP3    H152990   3.660   0.970   1.345 -0.1161 -0.5199 -0.3074
10525TIP3    H252991   3.713   1.066   1.241  3.0172 -0.6156  1.0994
10526TIP3   OH252992   3.783   4.552   5.353 -0.7148  0.1828  0.3740
10526TIP3    H152993   3.705   4.535   5.301 -0.1639 -1.6280  0.0663
10526TIP3    H252994   3.852   4.570   5.289 -0.8608  1.8826  0.6451
10527TIP3   OH252995   4.719   0.793   0.350 -0.1996  0.1667 -0.1004
10527TIP3    H152996   4.673   0.746   0.280  0.4145  0.8331 -0.9725
10527TIP3    H252997   4.746   0.725   0.411 -1.7500 -0.3152  0.1031
10528TIP3   OH252998   5.779   1.826   4.203  0.1773 -0.3076 -0.1015
10528TIP3    H152999   5.734   1.832   4.287  0.5518  0.5853  0.0519
10528TIP3    H253000   5.855   1.884   4.212  1.0286 -1.3249 -0.5658
10529TIP3   OH253001   1.159   2.508  15.798  0.4223 -0.9170  0.6729
10529TIP3    H153002   1.205   2.497  15.715 -1.0884  2.3264 -0.7894
10529TIP3    H253003   1.229   2.517  15.863  1.8035  0.0835 -0.8612
10530TIP3   OH253004   4.934   5.102   0.967  0.4351  0.6321  0.7190
10530TIP3    H153005   5.004   5.149   1.013  2.9950 -0.8217 -1.3782
10530TIP3    H253006   4.954   5.009   0.982 -1.6332  0.1575  0.7942
10531TIP3   OH253007   2.592   6.532   2.646 -0.5532  0.1226  0.4476
10531TIP3    H153008   2.578   6.624   2.621 -0.9221  0.1771  0.8202
10531TIP3    H253009   2.576   6.531   2.741 -0.8664 -0.3812  0.3967
10532TIP3   OH253010   3.242   2.217   1.585  0.2474 -0.1597  0.5157
10532TIP3    H153011   3.288   2.134   1.601  1.4104  0.2378 -0.5725
10532TIP3    H253012   3.308   2.284   1.602  0.0083  0.4481 -0.8431
10533TIP3   OH253013   2.550   5.397   2.364 -0.1250  0.3213  0.5539
10533TIP3    H153014   2.517   5.456   2.296 -0.0739  0.9586  1.0733
10533TIP3    H253015   2.555   5.312   2.321 -0.7552  0.5728 -0.0453
10534TIP3   OH253016   3.763   0.422   0.412  0.2432 -0.0029  0.3090
10534TIP3    H153017   3.736   0.468   0.333 -1.7485 -0.0729  0.9049
10534TIP3    H253018   3.858   0.433   0.414  0.1986  1.1012 -1.3931
10535TIP3   OH253019   3.324   5.607  12.655 -0.1785  0.1736  0.3081
10535TIP3    H153020   3.415   5.581  12.673 -0.1934 -1.4512 -1.6589
10535TIP3    H253021   3.318   5.697  12.687  1.3381 -0.5503  2.9031
10536TIP3   OH253022   5.916   6.040   2.367  0.1560 -0.0133 -0.0161
10536TIP3    H153023   5.982   5.972   2.353 -1.3853 -1.3543 -1.3295
10536TIP3    H253024   5.903   6.042   2.462 -3.2919 -5.3870  0.0637
10537TIP3   OH253025   0.653   1.257  14.459 -0.4002 -0.2573 -1.0313
10537TIP3    H153026   0.710   1.313  14.407  1.1086  0.6455  1.4034
10537TIP3    H253027   0.564   1.282  14.434  0.2606  0.9471 -2.2768
10538TIP3   OH253028   4.711   0.242  13.458 -0.0724  0.2934 -0.1897
10538TIP3    H153029   4.766   0.174  13.418 -1.0329 -1.2116  0.9323
10538TIP3    H253030   4.742   0.324  13.420  2.7245 -0.5111  0.1356
10539TIP3   OH253031   0.658   0.698  11.897 -0.2691  0.7238  0.2888
10539TIP3    H153032   0.730   0.638  11.879 -0.1368  0.7548  0.7023
10539TIP3    H253033   0.620   0.717  11.811 -1.8845 -1.8763  0.3067
10540TIP3   OH253034   5.651   5.836   4.421  0.7213  0.2119  0.3526
10540TIP3    H153035   5.599   5.859   4.498 -0.4900  1.7596 -0.8775
10540TIP3    H253036   5.602   5.766   4.379  1.0987 -0.2491  0.6637
10541TIP3   OH253037   4.416   4.073  14.865 -0.2380 -0.5383 -0.1792
10541TIP3    H153038   4.390   4.083  14.774  0.2363 -1.4744 -0.4391
10541TIP3    H253039   4.472   3.995  14.865 -0.2014 -0.5289  0.9036
10542TIP3   OH253040   2.066   3.241   2.067 -0.5679 -0.1541 -0.0608
10542TIP3    H153041   2.134   3.307   2.074 -0.6286 -0.1900  1.1719
10542TIP3    H253042   1.986   3.286   2.094 -0.6875 -0.5944  0.3414
10543TIP3   OH253043   6.576   4.734  14.756 -0.0415  0.0761 -0.3503
10543TIP3    H153044   6.630   4.658  14.733  0.9058  0.2127  1.2583
10543TIP3    H253045   6.487   4.699  14.761  0.5134 -1.2318  1.4938
10544TIP3   OH253046   3.462   4.094  11.303  0.1471  0.0187 -0.3555
10544TIP3    H153047   3.478   4.188  11.293  0.9749 -0.0290  0.3561
10544TIP3    H253048   3.411   4.087  11.383  2.2327 -0.2758  1.0370
10545TIP3   OH253049   5.240   2.726  14.866 -0.2423  1.4026 -0.2427
10545TIP3    H153050   5.215   2.717  14.774  1.4995 -0.8350 -0.5721
10545TIP3    H253051   5.209   2.645  14.907  1.6888  0.9632  0.4316
10546TIP3   OH253052   2.142   5.888  11.938 -0.0885 -0.3313  0.0781
10546TIP3    H153053   2.203   5.833  11.889  0.1871 -0.1538  0.2165
10546TIP3    H253054   2.196   5.959  11.972 -0.6105  0.5911 -0.9558
10547TIP3   OH253055   0.905   1.444   3.668  0.2840  0.0225 -0.1869
10547TIP3    H153056   0.955   1.475   3.592  2.6914 -1.5286  0.6398
10547TIP3    H253057   0.968   1.392   3.718 -1.1526  1.1318  3.0278
10548TIP3   OH253058   2.428   2.306   0.002  0.3585  0.0421 -0.0919
10548TIP3    H153059   2.521   2.282   0.010  0.5480  0.8500  0.2714
10548TIP3    H253060   2.399   2.263  -0.078  1.2168  0.2738 -0.5456
10549TIP3   OH253061   2.902   1.218  16.920  0.6818 -0.0502  0.1769
10549TIP3    H153062   2.947   1.136  16.939 -1.0706 -0.9560  0.6018
10549TIP3    H253063   2.857   1.202  16.837 -1.6561 -0.4314  1.4432
10550TIP3   OH253064   5.228   3.857  11.287 -0.3112  0.0953  0.0515
10550TIP3    H153065   5.178   3.809  11.352 -0.6166  0.0661 -0.2000
10550TIP3    H253066   5.188   3.832  11.203 -0.0307  0.2573 -0.1331
10551TIP3   OH253067   4.763   1.925  13.671 -0.1688  0.6589  0.4936
10551TIP3    H153068   4.729   2.013  13.690  1.0970  1.0621  1.0365
10551TIP3    H253069   4.685   1.873  13.651 -0.8336  2.3029 -1.5574
10552TIP3   OH253070   4.385   3.128   2.387  0.5352  0.0737  0.4873
10552TIP3    H153071   4.304   3.170   2.358  0.8632  0.9579  0.8092
10552TIP3    H253072   4.363   3.035   2.393 -0.3885  0.2719  0.3339
10553TIP3   OH253073   2.835   1.584   1.397  0.0914  0.3928  0.1830
10553TIP3    H153074   2.821   1.678   1.404 -1.2061  0.2397 -0.1751
10553TIP3    H253075   2.871   1.558   1.482  0.7672  1.2478  0.1714
10554TIP3   OH253076   5.235   1.237  14.227  0.5919 -0.6328  0.1234
10554TIP3    H153077   5.223   1.142  14.236  2.0934 -0.8999 -0.4415
10554TIP3    H253078   5.329   1.250  14.236  0.3767  0.8512  0.4552
10555TIP3   OH253079   2.119   3.911   0.237 -0.2256  0.5481 -0.5329
10555TIP3    H153080   2.099   3.817   0.243  1.4196  0.0601 -1.7766
10555TIP3    H253081   2.143   3.937   0.326 -1.9136  0.1212  0.0826
10556TIP3   OH253082   6.491   2.276  16.802  0.1746 -0.0637 -0.1802
10556TIP3    H153083   6.450   2.280  16.889  1.3601  0.5156  0.3813
10556TIP3    H253084   6.562   2.341  16.807  0.7030 -0.5379 -1.3440
10557TIP3   OH253085   3.147   2.576   4.892  0.3041  0.1730  0.0121
10557TIP3    H153086   3.132   2.658   4.940 -0.0038  1.1388 -1.6520
10557TIP3    H253087   3.084   2.579   4.820  0.4028 -1.4722 -0.1746
10558TIP3   OH253088   2.794   1.830  13.740 -0.3253 -0.1642  0.4066
10558TIP3    H153089   2.856   1.764  13.772  1.4458  1.0593 -0.3490
10558TIP3    H253090   2.726   1.779  13.696  0.6772 -1.5263  0.3530
10559TIP3   OH253091   5.712   1.151  11.538  0.4952  0.0070  0.0813
10559TIP3    H153092   5.616   1.156  11.541  0.3342 -2.1895 -0.0695
10559TIP3    H253093   5.739   1.166  11.628 -0.2305 -2.2534  0.7526
10560TIP3   OH253094   4.396   5.113  12.077  0.4835 -0.5165  0.0831
10560TIP3    H153095   4.367   5.029  12.114 -0.5619 -0.8279 -1.3400
10560TIP3    H253096   4.475   5.135  12.126  0.5377 -2.1247  0.7810
10561TIP3   OH253097   5.228   0.303   0.552  0.9470 -0.5597 -0.1922
10561TIP3    H153098   5.280   0.312   0.631 -0.0981  0.8235  0.3762
10561TIP3    H253099   5.140   0.330   0.578  0.8563  1.1905 -2.1143
10562TIP3   OH253100   2.078   4.325   0.458  0.1195 -0.2278 -0.1626
10562TIP3    H153101   2.011   4.391   0.471  1.0143  0.8549 -0.9154
10562TIP3    H253102   2.067   4.296   0.367 -1.8541 -2.9711  0.8154
10563TIP3   OH253103   4.231   4.346   5.318  0.0804 -0.0015  0.4280
10563TIP3    H153104   4.209   4.413   5.255  2.1311  1.1089  0.8198
10563TIP3    H253105   4.194   4.377   5.401  0.3202  0.2371  0.4451
10564TIP3   OH253106   0.848   0.074   1.808  0.1496  0.3800  0.7648
10564TIP3    H153107   0.903   0.004   1.775 -0.3290  0.1321  0.4823
10564TIP3    H253108   0.899   0.154   1.794 -0.1672  0.3239 -0.9006
10565TIP3   OH253109   0.154   0.780   4.309 -0.6072  0.5481  0.1450
10565TIP3    H153110   0.106   0.699   4.323  0.4781 -0.6149 -2.2833
10565TIP3    H253111   0.225   0.778   4.373 -0.2431 -0.7145 -0.2869
10566TIP3   OH253112   5.209   6.048  11.383 -0.5842 -0.3313 -0.2552
10566TIP3    H153113   5.276   6.030  11.449 -0.8151  2.0830  0.7544
10566TIP3    H253114   5.255   6.040  11.299 -0.2969 -3.5225  0.0722
10567TIP3   OH253115   0.021   5.568  13.415  0.6104  0.4044 -0.4756
10567TIP3    H153116   0.032   5.661  13.434  0.0536  0.5374 -0.7779
10567TIP3    H253117   0.038   5.561  13.321 -0.2857  0.3686 -0.6512
10568TIP3   OH253118   0.058   0.045  14.977  0.0363  0.2736 -0.1779
10568TIP3    H153119   0.018  -0.041  14.974 -0.2736  0.4378 -0.9057
10568TIP3    H253120   0.024   0.085  15.058  2.4477 -1.3420  1.7832
10569TIP3   OH253121   1.304   1.854  12.438  1.2132  0.5481  0.3619
10569TIP3    H153122   1.361   1.791  12.483 -0.8454 -1.0901  0.8600
10569TIP3    H253123   1.308   1.933  12.493  0.4132 -0.6891  2.3062
10570TIP3   OH253124   3.608   6.055   4.712  0.4025 -0.5178  0.0913
10570TIP3    H153125   3.604   6.151   4.708 -0.8270 -0.6050 -2.1625
10570TIP3    H253126   3.667   6.037   4.785  1.4911  1.9624 -0.0655
10571TIP3   OH253127   4.735   2.785  14.126 -0.4467  0.5210  0.1442
10571TIP3    H153128   4.732   2.824  14.214 -1.8742  1.2856 -0.2231
10571TIP3    H253129   4.713   2.693  14.139 -1.2188  0.7567  0.5229
10572TIP3   OH253130   2.018   1.495   5.126  0.0912  0.3835 -0.7965
10572TIP3    H153131   2.086   1.512   5.192  0.0657  0.9515 -0.9122
10572TIP3    H253132   2.068   1.468   5.048  0.1296 -0.1223 -0.6039
10573TIP3   OH253133   6.000   4.225   1.189 -0.3523 -0.8686 -0.8585
10573TIP3    H153134   5.934   4.196   1.125 -0.7863  0.1958 -0.9153
10573TIP3    H253135   6.078   4.174   1.167 -1.0844 -1.9948 -0.9278
10574TIP3   OH253136   1.696   2.812   0.249 -0.9347  0.4162 -0.0388
10574TIP3    H153137   1.777   2.810   0.198 -1.1674 -1.4217 -0.4011
10574TIP3    H253138   1.628   2.832   0.185 -0.8906  0.9617  0.0825
10575TIP3   OH253139   6.406   2.544  16.296  0.2165 -0.2620 -0.0587
10575TIP3    H153140   6.473   2.564  16.230  1.5198 -2.5209  0.4671
10575TIP3    H253141   6.450   2.485  16.357 -1.0730  1.4288  2.6664
10576TIP3   OH253142   6.427   4.836  15.743 -0.6083  0.4503 -0.2106
10576TIP3    H153143   6.422   4.839  15.839  0.3528 -0.2276 -0.1193
10576TIP3    H253144   6.351   4.785  15.717 -0.7552  0.4476  0.2091
10577TIP3   OH253145   4.777   2.440  11.294  0.5609 -0.8059  0.6721
10577TIP3    H153146   4.804   2.358  11.253  0.2024 -0.2032 -0.8291
10577TIP3    H253147   4.796   2.508  11.229  0.8368  0.3125  1.8703
10578TIP3   OH253148   2.997   3.882  14.024 -0.1978 -0.2732  0.5456
10578TIP3    H153149   2.995   3.830  13.944  0.4937  1.7059 -0.8633
10578TIP3    H253150   2.907   3.881  14.056 -0.9967  0.6320 -1.5008
10579TIP3   OH253151   5.867   1.903  12.919  0.2374  0.5619 -0.0325
10579TIP3    H153152   5.813   1.849  12.861 -0.6758  2.7370 -1.3059
10579TIP3    H253153   5.933   1.942  12.861  0.7495  0.9961  0.8213
10580TIP3   OH253154   6.626   4.384   2.255  0.5134 -0.5466 -0.5291
10580TIP3    H153155   6.593   4.456   2.200  0.3633 -0.9912 -1.0256
10580TIP3    H253156   6.581   4.396   2.338 -0.3523 -0.7082 -0.9624
10581TIP3   OH253157   3.072   4.512  16.815  0.4189  0.3101 -0.7508
10581TIP3    H153158   3.166   4.494  16.823  0.3531 -0.1775 -1.0602
10581TIP3    H253159   3.036   4.489  16.900 -0.0195 -3.2695 -1.7190
10582TIP3   OH253160   2.759   6.038  16.911 -0.1604  0.2321  0.3360
10582TIP3    H153161   2.700   6.055  16.985 -0.5881  1.4052 -0.2520
10582TIP3    H253162   2.818   6.113  16.909  1.3596 -0.9084  0.8851
10583TIP3   OH253163   2.414   2.707  11.388 -0.4623  0.0590 -0.1303
10583TIP3    H153164   2.504   2.685  11.412 -0.4000  0.5076  0.0613
10583TIP3    H253165   2.412   2.701  11.292 -0.4018 -0.5822 -0.0951
10584TIP3   OH253166   3.401   3.409  13.785 -0.4677  0.0558 -0.0245
10584TIP3    H153167   3.337   3.422  13.855 -2.8721 -3.8538 -1.1430
10584TIP3    H253168   3.485   3.406  13.829 -1.8924 -2.3499  2.8862
10585TIP3   OH253169   4.689   1.504   4.136 -0.6681  0.2075  0.7868
10585TIP3    H153170   4.679   1.599   4.127  2.5232  0.4305 -2.8483
10585TIP3    H253171   4.675   1.470   4.048 -0.5559 -2.5967  1.7701
10586TIP3   OH253172   0.834   1.823  16.326 -0.2443 -0.0865 -0.3223
10586TIP3    H153173   0.888   1.769  16.384 -2.8872 -1.3381  1.1336
10586TIP3    H253174   0.893   1.893  16.297  1.0235  1.6156  5.1108
10587TIP3   OH253175   5.834   6.178   1.708  0.1103 -0.0692  0.6362
10587TIP3    H153176   5.852   6.150   1.798  1.3834 -0.0466  0.4151
10587TIP3    H253177   5.827   6.273   1.713  1.4379  0.0551  0.5472
10588TIP3   OH253178   0.961   1.420   5.477 -0.1418 -0.2513 -0.5354
10588TIP3    H153179   0.991   1.393   5.564  0.7646  2.4498  0.0893
10588TIP3    H253180   0.876   1.460   5.493 -0.6206 -0.9959 -1.1425
10589TIP3   OH253181   5.466   0.812   5.852  0.2162 -0.4193 -0.2751
10589TIP3    H153182   5.519   0.788   5.776  0.0308  0.7949 -0.8064
10589TIP3    H253183   5.460   0.907   5.848 -1.9050 -0.5094 -0.1660
10590TIP3   OH253184   0.210   5.568  15.124 -0.9872  0.2319  0.1180
10590TIP3    H153185   0.226   5.486  15.171 -2.1954 -0.0352  0.0938
10590TIP3    H253186   0.274   5.568  15.053 -0.4089 -0.2712  0.6252
10591TIP3   OH253187   4.510   3.459  13.445 -0.4476 -0.6495 -0.2006
10591TIP3    H153188   4.436   3.448  13.387 -0.5529 -0.2713 -0.1449
10591TIP3    H253189   4.472   3.463  13.533 -0.3577 -0.5020 -0.1679
10592TIP3   OH253190   4.307   3.834  16.438  0.3430  0.4427 -0.4085
10592TIP3    H153191   4.257   3.790  16.506  1.7588 -2.1695 -0.9113
10592TIP3    H253192   4.280   3.792  16.357  1.7335  0.4638 -0.9211
10593TIP3   OH253193   3.877   3.428   1.526  0.1167  0.3096 -0.2021
10593TIP3    H153194   3.955   3.399   1.480 -0.0565  0.2103 -0.4298
10593TIP3    H253195   3.807   3.372   1.494 -0.2939  1.2191 -0.9220
10594TIP3   OH253196   0.075   2.826   1.574 -0.0866 -0.6339  0.2920
10594TIP3    H153197  -0.013   2.856   1.552  0.1516  2.1191  2.5845
10594TIP3    H253198   0.060   2.749   1.630 -1.1240  0.2800  1.3287
10595TIP3   OH253199   4.587   5.569   1.821 -0.1463 -0.7045  0.0449
10595TIP3    H153200   4.637   5.521   1.755 -1.4664  1.1759 -2.5204
10595TIP3    H253201   4.652   5.596   1.886  1.5646 -1.1447 -1.4034
10596TIP3   OH253202   6.122   5.873  12.354 -0.1385 -0.3414  0.3677
10596TIP3    H153203   6.180   5.816  12.304 -0.2508  1.8374 -2.4569
10596TIP3    H253204   6.034   5.844  12.331 -0.1823  0.1547 -0.1176
10597TIP3   OH253205   5.365   4.250   5.257  0.0731  0.0493  0.1151
10597TIP3    H153206   5.315   4.193   5.315 -2.1803  0.6042 -1.1470
10597TIP3    H253207   5.420   4.302   5.316 -0.6928 -0.7461  1.5836
10598TIP3   OH253208   2.895   0.266  13.999 -0.2099  0.0526  0.4334
10598TIP3    H153209   2.922   0.327  14.068 -1.9885  0.8789  0.4618
10598TIP3    H253210   2.803   0.247  14.020  0.2417 -2.5511  0.3398
10599TIP3   OH253211   1.383   4.198   2.985  0.8108  0.5359 -0.2912
10599TIP3    H153212   1.288   4.203   2.995  0.9716  2.2071  0.8859
10599TIP3    H253213   1.413   4.145   3.058  0.6939 -1.5799 -1.6912
10600TIP3   OH253214   6.494   2.134   4.561 -0.2115  0.1667 -0.0918
10600TIP3    H153215   6.525   2.090   4.640 -2.8153  1.1315  1.5717
10600TIP3    H253216   6.420   2.082   4.531 -1.1983  1.5047 -0.0646
10601TIP3   OH253217   6.574   5.959  12.405 -0.0542 -0.4857  0.1618
10601TIP3    H153218   6.500   5.920  12.358 -0.6569  0.1546  0.5641
10601TIP3    H253219   6.618   5.884  12.445  0.4734 -1.0474 -1.3931
10602TIP3   OH253220   1.484   4.551   1.803 -0.0401  0.3748 -0.8517
10602TIP3    H153221   1.568   4.528   1.763  0.0072 -1.2600  0.0731
10602TIP3    H253222   1.420   4.498   1.756 -0.7192  2.1934 -2.0845
10603TIP3   OH253223   1.792   2.442  13.982 -0.3925  0.2227  0.4102
10603TIP3    H153224   1.745   2.495  13.917 -3.0972  1.7067  3.3117
10603TIP3    H253225   1.804   2.357  13.939 -0.2488  1.6350 -2.6543
10604TIP3   OH253226   5.260   2.587   5.563  0.1349 -0.1681 -0.4639
10604TIP3    H153227   5.325   2.595   5.494  0.6729 -0.7409 -0.0353
10604TIP3    H253228   5.204   2.664   5.553  0.6905  0.1667 -1.0322
10605TIP3   OH253229   5.332   2.935  12.484  0.1418 -0.0874  0.5821
10605TIP3    H153230   5.415   2.900  12.451 -0.4301 -0.7762 -0.1703
10605TIP3    H253231   5.286   2.858  12.517 -0.6878  0.1076 -0.0916
10606TIP3   OH253232   5.391   4.750  13.619  0.3379 -0.2175  0.0321
10606TIP3    H153233   5.485   4.753  13.598  0.4160 -3.0674 -0.4329
10606TIP3    H253234   5.388   4.739  13.714  0.3681  1.6798  0.2824
10607TIP3   OH253235   5.321   3.267  12.999  0.4438 -0.6960 -0.2439
10607TIP3    H153236   5.277   3.341  13.041 -1.5380 -1.4135 -0.9452
10607TIP3    H253237   5.411   3.297  12.986  0.3963  0.5979  1.8587
10608TIP3   OH253238   1.701   3.107  16.054 -0.3033 -0.2302 -0.4679
10608TIP3    H153239   1.744   3.193  16.053 -0.3740 -0.1424  1.3104
10608TIP3    H253240   1.711   3.076  16.144  1.7329 -3.1340 -1.5404
10609TIP3   OH253241   3.132   2.405   5.457  0.5681 -0.5306  0.3414
10609TIP3    H153242   3.069   2.341   5.491  0.6273 -0.9621 -0.3371
10609TIP3    H253243   3.101   2.423   5.368  0.7426  0.1367  0.4128
10610TIP3   OH253244   6.440   1.080  16.004 -0.0694 -0.0807  0.0327
10610TIP3    H153245   6.373   1.139  15.969 -0.0543  0.6780  1.2014
10610TIP3    H253246   6.395   0.996  16.016 -0.2022 -0.2125 -1.2561
10611TIP3   OH253247   4.376   0.185   6.224  0.2609 -0.1888  0.4833
10611TIP3    H153248   4.419   0.266   6.197  1.4200 -0.5515  1.1772
10611TIP3    H253249   4.334   0.206   6.307 -4.0217  1.1709 -1.6781
10612TIP3   OH253250   0.239   1.540   1.885  0.1863 -0.2287 -0.1106
10612TIP3    H153251   0.321   1.512   1.926  0.3010  1.0454  0.5918
10612TIP3    H253252   0.260   1.623   1.842  0.4705 -2.1960 -4.2423
10613TIP3   OH253253   3.199   3.951   0.908 -0.0435 -0.1827 -0.4992
10613TIP3    H153254   3.283   3.991   0.931 -0.3513 -0.3835  1.1177
10613TIP3    H253255   3.136   4.022   0.915 -0.3191 -0.5090  0.5454
10614TIP3   OH253256   6.784   5.440  14.241  0.3247 -0.2140 -0.0288
10614TIP3    H153257   6.753   5.424  14.330 -0.7663 -0.4623 -0.4412
10614TIP3    H253258   6.794   5.535  14.235  1.1634 -0.2494  0.5905
10615TIP3   OH253259   5.057   6.572   5.170  0.3889  1.0137 -0.1964
10615TIP3    H153260   5.136   6.579   5.116  0.4916 -0.5170 -0.2989
10615TIP3    H253261   5.046   6.478   5.183 -0.5666  1.2756  1.0877
10616TIP3   OH253262   5.063   1.410  11.810 -0.4863  0.3328 -0.1382
10616TIP3    H153263   5.059   1.336  11.749 -1.2232 -0.1275  0.4449
10616TIP3    H253264   4.973   1.441  11.816 -0.1538  1.4050 -0.5142
10617TIP3   OH253265   3.344   5.970   4.792 -0.3018 -0.1448 -0.5923
10617TIP3    H153266   3.432   5.996   4.765 -0.4456 -0.3928 -1.3355
10617TIP3    H253267   3.288   6.041   4.760 -0.1596  1.1359  1.8098
10618TIP3   OH253268   5.386   5.551   5.912  0.4108  0.1301 -0.7367
10618TIP3    H153269   5.345   5.571   5.997 -0.7608 -1.7937 -0.8061
10618TIP3    H253270   5.469   5.509   5.935 -0.4573 -1.5033 -0.4933
10619TIP3   OH253271   4.999   3.487   3.562 -0.0427  0.4645  0.1429
10619TIP3    H153272   5.068   3.428   3.593 -1.2141 -2.7720 -2.7437
10619TIP3    H253273   4.919   3.435   3.567 -1.5777  2.5888 -0.6257
10620TIP3   OH253274   0.608   5.659  12.758 -0.1208  0.2254 -0.0292
10620TIP3    H153275   0.663   5.698  12.690 -0.7625 -0.9883 -1.3011
10620TIP3    H253276   0.591   5.570  12.727  0.2346 -0.6639  2.1475
10621TIP3   OH253277   1.097   5.034   1.144 -0.1782  0.0711 -0.3106
10621TIP3    H153278   1.081   4.983   1.223  2.9179  1.1192  1.1543
10621TIP3    H253279   1.038   5.110   1.153 -0.9537 -0.5747  0.1920
10622TIP3   OH253280   2.422   4.767   1.640  0.1269 -0.4705  0.0749
10622TIP3    H153281   2.381   4.702   1.582  0.7491 -1.3555  0.6009
10622TIP3    H253282   2.360   4.840   1.642 -0.6921 -1.1337 -0.3705
10623TIP3   OH253283   3.383   0.227   1.423 -0.3628  0.0913 -0.6653
10623TIP3    H153284   3.373   0.279   1.343 -0.1189 -0.0032 -0.7600
10623TIP3    H253285   3.320   0.265   1.484  0.9047  1.5465 -0.1970
10624TIP3   OH253286   6.478   5.143   4.966  0.0928 -0.1138  0.1074
10624TIP3    H153287   6.401   5.094   4.995  1.1383 -1.2897  0.9942
10624TIP3    H253288   6.551   5.101   5.011  1.2127  1.2645 -0.3719
10625TIP3   OH253289   1.744   4.392  15.892 -0.5879  0.2889 -0.3534
10625TIP3    H153290   1.814   4.447  15.928  0.3618 -0.7097 -0.6133
10625TIP3    H253291   1.668   4.450  15.886 -0.7771  0.5840  3.0712
10626TIP3   OH253292   6.224   2.036  15.050 -0.1866 -0.2317  0.7665
10626TIP3    H153293   6.219   2.108  14.987 -0.8955  0.1222  1.2172
10626TIP3    H253294   6.141   2.039  15.097  0.2186 -0.6692  1.5298
10627TIP3   OH253295   3.941   2.617  14.839  0.1357 -0.6827  0.5874
10627TIP3    H153296   4.018   2.669  14.814 -0.2311 -0.6402 -0.5226
10627TIP3    H253297   3.943   2.542  14.779 -1.2331 -0.1565 -0.1574
10628TIP3   OH253298   0.963   4.746   0.791 -0.2413 -0.3708 -0.6819
10628TIP3    H153299   0.898   4.746   0.721 -1.1643  1.1398  0.1142
10628TIP3    H253300   1.035   4.799   0.757 -0.2762 -0.4310 -0.8478
10629TIP3   OH253301   3.362   5.785   0.442 -0.0429  0.3052  0.2574
10629TIP3    H153302   3.411   5.839   0.504  1.7598  0.8229 -1.4960
10629TIP3    H253303   3.407   5.700   0.444 -1.1073 -0.2694  0.9309
10630TIP3   OH253304   6.289   5.631   5.894  0.0123 -0.2716 -0.2414
10630TIP3    H153305   6.376   5.603   5.864 -0.4327 -0.8398 -1.0215
10630TIP3    H253306   6.307   5.699   5.959  1.1725 -2.4360  1.8768
10631TIP3   OH253307   5.676   5.465   4.118 -0.1991  0.4268 -0.3429
10631TIP3    H153308   5.741   5.410   4.160 -0.2290  0.5653 -0.1109
10631TIP3    H253309   5.592   5.425   4.141 -0.1608 -0.5072 -1.7161
10632TIP3   OH253310   0.631   3.506  15.266 -0.5527 -0.4837 -0.6099
10632TIP3    H153311   0.566   3.572  15.243  0.0384  0.1500 -0.4675
10632TIP3    H253312   0.583   3.444  15.321 -1.3120 -0.6194 -1.4026
10633TIP3   OH253313   1.810   2.041  15.776 -1.0630 -0.5546  0.2936
10633TIP3    H153314   1.814   1.953  15.814 -0.2430 -2.3417 -3.5081
10633TIP3    H253315   1.897   2.078  15.791 -0.1913 -1.9018 -1.1358
10634TIP3   OH253316   3.538   1.980  14.411  0.2379 -0.0544 -0.2780
10634TIP3    H153317   3.599   1.946  14.477  0.3266  1.6015  0.5321
10634TIP3    H253318   3.558   2.073  14.405 -0.1667 -0.0465 -2.2503
10635TIP3   OH253319   6.339   1.010  15.321  0.5090 -0.3066 -0.8679
10635TIP3    H153320   6.344   0.932  15.266 -0.5985  1.5480 -3.8348
10635TIP3    H253321   6.260   0.999  15.373  1.0742 -1.6784 -0.2446
10636TIP3   OH253322   2.532   1.379   6.081  0.8006 -0.4435  0.4216
10636TIP3    H153323   2.495   1.308   6.132 -2.4037  0.3715 -0.5679
10636TIP3    H253324   2.605   1.339   6.033  0.2352 -2.5762  1.2350
10637TIP3   OH253325   3.253   4.746   4.619  0.2725 -0.2336 -0.6441
10637TIP3    H153326   3.288   4.818   4.567 -0.9258 -1.3624 -3.2475
10637TIP3    H253327   3.322   4.725   4.682  1.1383  2.3097 -0.6584
10638TIP3   OH253328   4.920   0.694  16.672 -0.4350  0.1766 -0.1000
10638TIP3    H153329   4.971   0.711  16.751  0.2102 -0.7501 -0.3040
10638TIP3    H253330   4.983   0.657  16.610 -1.0369  0.4380 -0.8816
10639TIP3   OH253331   0.213   5.362  13.197  0.1715  0.1849 -0.0863
10639TIP3    H153332   0.275   5.324  13.135  0.5695 -0.6648  0.7866
10639TIP3    H253333   0.259   5.438  13.234  0.2763  0.1776 -0.2018
10640TIP3   OH253334   3.677   5.293   2.722 -0.1588  0.9657 -0.0900
10640TIP3    H153335   3.629   5.375   2.727 -0.7472  0.5512  1.4098
10640TIP3    H253336   3.638   5.238   2.789  0.9254 -0.1843 -0.3672
10641TIP3   OH253337   0.221   6.064  14.062 -0.6262  0.2392  0.3566
10641TIP3    H153338   0.158   6.123  14.021 -1.2203  0.6732  1.8419
10641TIP3    H253339   0.191   5.976  14.037  0.5004  0.4751 -2.2094
10642TIP3   OH253340   5.311   2.620   2.103  0.1517 -0.3554 -0.4973
10642TIP3    H153341   5.314   2.690   2.038  3.2563  0.3066  0.1907
10642TIP3    H253342   5.326   2.539   2.053  2.7368  0.1658 -0.7218
10643TIP3   OH253343   2.941   3.608   2.318 -0.3632  0.6258  0.2588
10643TIP3    H153344   2.982   3.526   2.345  0.0639  1.0332  0.8521
10643TIP3    H253345   2.985   3.631   2.236 -0.9993 -0.1140 -0.3056
10644TIP3   OH253346   6.407   5.618  12.984  0.4174  0.0712  0.1153
10644TIP3    H153347   6.480   5.600  13.043  0.0066 -1.6735  0.1534
10644TIP3    H253348   6.429   5.702  12.944  2.9264 -0.7917 -0.5581
10645TIP3   OH253349   1.946   5.484   4.265  0.4624 -0.0165  0.1995
10645TIP3    H153350   1.898   5.552   4.217  2.0646  1.0534  0.0274
10645TIP3    H253351   1.956   5.413   4.202 -0.5848 -0.1253  0.1394
10646TIP3   OH253352   2.028   1.570  10.465  0.5654  0.1201 -0.9694
10646TIP3    H153353   1.991   1.546  10.551  1.7291 -1.0304 -0.7607
10646TIP3    H253354   1.958   1.551  10.403 -0.2068  0.7307 -0.3155
10647TIP3   OH253355   1.673   0.199  15.317 -0.2153 -0.1427 -0.2316
10647TIP3    H153356   1.694   0.199  15.223 -0.4890 -0.8171 -0.3022
10647TIP3    H253357   1.714   0.279  15.351 -2.2174  1.4735 -1.3824
10648TIP3   OH253358   5.159   0.243  11.691  0.3939 -0.3553  0.0098
10648TIP3    H153359   5.151   0.148  11.699  2.7305 -0.5016  1.5415
10648TIP3    H253360   5.087   0.278  11.743  1.3781 -1.3766  2.2090
10649TIP3   OH253361   0.468   0.164  11.487 -0.0247 -0.2055  0.1642
10649TIP3    H153362   0.445   0.228  11.420 -0.7758  0.6388  1.1860
10649TIP3    H253363   0.433   0.081  11.455 -0.3608  0.1807 -0.4802
10650TIP3   OH253364   0.739   5.053  13.225  0.6535  0.2934  0.0844
10650TIP3    H153365   0.798   5.110  13.274  3.1675 -3.4091  1.8332
10650TIP3    H253366   0.651   5.080  13.252  1.7993  1.3987  3.1591
10651TIP3   OH253367   4.948   6.494  10.389  0.3214 -0.1476 -0.0565
10651TIP3    H153368   4.873   6.472  10.446 -1.0468  0.6685 -1.4671
10651TIP3    H253369   4.908   6.520  10.306  2.2294 -0.2976 -1.0704
10652TIP3   OH253370   6.184   5.073  16.868  0.0789 -0.0897  0.1508
10652TIP3    H153371   6.180   4.978  16.874  0.3981 -0.0082  2.3659
10652TIP3    H253372   6.184   5.103  16.959 -1.8302  2.1230 -0.4899
10653TIP3   OH253373   3.521   4.795  15.421 -0.5347 -0.4277  0.1981
10653TIP3    H153374   3.462   4.757  15.486 -2.1609  2.6120  0.6398
10653TIP3    H253375   3.574   4.858  15.469  0.0417  0.0399 -0.9993
10654TIP3   OH253376   3.398   4.973  15.139 -0.0701 -0.3548 -0.0025
10654TIP3    H153377   3.478   4.921  15.146  0.3164  0.1638 -0.4721
10654TIP3    H253378   3.327   4.910  15.152  0.4241 -0.6637  1.3718
10655TIP3   OH253379   5.007   0.283   2.333  0.6681  0.1331  0.5518
10655TIP3    H153380   5.073   0.256   2.397  1.1252  2.9053  1.3717
10655TIP3    H253381   4.941   0.213   2.335  1.9920 -1.1385  2.0705
10656TIP3   OH253382   4.055   2.650  13.841  0.0043  0.0865 -0.2034
10656TIP3    H153383   4.109   2.572  13.856  0.7513  0.7391  0.6465
10656TIP3    H253384   4.106   2.702  13.779 -0.1081  0.2671 -0.1436
10657TIP3   OH253385   0.258   3.986  14.602 -0.6361  0.5256 -0.6270
10657TIP3    H153386   0.300   3.902  14.622  0.0591  0.2904 -2.7545
10657TIP3    H253387   0.206   4.006  14.680  1.0793 -0.6590  0.9183
10658TIP3   OH253388   2.132   1.506  12.267  0.3270  0.3985  0.7378
10658TIP3    H153389   2.178   1.463  12.339 -0.7430 -0.4048  0.9704
10658TIP3    H253390   2.093   1.584  12.307 -0.0727  0.0754  0.9900
10659TIP3   OH253391   4.805   2.848  11.467 -0.1535 -0.5083  0.5846
10659TIP3    H153392   4.881   2.829  11.413  0.8962  0.0017  1.8341
10659TIP3    H253393   4.737   2.790  11.433  0.7653 -0.9591 -0.5767
10660TIP3   OH253394   4.834   2.384   6.309  0.4855  0.7684 -1.4527
10660TIP3    H153395   4.743   2.413   6.311  0.0246 -0.6430 -0.8541
10660TIP3    H253396   4.831   2.292   6.335  2.3885  1.4284  1.5668
10661TIP3   OH253397   1.560   2.710  14.276 -0.3699 -0.1555  0.5638
10661TIP3    H153398   1.483   2.668  14.314 -0.5300 -1.1631 -0.7900
10661TIP3    H253399   1.617   2.637  14.251 -0.1525  0.4554 -0.8306
10662TIP3   OH253400   5.619   1.358  16.612  0.0569  0.1983  0.7227
10662TIP3    H153401   5.615   1.433  16.672  1.9152  0.6052  0.3839
10662TIP3    H253402   5.607   1.282  16.669  2.3043  0.5465  1.7720
10663TIP3   OH253403   6.140   2.303   2.022  0.1505 -0.3879 -0.3426
10663TIP3    H153404   6.226   2.293   1.982  0.8679 -1.1934  1.3136
10663TIP3    H253405   6.154   2.361   2.096 -0.8137 -0.2061 -0.2869
10664TIP3   OH253406   0.936   1.374   1.568 -0.6546 -0.1103  0.3243
10664TIP3    H153407   0.964   1.464   1.583 -0.4966 -0.3750  1.7039
10664TIP3    H253408   0.841   1.376   1.574 -0.7230  0.1469 -0.7309
10665TIP3   OH253409   0.755   2.086   1.591  0.1979  0.0770  0.0501
10665TIP3    H153410   0.676   2.044   1.557  0.4052 -0.7114  0.5242
10665TIP3    H253411   0.824   2.062   1.529  0.0105  1.0903 -0.5839
10666TIP3   OH253412   1.065   5.721   4.052 -0.5380  0.2371  0.0096
10666TIP3    H153413   1.112   5.671   3.984 -0.6707  0.7573 -0.4720
10666TIP3    H253414   1.028   5.796   4.005 -2.8404 -0.7502  0.1443
10667TIP3   OH253415   5.504   5.696  15.659  0.2392  0.2755 -0.3645
10667TIP3    H153416   5.458   5.745  15.727 -0.1455 -0.3704 -0.1536
10667TIP3    H253417   5.452   5.710  15.580  1.2457  1.8837 -0.7990
10668TIP3   OH253418   3.116   3.200   4.904  0.5517 -0.6551  0.3815
10668TIP3    H153419   3.132   3.274   4.847 -0.2527 -1.8984 -1.5711
10668TIP3    H253420   3.066   3.236   4.978  1.2551  0.9219  0.1102
10669TIP3   OH253421   4.592   3.943   5.650 -0.3036 -0.0716 -0.1078
10669TIP3    H153422   4.624   3.934   5.740 -3.4323 -0.1902  1.0865
10669TIP3    H253423   4.647   4.012   5.612  2.9199 -1.8875  0.9008
10670TIP3   OH253424   5.434   3.712   3.663 -0.0389  0.3702  0.5722
10670TIP3    H153425   5.412   3.703   3.571  2.3849 -1.5031  0.0812
10670TIP3    H253426   5.471   3.628   3.688  3.5516  2.1512  2.0089
10671TIP3   OH253427   1.594   3.340   0.459 -0.3532 -0.8654 -0.0019
10671TIP3    H153428   1.575   3.297   0.543 -0.6647 -3.6177 -1.3817
10671TIP3    H253429   1.519   3.397   0.444 -0.1933 -0.1575  1.6674
10672TIP3   OH253430   3.505   0.539   3.425 -0.6372 -0.4724 -0.2812
10672TIP3    H153431   3.466   0.488   3.496 -0.5629  2.2227  1.8486
10672TIP3    H253432   3.600   0.527   3.436 -0.6238 -0.0141  0.1375
10673TIP3   OH253433   5.278   3.931  10.331  0.3409  0.5970 -0.1075
10673TIP3    H153434   5.249   3.941  10.421 -0.9150  1.8723 -0.6218
10673TIP3    H253435   5.345   3.998  10.319 -2.0185  2.9313 -1.0905
10674TIP3   OH253436   5.229   4.046  14.498  0.1904  0.2278  0.3584
10674TIP3    H153437   5.307   4.004  14.462  0.6442 -0.3595  1.9518
10674TIP3    H253438   5.262   4.126  14.539 -0.3809  1.1156 -0.8597
10675TIP3   OH253439   0.935   1.979   0.878 -0.7077 -0.0939 -0.0530
10675TIP3    H153440   0.891   1.896   0.896 -0.1359 -0.2308  0.7340
10675TIP3    H253441   0.890   2.042   0.935  0.7620 -0.4276  1.5288
10676TIP3   OH253442   4.522   5.037   1.293  0.2665 -0.3424  0.0633
10676TIP3    H153443   4.579   5.101   1.250  0.0839 -0.5560 -0.4952
10676TIP3    H253444   4.510   5.072   1.382  1.7960 -0.6141  0.4125
10677TIP3   OH253445   4.667   3.592   4.829 -0.4231 -0.0162 -0.5691
10677TIP3    H153446   4.640   3.611   4.919 -2.5647  0.6136 -1.2811
10677TIP3    H253447   4.702   3.503   4.834 -0.9710 -0.1903  0.7989
10678TIP3   OH253448   2.589   5.444   0.562 -0.4230  0.3359  1.4620
10678TIP3    H153449   2.564   5.482   0.478  1.0573  1.5628  1.5376
10678TIP3    H253450   2.641   5.367   0.538 -0.1260  0.6000  1.2464
10679TIP3   OH253451   0.051   5.864  15.058  0.1463 -0.1010  0.1646
10679TIP3    H153452   0.127   5.908  15.018  0.9860  0.1587  1.9498
10679TIP3    H253453   0.081   5.775  15.073 -1.0974 -1.0067 -2.1877
10680TIP3   OH253454   2.224   3.812  16.949  0.9648 -0.7009  0.3800
10680TIP3    H153455   2.319   3.815  16.956  1.1431  1.3546 -1.6662
10680TIP3    H253456   2.194   3.891  16.995  0.4398 -0.2340 -0.7292
10681TIP3   OH253457   2.636   4.136  13.506 -0.0614  0.4129 -0.0618
10681TIP3    H153458   2.672   4.206  13.452  1.3019 -0.0181  0.2477
10681TIP3    H253459   2.678   4.056  13.473 -0.6158 -0.0923  0.4316
10682TIP3   OH253460   4.101   1.441  10.869  0.2035 -0.4062 -0.5314
10682TIP3    H153461   4.036   1.378  10.840 -0.5595 -0.8718  1.9149
10682TIP3    H253462   4.180   1.389  10.887 -0.1246 -0.5602  0.5580
10683TIP3   OH253463   0.308   6.526   1.490  0.5178 -0.0373  0.3155
10683TIP3    H153464   0.292   6.598   1.430  0.1788 -0.0761  0.3568
10683TIP3    H253465   0.403   6.524   1.501  0.4768  0.9275  0.9592
10684TIP3   OH253466   6.131   1.059  12.744  0.0845  0.1684 -0.2034
10684TIP3    H153467   6.115   1.153  12.744 -0.3444  0.1079 -1.2184
10684TIP3    H253468   6.213   1.049  12.695  0.3245  0.0284  0.2144
10685TIP3   OH253469   1.005   5.226  16.193  0.0336  0.1043 -0.2891
10685TIP3    H153470   0.972   5.310  16.225 -0.1106 -0.2609  0.5583
10685TIP3    H253471   0.937   5.194  16.133 -0.1378  0.3628 -0.2334
10686TIP3   OH253472   6.153   3.842   2.287 -0.2816 -0.4185 -0.2013
10686TIP3    H153473   6.119   3.872   2.371  1.8267  2.5066 -0.2631
10686TIP3    H253474   6.109   3.896   2.222  0.8175 -0.0522 -0.6595
10687TIP3   OH253475   3.204   2.535  14.658  0.6230  0.4250 -0.2661
10687TIP3    H153476   3.250   2.570  14.582 -0.5278  0.3157 -1.0293
10687TIP3    H253477   3.113   2.562  14.646 -0.1522 -2.0332 -0.4031
10688TIP3   OH253478   5.957   1.874   3.913 -0.7170  0.4642  0.1010
10688TIP3    H153479   6.027   1.919   3.866 -0.1939 -1.2067 -0.8068
10688TIP3    H253480   5.999   1.840   3.992 -1.0723  1.4194  0.7078
10689TIP3   OH253481   1.290   0.142  15.023 -0.0375 -0.0708 -0.0222
10689TIP3    H153482   1.329   0.215  14.976 -3.0995  1.3836 -0.5361
10689TIP3    H253483   1.261   0.082  14.955 -2.3792  0.9261 -0.0037
10690TIP3   OH253484   2.329   1.192  14.728  0.5517  0.1699 -0.0596
10690TIP3    H153485   2.333   1.193  14.824  1.8727  1.9732 -0.0695
10690TIP3    H253486   2.248   1.145  14.707  0.7070 -1.0634  1.9022
10691TIP3   OH253487   0.793   4.375   1.109 -0.2533 -0.2436  0.0432
10691TIP3    H153488   0.741   4.359   1.031  0.1022  1.6808 -0.6283
10691TIP3    H253489   0.873   4.417   1.077 -0.3059  1.0198  1.4689
10692TIP3   OH253490   4.997   0.920  14.591 -0.5197 -0.1670 -0.1390
10692TIP3    H153491   4.917   0.946  14.637 -1.1760  0.7264 -1.7097
10692TIP3    H253492   5.062   0.985  14.616 -1.1895  1.0035 -1.2966
10693TIP3   OH253493   4.754   4.467   1.406  0.2393 -0.3679 -0.1344
10693TIP3    H153494   4.668   4.454   1.366  0.1089  0.5178 -0.1754
10693TIP3    H253495   4.752   4.414   1.486 -0.6971  0.3423  0.3412
10694TIP3   OH253496   2.995   3.385  14.969 -0.6439  0.5866 -0.3123
10694TIP3    H153497   3.043   3.394  14.887  0.0720 -0.0129  0.0318
10694TIP3    H253498   3.044   3.437  15.032 -1.1065  0.9199 -0.2237
10695TIP3   OH253499   5.424   4.733  13.944  0.2864  0.2357 -0.0685
10695TIP3    H153500   5.435   4.643  13.913  1.7114 -0.7999  3.0272
10695TIP3    H253501   5.340   4.733  13.990  0.7178  0.1790  0.7435
10696TIP3   OH253502   1.788   2.551  11.462 -0.2522 -1.0104  0.0904
10696TIP3    H153503   1.715   2.546  11.400 -0.7059  1.3186  0.3683
10696TIP3    H253504   1.863   2.514  11.415 -0.8725 -0.4490 -1.3703
10697TIP3   OH253505   5.199   6.132  16.061  0.0922 -0.3189 -0.2199
10697TIP3    H153506   5.138   6.072  16.105  0.3753  1.4502  2.8780
10697TIP3    H253507   5.142   6.193  16.015 -0.3943 -0.2291  0.4751
10698TIP3   OH253508   0.787   4.078  14.761  0.6746  0.3287 -0.0590
10698TIP3    H153509   0.869   4.048  14.801  0.7393  0.4801 -0.0760
10698TIP3    H253510   0.727   4.005  14.773  1.2102 -0.3465 -1.2972
10699TIP3   OH253511   6.199   4.445   3.012  0.2100  0.6145  0.1968
10699TIP3    H153512   6.224   4.499   3.086  0.1900 -0.3565  0.9246
10699TIP3    H253513   6.157   4.368   3.050 -0.0082  0.2013 -0.8256
10700TIP3   OH253514   0.920   5.654  11.675 -0.1606 -0.0797 -0.3397
10700TIP3    H153515   0.832   5.637  11.641  0.6088 -0.7142 -2.1397
10700TIP3    H253516   0.943   5.574  11.722 -0.5262  0.0764  0.1110
10701TIP3   OH253517   6.309   6.441   2.860  0.4752  0.4756 -0.0461
10701TIP3    H153518   6.358   6.505   2.911  0.9004  1.7497 -1.9384
10701TIP3    H253519   6.366   6.421   2.785 -0.6829 -0.2334 -0.7762
10702TIP3   OH253520   3.983   6.077  14.641 -0.2388  0.5700 -0.2799
10702TIP3    H153521   3.972   6.121  14.556 -0.6751  1.3554  0.1762
10702TIP3    H253522   3.992   6.148  14.704  2.1542 -0.0061  0.1011
10703TIP3   OH253523   6.714   0.116   3.880  0.1193 -0.2916 -0.2065
10703TIP3    H153524   6.691   0.201   3.917  0.6862  0.3400 -1.2339
10703TIP3    H253525   6.734   0.135   3.788 -1.0046 -1.7471 -0.7912
10704TIP3   OH253526   4.433   3.515  14.158 -0.4668  0.4585 -0.1676
10704TIP3    H153527   4.482   3.580  14.108  0.3384  0.8006  1.0351
10704TIP3    H253528   4.341   3.536  14.141 -0.3419  3.5286  2.1118
10705TIP3   OH253529   5.999   4.432   0.265 -0.4015 -0.3853 -0.1917
10705TIP3    H153530   6.055   4.428   0.342 -0.2822 -3.0763 -0.3253
10705TIP3    H253531   5.942   4.508   0.280 -0.3205 -0.7784  2.4850
10706TIP3   OH253532   2.897   5.737  13.669 -0.0041  0.1557  0.3475
10706TIP3    H153533   2.926   5.778  13.588 -0.6433 -0.0490  0.0095
10706TIP3    H253534   2.965   5.760  13.733  2.1736 -2.1884 -0.9176
10707TIP3   OH253535   4.246   6.637   4.994  0.2048  0.4751  0.2907
10707TIP3    H153536   4.265   6.725   5.026 -1.1163  0.3083  1.6755
10707TIP3    H253537   4.168   6.610   5.042 -1.2774 -0.2746 -2.2810
10708TIP3   OH253538   3.233   2.718  15.930 -0.2871 -0.2988  0.2097
10708TIP3    H153539   3.248   2.787  15.995  0.1840  2.1247 -2.2763
10708TIP3    H253540   3.321   2.688  15.906 -0.4668 -1.3495  0.7816
10709TIP3   OH253541   1.753   6.542  10.414 -0.2901  0.1280 -0.5731
10709TIP3    H153542   1.723   6.622  10.371 -3.2217 -0.5195  0.0011
10709TIP3    H253543   1.708   6.472  10.367  1.1476 -1.0783 -0.1995
10710TIP3   OH253544   3.355   0.315   3.519  0.0732 -0.4347  0.5080
10710TIP3    H153545   3.438   0.311   3.566  0.2859 -1.6866  0.0589
10710TIP3    H253546   3.369   0.263   3.440 -0.4392  1.1897 -0.7109
10711TIP3   OH253547   4.767   0.772   4.837  0.1934  0.2583 -0.4730
10711TIP3    H153548   4.682   0.733   4.814  0.9168 -1.0526 -1.0628
10711TIP3    H253549   4.797   0.721   4.912  0.3613  0.8872 -0.1028
10712TIP3   OH253550   1.977   5.143  12.153  0.4444 -0.4013  0.7460
10712TIP3    H153551   1.900   5.151  12.097  0.9942  0.6804  0.1186
10712TIP3    H253552   1.948   5.088  12.226 -0.7308 -0.5372  0.1912
10713TIP3   OH253553   3.954   4.378  15.500  0.0828 -0.4511 -0.6731
10713TIP3    H153554   3.893   4.313  15.464  0.2142 -1.5870  1.0265
10713TIP3    H253555   3.902   4.458  15.509  0.0675 -0.0899 -3.3336
10714TIP3   OH253556   2.145   1.001   0.291 -0.0742 -0.0726 -0.0167
10714TIP3    H153557   2.052   0.996   0.266  0.3269  0.5131 -1.7390
10714TIP3    H253558   2.146   0.972   0.382 -2.2524  1.9574  0.7800
10715TIP3   OH253559   6.373   3.012  15.813  0.3035 -0.0830  0.1683
10715TIP3    H153560   6.387   2.955  15.738 -0.7133 -1.6071  1.0902
10715TIP3    H253561   6.303   2.970  15.863 -1.5485  2.7234  0.1578
10716TIP3   OH253562   2.709   2.169   0.606 -0.0981 -0.4132  0.1295
10716TIP3    H153563   2.729   2.138   0.517 -1.6962  0.8616 -0.7154
10716TIP3    H253564   2.695   2.088   0.655 -1.4575 -1.1433 -1.3505
10717TIP3   OH253565   2.619   0.290   2.046  0.1416 -0.3597 -0.1150
10717TIP3    H153566   2.556   0.220   2.030  0.7872 -1.0102  0.1181
10717TIP3    H253567   2.663   0.265   2.127  0.0985  0.5330  0.1965
10718TIP3   OH253568   4.084   2.955  15.171  0.7234 -0.3620 -0.8167
10718TIP3    H153569   4.119   3.040  15.197  1.3176 -0.9508  0.4027
10718TIP3    H253570   3.991   2.960  15.193  1.1520 -0.7376  1.2930
10719TIP3   OH253571   3.075   1.980  15.522  0.1491 -0.3539 -0.1168
10719TIP3    H153572   3.087   2.066  15.562  0.8301 -0.3085 -0.4068
10719TIP3    H253573   2.980   1.967  15.521  0.0798  0.0529  0.6383
10720TIP3   OH253574   1.963   2.677   5.115 -0.3450 -0.5808  0.0046
10720TIP3    H153575   1.893   2.717   5.063 -0.7080  0.5790  1.3074
10720TIP3    H253576   1.938   2.696   5.206  2.0597  0.6204  0.4843
10721TIP3   OH253577   3.443   0.919   5.712 -0.2149  0.3013  0.2759
10721TIP3    H153578   3.481   0.910   5.799 -0.4477  1.0625  0.4668
10721TIP3    H253579   3.357   0.879   5.719  0.0664 -0.3277  0.1794
10722TIP3   OH253580   6.358   5.606  15.006 -0.3216  0.8763 -0.9814
10722TIP3    H153581   6.346   5.598  14.911  2.4911  1.1328 -1.4622
10722TIP3    H253582   6.432   5.666  15.015  1.2364 -1.1993  1.2359
10723TIP3   OH253583   4.713   4.824   0.413 -0.2368 -0.2912 -0.4253
10723TIP3    H153584   4.741   4.876   0.488 -0.3967 -1.5715  0.5476
10723TIP3    H253585   4.627   4.860   0.390  0.1264  0.5773 -0.4695
10724TIP3   OH253586   2.260   5.852   0.973 -0.5216 -0.6017  0.1878
10724TIP3    H153587   2.207   5.775   0.954  0.1921 -0.6352 -1.9169
10724TIP3    H253588   2.250   5.908   0.897 -0.6861  1.2420  1.4916
10725TIP3   OH253589   6.239   3.104  16.695  0.0471  0.4740  0.4323
10725TIP3    H153590   6.289   3.126  16.774  0.6136  1.9010 -0.2919
10725TIP3    H253591   6.157   3.151  16.704  0.2325  0.8805  0.0511
10726TIP3   OH253592   0.199   2.352  12.035  0.4162 -0.0050 -0.0800
10726TIP3    H153593   0.232   2.279  11.983  0.1329  0.1296 -0.4559
10726TIP3    H253594   0.174   2.418  11.970  0.8078  0.4869  0.2588
10727TIP3   OH253595   2.362   5.031   4.403 -0.2495 -0.2540 -0.2838
10727TIP3    H153596   2.409   5.114   4.390 -0.7308 -0.1506 -1.4891
10727TIP3    H253597   2.384   4.979   4.325  1.1703 -1.8291  1.0901
10728TIP3   OH253598   3.492   3.297   2.096 -0.2886  0.0968  0.0022
10728TIP3    H153599   3.444   3.315   2.177  0.0400 -3.1153  1.0320
10728TIP3    H253600   3.530   3.382   2.072 -3.0423  1.8748  1.3570
10729TIP3   OH253601   5.608   1.709  13.430 -0.0259  0.2454 -0.1635
10729TIP3    H153602   5.543   1.646  13.462  0.3029  0.1883  0.3974
10729TIP3    H253603   5.673   1.714  13.500  1.7463 -1.3590 -1.5646
10730TIP3   OH253604   1.493   5.379   2.273 -0.3912 -0.4335  0.4433
10730TIP3    H153605   1.538   5.458   2.303  0.5113 -1.0590  0.7644
10730TIP3    H253606   1.555   5.308   2.290 -1.0420 -1.1678 -0.1909
10731TIP3   OH253607   0.812   1.739  11.856 -0.1595  0.4230  0.6106
10731TIP3    H153608   0.756   1.662  11.848  0.3759  0.0469  0.4185
10731TIP3    H253609   0.888   1.720  11.800 -0.9286  1.9481 -1.0418
10732TIP3   OH253610   4.484   6.014  14.783  0.0445  0.0748 -0.0958
10732TIP3    H153611   4.452   5.945  14.841 -1.5413  1.2517  0.5272
10732TIP3    H253612   4.579   6.013  14.793  0.0135 -1.6589  0.2682
10733TIP3   OH253613   1.284   3.563  10.855  0.0887  0.0226  0.3652
10733TIP3    H153614   1.260   3.631  10.917  1.6168 -0.6232  1.7623
10733TIP3    H253615   1.375   3.541  10.878  0.6835 -0.3004 -2.0750
10734TIP3   OH253616   6.089   2.619  11.093 -0.5746  0.0748 -0.0190
10734TIP3    H153617   6.071   2.710  11.068 -0.3996 -0.0045 -0.4552
10734TIP3    H253618   6.005   2.575  11.086 -0.4492 -0.0530 -0.9798
10735TIP3   OH253619   2.545   4.413  13.761  0.0043 -0.0213 -0.1161
10735TIP3    H153620   2.515   4.439  13.673 -0.8219 -0.3763  0.0494
10735TIP3    H253621   2.598   4.487  13.791 -0.7455  0.6558 -0.4123
10736TIP3   OH253622   5.376   0.291   0.770 -0.0970  0.0316  0.3199
10736TIP3    H153623   5.414   0.374   0.797 -0.4421 -0.1194  1.3093
10736TIP3    H253624   5.428   0.225   0.815 -0.3020 -0.2617  0.1360
10737TIP3   OH253625   3.117   3.234   2.705  0.6080  0.0423 -0.5702
10737TIP3    H153626   3.167   3.172   2.758 -0.0488 -2.3252 -2.5586
10737TIP3    H253627   3.025   3.212   2.723  0.3166  1.4287 -0.2449
10738TIP3   OH253628   6.664   6.582  13.346 -0.4707 -0.2733  0.4820
10738TIP3    H153629   6.712   6.645  13.400 -0.1231 -0.0235 -0.0994
10738TIP3    H253630   6.648   6.629  13.264  0.5713 -1.2242 -0.3023
10739TIP3   OH253631   1.639   0.954  14.993  0.6213  0.7889 -0.2005
10739TIP3    H153632   1.690   0.894  15.048  1.5283 -0.2829 -2.1056
10739TIP3    H253633   1.548   0.937  15.018  1.0411  1.5639  2.1131
10740TIP3   OH253634   3.427   6.534   3.369 -0.0139  0.0641  0.4637
10740TIP3    H153635   3.501   6.475   3.381  1.2822  1.5080 -0.0905
10740TIP3    H253636   3.454   6.616   3.411 -2.2773 -0.0624  2.3528
10741TIP3   OH253637   6.150   1.564  12.601  0.1728  0.3138 -0.3147
10741TIP3    H153638   6.163   1.583  12.694 -0.5025 -0.5031 -0.0451
10741TIP3    H253639   6.226   1.603  12.558  1.7690 -1.3981  0.8413
10742TIP3   OH253640   6.775   1.267  11.379 -0.5585  0.0572  0.7313
10742TIP3    H153641   6.695   1.274  11.328  1.3811  0.7620 -2.5153
10742TIP3    H253642   6.821   1.192  11.340  1.0479  0.6607  1.3954
10743TIP3   OH253643   4.449   0.157   5.555  0.1449 -0.2177  0.5722
10743TIP3    H153644   4.511   0.167   5.483  0.2737 -0.0881  0.7009
10743TIP3    H253645   4.393   0.084   5.529  1.0626 -1.0819  0.9612
10744TIP3   OH253646   5.749   0.028  11.155 -0.2889  0.2224 -0.0998
10744TIP3    H153647   5.831  -0.021  11.150  0.2480  1.0346  0.5488
10744TIP3    H253648   5.684  -0.032  11.119  0.1910 -1.3257  1.4119
10745TIP3   OH253649   2.510   1.499  16.636 -0.0934  0.0785  0.4099
10745TIP3    H153650   2.530   1.526  16.726  0.2061  0.4347  0.2432
10745TIP3    H253651   2.548   1.569  16.582 -1.7206  0.7359  0.0578
10746TIP3   OH253652   2.816   4.945  12.979 -0.8555 -0.4177  0.2745
10746TIP3    H153653   2.752   5.009  12.946 -2.1711 -2.5334 -1.4975
10746TIP3    H253654   2.771   4.861  12.975  1.0797 -1.6248  1.8295
10747TIP3   OH253655   5.514   0.114  12.554  0.5790  0.3131 -0.3464
10747TIP3    H153656   5.509   0.179  12.624 -1.0096  1.0123 -1.0446
10747TIP3    H253657   5.602   0.078  12.560  0.6723  0.7738  1.6181
10748TIP3   OH253658   2.308   2.929  11.487 -0.1811  0.2244 -0.2630
10748TIP3    H153659   2.347   2.842  11.487 -0.2022  0.2142 -0.3174
10748TIP3    H253660   2.229   2.919  11.434 -1.0779 -0.1098  1.0873
10749TIP3   OH253661   0.333   0.981  16.680 -0.0310 -0.0034 -0.7946
10749TIP3    H153662   0.298   1.034  16.751 -2.3671 -0.8552 -1.2364
10749TIP3    H253663   0.422   0.960  16.708  0.8762  3.6464 -0.3720
10750TIP3   OH253664   3.714   4.384   1.180 -0.3770 -0.9258 -0.0007
10750TIP3    H153665   3.746   4.468   1.214 -0.0060 -1.1217  0.1390
10750TIP3    H253666   3.793   4.338   1.152 -0.6775 -0.7784 -1.1193
10751TIP3   OH253667   3.897   1.693   2.071  0.3945 -0.4023 -0.4164
10751TIP3    H153668   3.846   1.676   2.151  1.1884 -0.1391  0.1530
10751TIP3    H253669   3.830   1.707   2.003 -0.3056 -1.9755 -0.1108
10752TIP3   OH253670   6.652   6.179   3.895 -0.0796 -0.5761 -0.1356
10752TIP3    H153671   6.636   6.239   3.822  0.4026 -1.4601 -0.9923
10752TIP3    H253672   6.569   6.175   3.942 -0.1324  0.7169 -0.0945
10753TIP3   OH253673   0.467   3.648   2.417  0.6668  0.1482 -1.0202
10753TIP3    H153674   0.534   3.698   2.464 -1.5337  0.4433  2.1046
10753TIP3    H253675   0.510   3.565   2.395  1.7400 -0.3640  2.3568
10754TIP3   OH253676   1.630   6.453  13.771  0.1403  0.3260  0.2177
10754TIP3    H153677   1.601   6.535  13.730  0.9692 -0.3003 -1.7560
10754TIP3    H253678   1.724   6.463  13.781  0.5148 -0.9305 -1.5211
10755TIP3   OH253679   4.431   0.804   2.685  0.1840  0.4238 -0.1872
10755TIP3    H153680   4.361   0.797   2.751  0.3635  0.3445 -0.0026
10755TIP3    H253681   4.437   0.715   2.649 -0.6162  0.7029 -1.0427
10756TIP3   OH253682   5.173   6.287  14.568 -0.0908 -0.4204  0.0299
10756TIP3    H153683   5.117   6.211  14.588  2.0348 -2.4108 -1.0968
10756TIP3    H253684   5.229   6.257  14.497  1.9134  1.7263  0.5935
10757TIP3   OH253685   1.081   4.738   4.819  0.1375 -0.7117  0.3748
10757TIP3    H153686   0.993   4.740   4.781 -0.0147 -0.8504  0.7136
10757TIP3    H253687   1.131   4.803   4.769 -0.3983  0.0050  0.7579
10758TIP3   OH253688   2.843   0.609   1.494  0.2767 -0.4912 -0.2429
10758TIP3    H153689   2.907   0.672   1.528 -1.8455  1.4777  0.3185
10758TIP3    H253690   2.779   0.598   1.564 -0.9126 -1.0808 -1.3743
10759TIP3   OH253691   5.185   2.692  14.595  0.2594 -0.0745 -0.4260
10759TIP3    H153692   5.203   2.714  14.503  1.8965 -0.0689 -0.1372
10759TIP3    H253693   5.251   2.627  14.617 -1.9755 -2.3613 -0.0776
10760TIP3   OH253694   2.159   6.126   5.808 -0.0068  0.4115  0.2335
10760TIP3    H153695   2.226   6.097   5.869 -1.3438 -0.4944  1.3186
10760TIP3    H253696   2.195   6.206   5.769  1.3813  0.3412  1.3140
10761TIP3   OH253697   6.452   6.011  16.680  0.2146  0.0082  0.4785
10761TIP3    H153698   6.421   5.925  16.654  0.6010  0.2631 -0.8965
10761TIP3    H253699   6.490   5.998  16.767  0.3106 -1.2079  0.2636
10762TIP3   OH253700   2.305   2.887   4.066 -0.5832  0.2964  0.1330
10762TIP3    H153701   2.263   2.971   4.049  1.1131  1.1564  0.0098
10762TIP3    H253702   2.245   2.842   4.124 -1.0303  2.0414  1.0893
10763TIP3   OH253703   4.098   3.510  11.948 -0.2121  0.5814 -0.3582
10763TIP3    H153704   4.014   3.513  11.993 -1.4593 -0.5475 -2.4477
10763TIP3    H253705   4.114   3.601  11.922 -0.7147  0.8357  0.2001
10764TIP3   OH253706   4.278   6.250  10.642  0.3690 -0.5995  0.5782
10764TIP3    H153707   4.248   6.163  10.615 -1.0273  0.9503 -3.7630
10764TIP3    H253708   4.199   6.299  10.663  0.8512  0.3440  0.2950
10765TIP3   OH253709   1.205   4.670  16.038  0.2604  0.0507  0.2143
10765TIP3    H153710   1.275   4.648  16.100  2.0412  1.7000 -1.0768
10765TIP3    H253711   1.181   4.760  16.060 -0.6951 -0.1158 -0.0925
10766TIP3   OH253712   6.269   0.426  13.831  0.2491  0.0273  0.1029
10766TIP3    H153713   6.296   0.432  13.739  1.6166  0.9524  0.5298
10766TIP3    H253714   6.345   0.457  13.880 -0.5413 -0.2350  1.5448
10767TIP3   OH253715   5.079   1.792  16.910 -0.1905  0.1314 -0.2858
10767TIP3    H153716   5.173   1.772  16.914  0.2922  2.2875  2.4008
10767TIP3    H253717   5.043   1.726  16.851  2.7501 -1.7844 -0.1648
10768TIP3   OH253718   3.030   3.731   6.391  0.5167 -0.0765  0.1366
10768TIP3    H153719   2.981   3.791   6.447 -0.1904 -0.5177  0.0022
10768TIP3    H253720   3.048   3.782   6.312 -0.8829 -0.3080 -0.3633
10769TIP3   OH253721   3.613   1.415  13.142 -0.1664 -0.4719 -0.4688
10769TIP3    H153722   3.561   1.475  13.195 -1.5456 -1.4440 -0.6600
10769TIP3    H253723   3.695   1.461  13.126 -0.6259  0.7586  0.5818
10770TIP3   OH253724   1.572   1.909   4.455  0.3514  0.1265 -0.0237
10770TIP3    H153725   1.589   1.823   4.492  0.4828 -0.1005 -0.6101
10770TIP3    H253726   1.634   1.918   4.383 -0.9235 -0.0828 -1.2045
10771TIP3   OH253727   0.219   5.302   4.065  0.2056 -0.1211  0.0278
10771TIP3    H153728   0.224   5.305   4.161  1.3260 -2.9052  0.1480
10771TIP3    H253729   0.307   5.328   4.036 -0.2446  1.1059 -0.3140
10772TIP3   OH253730   5.268   6.498  16.083  0.4067  0.0439 -0.3265
10772TIP3    H153731   5.230   6.492  16.170  0.7762 -0.9365 -0.2146
10772TIP3    H253732   5.344   6.439  16.085  1.7560  1.6953 -0.6436
10773TIP3   OH253733   4.654   4.405  14.732 -0.2856  0.1717  0.7894
10773TIP3    H153734   4.687   4.353  14.805 -1.5906 -2.6926 -0.4910
10773TIP3    H253735   4.723   4.402  14.666 -0.2619  0.2651  0.8096
10774TIP3   OH253736   4.842   5.196   1.461 -0.0894  0.3511 -0.1811
10774TIP3    H153737   4.796   5.197   1.377  0.3534  0.4566 -0.4295
10774TIP3    H253738   4.929   5.163   1.439  0.4400  1.5611  0.0132
10775TIP3   OH253739   2.652   3.972   3.690  0.6577 -0.6405  0.1451
10775TIP3    H153740   2.621   4.062   3.696  0.8632 -0.4888 -0.8643
10775TIP3    H253741   2.574   3.921   3.668  0.6195 -0.6415  0.2865
10776TIP3   OH253742   1.295   5.345   5.030  0.0744  0.2159 -0.0691
10776TIP3    H153743   1.277   5.255   5.057  0.7173 -0.3522 -1.3930
10776TIP3    H253744   1.299   5.340   4.934  1.5549  1.3672 -0.1074
10777TIP3   OH253745   4.662   2.151  13.786  0.0156  0.0472 -0.9177
10777TIP3    H153746   4.572   2.124  13.804  0.9153 -2.6650  0.0148
10777TIP3    H253747   4.653   2.234  13.738 -2.9199  0.1706 -0.3464
10778TIP3   OH253748   2.986   0.101   3.956 -0.0972  0.2452 -0.6304
10778TIP3    H153749   3.069   0.132   3.994 -1.3653  2.2668  0.7011
10778TIP3    H253750   2.960   0.172   3.897 -1.2509 -0.0138 -0.4453
10779TIP3   OH253751   1.594   0.162  16.843 -0.6789  0.2946  0.1118
10779TIP3    H153752   1.587   0.158  16.938 -0.2060  1.9515  0.2358
10779TIP3    H253753   1.556   0.246  16.819 -0.2266  0.1712 -1.1136
10780TIP3   OH253754   2.796   1.781   3.105  0.7939 -0.0737 -0.2736
10780TIP3    H153755   2.780   1.778   3.199  0.4741 -1.0921 -0.3477
10780TIP3    H253756   2.760   1.866   3.077 -2.4337 -1.2385 -0.0394
10781TIP3   OH253757   3.761   3.661  16.470 -0.1110 -0.1752 -0.7786
10781TIP3    H153758   3.805   3.689  16.389 -2.1928 -1.3334 -2.4025
10781TIP3    H253759   3.811   3.586  16.500 -0.7111 -1.2785 -2.4144
10782TIP3   OH253760   6.666   4.460   4.353  0.1431  0.0453  0.3882
10782TIP3    H153761   6.676   4.554   4.368 -1.4138  0.1646  0.9405
10782TIP3    H253762   6.671   4.421   4.440 -0.0703 -0.2691  0.2630
10783TIP3   OH253763   1.361   4.725  11.791 -0.0851  0.1613  0.0994
10783TIP3    H153764   1.394   4.798  11.738  0.9185  0.0470  0.5535
10783TIP3    H253765   1.434   4.700  11.847 -0.3680 -1.3078 -0.1528
10784TIP3   OH253766   1.262   6.055   4.937  0.4697 -0.7548 -0.4009
10784TIP3    H153767   1.268   6.000   5.015  1.1404 -0.2398 -0.0784
10784TIP3    H253768   1.349   6.094   4.929  0.0046  0.2557 -0.6198
10785TIP3   OH253769   2.396   0.827  10.876  0.3012  0.1856 -0.7299
10785TIP3    H153770   2.389   0.914  10.916  0.5707  0.1176 -0.5324
10785TIP3    H253771   2.309   0.789  10.886  0.5613 -0.1362  0.5097
10786TIP3   OH253772   0.470   4.745   3.180  0.0346  0.5469  0.3804
10786TIP3    H153773   0.524   4.698   3.244  0.7074 -0.0768 -0.6377
10786TIP3    H253774   0.530   4.806   3.137  0.4504 -1.4741 -2.1002
10787TIP3   OH253775   5.405   0.605   0.301 -0.3850 -0.5670  0.7915
10787TIP3    H153776   5.335   0.658   0.340  0.6369 -0.2486  2.2719
10787TIP3    H253777   5.464   0.669   0.262  0.4049 -0.6437  1.8233
10788TIP3   OH253778   0.371   0.381   3.211 -0.2067 -0.4468  0.0663
10788TIP3    H153779   0.299   0.408   3.268 -0.5102 -1.8209  0.3811
10788TIP3    H253780   0.383   0.288   3.230  0.1965 -0.7681 -1.5633
10789TIP3   OH253781   5.384   0.432  14.788  0.2215  0.0167  0.4258
10789TIP3    H153782   5.445   0.493  14.748  0.1146  0.9466  1.6119
10789TIP3    H253783   5.323   0.410  14.718  1.8447 -0.9053 -0.7809
10790TIP3   OH253784   2.873   0.354  14.826  0.0926 -0.2690  0.5026
10790TIP3    H153785   2.902   0.307  14.904 -1.6582 -0.5648  1.0205
10790TIP3    H253786   2.876   0.289  14.756 -1.8121 -1.0777  1.1090
10791TIP3   OH253787   0.531   3.087  13.523 -0.2544 -0.6363 -0.2065
10791TIP3    H153788   0.567   3.165  13.565 -0.0801 -0.9032  0.1449
10791TIP3    H253789   0.601   3.057  13.465  0.5770 -1.7918  1.2894
10792TIP3   OH253790   4.650   5.724   4.741  0.1892 -0.0105 -0.6106
10792TIP3    H153791   4.630   5.811   4.776  0.8432  0.6878 -1.9174
10792TIP3    H253792   4.610   5.664   4.804 -0.1380  1.2201  0.4061
10793TIP3   OH253793   1.824   6.792   5.607  0.6122  0.2899 -0.7246
10793TIP3    H153794   1.861   6.833   5.685  0.7648  1.1012 -1.2101
10793TIP3    H253795   1.881   6.717   5.590 -0.3662 -0.8761  0.8633
10794TIP3   OH253796   5.273   0.200   4.767 -0.0896 -0.2288  0.1151
10794TIP3    H153797   5.355   0.215   4.720 -0.9168 -0.0530 -1.3419
10794TIP3    H253798   5.259   0.105   4.762  0.1365 -0.2885  0.5726
10795TIP3   OH253799   1.561   3.949  16.130 -0.0602  0.0359 -0.1845
10795TIP3    H153800   1.609   3.900  16.064  0.5731 -1.2169  1.1399
10795TIP3    H253801   1.589   4.040  16.118 -2.0282  0.3554 -3.3580
10796TIP3   OH253802   2.725   6.615   2.216 -0.3647  0.0701 -0.1587
10796TIP3    H153803   2.660   6.553   2.248  0.2448 -0.0044  1.0047
10796TIP3    H253804   2.808   6.566   2.218 -0.1176  0.4526 -0.6923
10797TIP3   OH253805   4.738   5.134  10.482  0.3844  0.1194 -0.6962
10797TIP3    H153806   4.738   5.076  10.405  0.2126  1.1904 -1.5214
10797TIP3    H253807   4.656   5.112  10.527 -0.1113  0.3226 -1.4763
10798TIP3   OH253808   3.097   2.852   3.367  0.1648 -0.0753 -0.5010
10798TIP3    H153809   3.047   2.915   3.419 -0.1425  0.8550 -1.8710
10798TIP3    H253810   3.041   2.774   3.364  0.9725 -0.8313  2.0226
10799TIP3   OH253811   3.100   5.966   1.591 -0.7145  0.2943  0.4766
10799TIP3    H153812   3.150   5.884   1.586 -1.8847 -0.3831 -2.3595
10799TIP3    H253813   3.166   6.034   1.603  0.6853 -0.7887 -0.6830
10800TIP3   OH253814   1.539   2.531   4.812 -0.3519 -0.9474  0.0393
10800TIP3    H153815   1.583   2.513   4.895  0.6087 -0.8965 -0.4345
10800TIP3    H253816   1.506   2.620   4.821 -2.6909 -1.8713  1.3673
10801TIP3   OH253817   2.402   3.724  15.988  0.2821 -0.0856 -0.5328
10801TIP3    H153818   2.470   3.662  16.015 -0.1830 -0.2619  0.2955
10801TIP3    H253819   2.428   3.752  15.901  1.8064  0.3991  0.0499
10802TIP3   OH253820   4.211   0.583  11.511  0.1168 -0.1098  0.0607
10802TIP3    H153821   4.160   0.504  11.496  1.1388 -0.7128 -0.3140
10802TIP3    H253822   4.298   0.552  11.536 -0.5264  0.8531  4.1245
10803TIP3   OH253823   2.226   4.080  13.505 -1.4078 -0.0193 -0.4275
10803TIP3    H153824   2.249   4.146  13.571 -1.4855  0.0222 -0.4424
10803TIP3    H253825   2.254   4.118  13.422 -2.0271  0.2639 -0.5061
10804TIP3   OH253826   5.218   6.796   3.105 -0.2734 -0.3304  0.0508
10804TIP3    H153827   5.177   6.714   3.135 -0.3286 -0.4831 -0.4317
10804TIP3    H253828   5.268   6.770   3.028  0.2337 -0.0247  0.2783
10805TIP3   OH253829   0.448   2.907  10.991  0.0700  0.3233 -0.2832
10805TIP3    H153830   0.382   2.860  10.941  0.1880  0.1126 -0.2414
10805TIP3    H253831   0.501   2.839  11.031 -0.0716  0.4903  0.1968
10806TIP3   OH253832   1.982   0.655   3.194 -0.1114 -0.0173  0.5849
10806TIP3    H153833   1.956   0.651   3.286  0.2065  1.3992  0.7544
10806TIP3    H253834   1.905   0.690   3.149 -0.1294 -0.3426  0.3549
10807TIP3   OH253835   3.403   3.589  14.209  0.6108 -0.2240  0.2153
10807TIP3    H153836   3.497   3.573  14.210  0.8376  0.5100 -2.7059
10807TIP3    H253837   3.370   3.535  14.137 -0.7570  1.5457 -0.5444
10808TIP3   OH253838   5.227   0.154  15.879  0.2377 -0.4234 -0.4690
10808TIP3    H153839   5.164   0.142  15.809  0.1264  0.2333 -0.4849
10808TIP3    H253840   5.239   0.066  15.916 -0.4284 -0.6075 -0.6803
10809TIP3   OH253841   0.696   2.251   6.790 -0.0173 -0.1795 -0.1874
10809TIP3    H153842   0.686   2.320   6.856  1.5947  0.1978 -0.3124
10809TIP3    H253843   0.785   2.219   6.801  0.1607 -0.3765 -1.9204
10810TIP3   OH253844   5.760   6.047  12.619 -0.4948 -0.2450 -0.1508
10810TIP3    H153845   5.783   6.079  12.532  2.0965  1.8524  1.1735
10810TIP3    H253846   5.834   5.992  12.645 -0.6496  0.1427  1.1930
10811TIP3   OH253847   1.654   1.090  17.005 -0.1088  0.0587  0.3270
10811TIP3    H153848   1.636   1.015  17.061 -0.5966  1.5021  2.1862
10811TIP3    H253849   1.574   1.142  17.007 -0.3497 -0.1028 -2.1967
10812TIP3   OH253850   2.441   3.334  16.295  0.8500  0.0351 -0.2193
10812TIP3    H153851   2.448   3.246  16.332 -2.9999 -0.6795 -0.7580
10812TIP3    H253852   2.431   3.320  16.200  1.4894  1.1729 -0.4761
10813TIP3   OH253853   4.113   5.583   2.763 -0.0875 -0.0609 -0.2567
10813TIP3    H153854   4.040   5.521   2.763 -0.4401  0.1736  2.9444
10813TIP3    H253855   4.184   5.536   2.719 -1.0209 -1.8604  0.0569
10814TIP3   OH253856   3.162   0.105  16.784  0.3507  0.6488  0.0210
10814TIP3    H153857   3.251   0.112  16.749  0.5080  1.9892  0.6390
10814TIP3    H253858   3.171   0.121  16.878 -0.1810 -2.0863  0.6340
10815TIP3   OH253859   0.313   1.815  15.581  0.1936  0.3203 -0.0685
10815TIP3    H153860   0.309   1.890  15.641  0.9349  0.4715 -0.1894
10815TIP3    H253861   0.344   1.743  15.636 -0.8266  0.0196  0.1186
10816TIP3   OH253862   1.568   1.035   0.736 -0.4590  0.3044  0.0923
10816TIP3    H153863   1.647   1.074   0.773  0.5978  2.0049 -3.5517
10816TIP3    H253864   1.575   0.942   0.758  1.8321  0.6386  1.0256
10817TIP3   OH253865   2.667   1.517   3.521  0.1750 -0.2584  0.0080
10817TIP3    H153866   2.670   1.423   3.536 -0.0510 -0.1067  1.1029
10817TIP3    H253867   2.729   1.554   3.584 -1.2280  0.4622  1.0513
10818TIP3   OH253868   5.170   0.185   4.061 -0.4985  0.5583 -0.7036
10818TIP3    H153869   5.108   0.253   4.087 -0.6422 -0.2018  1.0736
10818TIP3    H253870   5.235   0.183   4.131  1.4555  1.1590 -2.3907
10819TIP3   OH253871   5.609   4.525  11.958 -0.2074  0.2211  0.0640
10819TIP3    H153872   5.676   4.588  11.986 -0.5351  0.4603  0.3197
10819TIP3    H253873   5.648   4.440  11.974 -0.1992  0.3583  0.7886
10820TIP3   OH253874   5.232   1.898   0.061  0.0727  0.3430  0.2029
10820TIP3    H153875   5.258   1.989   0.042 -2.0041  1.4185  2.0015
10820TIP3    H253876   5.258   1.884   0.152  1.4555 -1.3675 -0.3984
10821TIP3   OH253877   2.264   4.099  10.501  0.4986 -0.0120 -0.6015
10821TIP3    H153878   2.175   4.086  10.534  0.8677 -0.2269  0.3336
10821TIP3    H253879   2.261   4.184  10.457 -0.2791 -0.2192 -0.9782
10822TIP3   OH253880   5.159   2.073  11.313 -0.2284 -0.3997 -0.1375
10822TIP3    H153881   5.252   2.093  11.319 -0.6272  1.3609  1.3432
10822TIP3    H253882   5.137   2.088  11.221  1.0316 -1.3545 -0.6108
10823TIP3   OH253883   2.998   4.129   6.004  0.2517 -0.1540  0.1951
10823TIP3    H153884   3.015   4.200   5.941  1.5752  0.6170  1.3668
10823TIP3    H253885   3.057   4.148   6.077 -0.0561 -1.9582  0.9463
10824TIP3   OH253886   2.628   3.589  14.163  0.9011 -0.0181  0.6127
10824TIP3    H153887   2.663   3.564  14.078  0.6089  1.5695 -0.0121
10824TIP3    H253888   2.689   3.550  14.226  1.8953 -0.1009 -0.3596
10825TIP3   OH253889   2.483   0.790  16.576 -0.7541  0.2425  0.2614
10825TIP3    H153890   2.575   0.776  16.600 -0.5248  0.8327 -0.2439
10825TIP3    H253891   2.433   0.756  16.650 -0.1120  0.4730  0.8119
10826TIP3   OH253892   5.333   0.187   5.505  0.5345 -0.3822  0.0825
10826TIP3    H153893   5.321   0.189   5.410  2.3351  1.7310 -0.2063
10826TIP3    H253894   5.255   0.145   5.539 -0.3137 -0.8965 -2.3162
10827TIP3   OH253895   2.981   6.759  14.451  0.3966  0.1214 -0.2149
10827TIP3    H153896   3.058   6.703  14.440 -0.1939 -1.8916  3.8270
10827TIP3    H253897   3.011   6.828  14.511 -0.2859  0.8989 -0.7562
10828TIP3   OH253898   0.823   2.520   4.926 -0.5565 -0.5059 -0.2614
10828TIP3    H153899   0.750   2.473   4.965 -0.7567  1.3030  1.7061
10828TIP3    H253900   0.788   2.607   4.906  0.9287  0.2725  0.3846
10829TIP3   OH253901   4.961   1.622  16.722 -0.0345  0.5743  0.2823
10829TIP3    H153902   4.875   1.663  16.717  0.0121  0.5395 -1.3364
10829TIP3    H253903   5.018   1.677  16.668  0.0887 -1.3861 -1.7732
10830TIP3   OH253904   5.482   6.563  13.865 -0.0682  0.5909 -0.3700
10830TIP3    H153905   5.548   6.612  13.914  0.0566  1.8564 -1.7277
10830TIP3    H253906   5.500   6.584  13.773 -1.7436  0.1565 -0.8338
10831TIP3   OH253907   4.421   4.432   2.545 -0.4314 -0.3104  0.1935
10831TIP3    H153908   4.328   4.452   2.540 -0.5778 -1.1442 -0.8325
10831TIP3    H253909   4.445   4.406   2.456  0.9141  0.4350  0.3138
10832TIP3   OH253910   0.698   4.771   0.646  0.0367 -0.1414  0.0551
10832TIP3    H153911   0.689   4.843   0.709  1.1025  0.5788 -0.5920
10832TIP3    H253912   0.608   4.748   0.624 -0.4175 -1.1098  2.5805
10833TIP3   OH253913   3.925   1.473   3.703  0.1377 -0.9583  0.2470
10833TIP3    H153914   3.990   1.404   3.689 -0.5554 -1.6472  0.3931
10833TIP3    H253915   3.868   1.467   3.626  0.9602  0.4740 -0.5187
10834TIP3   OH253916   3.641   1.552  15.698 -0.1107  0.5681 -0.1273
10834TIP3    H153917   3.703   1.488  15.732  0.3415  0.4044 -1.2177
10834TIP3    H253918   3.690   1.634  15.696  0.5520  0.1779 -2.2397
10835TIP3   OH253919   3.221   3.407  14.023 -0.0317 -0.6246 -0.1900
10835TIP3    H153920   3.157   3.379  13.957  0.2087 -0.9013 -0.3030
10835TIP3    H253921   3.182   3.381  14.107  0.9334 -2.8112 -0.3672
10836TIP3   OH253922   6.404   6.419   0.503 -0.4915  0.0500  0.2716
10836TIP3    H153923   6.376   6.368   0.427  0.5660  0.0281 -0.1278
10836TIP3    H253924   6.405   6.355   0.575  0.5624 -0.4548 -0.1676
10837TIP3   OH253925   0.538   6.597   4.805 -0.2609 -0.6583 -0.3654
10837TIP3    H153926   0.572   6.512   4.776  0.6889 -0.6672  0.7063
10837TIP3    H253927   0.449   6.600   4.769 -0.4934 -2.3234 -0.0491
10838TIP3   OH253928   5.843   1.481  11.923 -0.5209 -0.4810  0.4330
10838TIP3    H153929   5.802   1.541  11.861  0.7586 -0.7987 -0.7592
10838TIP3    H253930   5.770   1.435  11.963 -1.3543 -1.0983 -1.6794
10839TIP3   OH253931   0.016   3.605   4.386 -0.1289  0.1045 -0.3216
10839TIP3    H153932   0.002   3.649   4.470  1.9527  2.4315 -1.0720
10839TIP3    H253933  -0.064   3.623   4.336 -0.1775  1.2898  0.1418
10840TIP3   OH253934   6.111   6.250   2.525  0.2225  0.0499 -0.3542
10840TIP3    H153935   6.058   6.202   2.589  1.5707 -2.7934 -1.1819
10840TIP3    H253936   6.049   6.311   2.483 -2.0287 -1.9120 -0.1332
10841TIP3   OH253937   6.374   0.433   2.943  0.0799  0.4170  0.2219
10841TIP3    H153938   6.384   0.385   3.025 -0.5314 -0.1829 -0.0470
10841TIP3    H253939   6.280   0.447   2.934  0.2483  1.8330  0.3740
10842TIP3   OH253940   1.642   2.951  14.470  0.0296  0.4512  0.5833
10842TIP3    H153941   1.647   2.873  14.416 -0.5484 -0.4615  1.8000
10842TIP3    H253942   1.554   2.950  14.508  0.2373  1.3289  1.1422
10843TIP3   OH253943   6.417   6.295  13.767 -0.1834 -0.6282 -0.2398
10843TIP3    H153944   6.448   6.307  13.678  1.8115  0.0465  0.4869
10843TIP3    H253945   6.322   6.302  13.761 -0.1254 -1.1081 -2.3651
10844TIP3   OH253946   4.020   5.568   4.835 -0.4870  0.2040 -0.1613
10844TIP3    H153947   3.928   5.563   4.861  0.1465  0.5359  2.4019
10844TIP3    H253948   4.058   5.635   4.891  1.6141 -0.8902 -0.1551
10845TIP3   OH253949   6.735   5.568  15.080 -0.3572 -0.0255 -0.4512
10845TIP3    H153950   6.827   5.555  15.101 -0.3789 -2.6638 -1.6287
10845TIP3    H253951   6.688   5.504  15.133 -1.2946 -0.1029 -1.3307
10846TIP3   OH253952   2.371   1.235  11.740 -0.3361 -0.2529 -0.5365
10846TIP3    H153953   2.407   1.324  11.736  0.0294 -0.3417  0.5401
10846TIP3    H253954   2.386   1.200  11.653  0.6386  0.3209 -0.6208
10847TIP3   OH253955   2.171   0.737   2.033  0.2037 -0.2752 -0.2273
10847TIP3    H153956   2.179   0.676   2.107 -0.2220 -0.8718 -0.6558
10847TIP3    H253957   2.213   0.692   1.960 -1.3218 -0.6802 -0.8939
10848TIP3   OH253958   1.319   2.743   1.242  0.3799  0.0267 -0.5662
10848TIP3    H153959   1.283   2.815   1.294  1.9495  1.4410 -1.3181
10848TIP3    H253960   1.314   2.774   1.151 -0.1914 -1.4239 -1.0594
10849TIP3   OH253961   2.201   5.388  12.048  0.0928  0.6226 -0.0011
10849TIP3    H153962   2.164   5.318  11.994  0.6539  0.3377 -0.0195
10849TIP3    H253963   2.125   5.426  12.092 -0.4242  1.1212 -1.2827
10850TIP3   OH253964   2.020   0.126   0.250  0.1407 -0.3334 -0.1143
10850TIP3    H153965   1.960   0.067   0.295 -0.1711 -0.6696 -0.9346
10850TIP3    H253966   2.096   0.072   0.228  0.5402 -0.0308  0.4949
10851TIP3   OH253967   4.784   1.532   2.780  0.6964 -0.2403  0.1860
10851TIP3    H153968   4.857   1.559   2.725  0.1549 -0.0815 -0.4728
10851TIP3    H253969   4.820   1.464   2.837  1.7400  0.9023  0.9370
10852TIP3   OH253970   0.326   5.083   1.570  0.5465 -0.1604 -0.4994
10852TIP3    H153971   0.393   5.122   1.625  1.4636  0.2667 -1.8541
10852TIP3    H253972   0.244   5.120   1.602  0.9798 -0.4327  0.9737
10853TIP3   OH253973   1.244   5.995  14.961 -0.5284  0.1384  0.2883
10853TIP3    H153974   1.325   6.009  14.911 -0.9278 -0.0467 -0.4200
10853TIP3    H253975   1.261   6.037  15.045  0.0948  0.6043 -0.0580
10854TIP3   OH253976   1.364   5.869   0.050 -0.4529  0.1002  0.4271
10854TIP3    H153977   1.447   5.896   0.090 -0.1589 -0.8383  0.4711
10854TIP3    H253978   1.332   5.799   0.106 -0.5047 -0.6008 -0.4542
10855TIP3   OH253979   6.439   5.125   1.111  0.3008  0.0716 -0.3412
10855TIP3    H153980   6.429   5.040   1.070  2.3409  1.2065 -3.5868
10855TIP3    H253981   6.404   5.187   1.047  0.0597  1.7927  1.3535
10856TIP3   OH253982   3.167   0.525  12.565 -0.1061  0.0454  0.0404
10856TIP3    H153983   3.076   0.544  12.590  0.3969 -0.0519  2.0428
10856TIP3    H253984   3.160   0.447  12.510 -1.3153  0.6295 -0.6799
10857TIP3   OH253985   0.200   6.004  16.625  0.2064 -0.0562  0.4021
10857TIP3    H153986   0.256   5.959  16.560  1.7085  1.5441  0.5250
10857TIP3    H253987   0.162   6.077  16.577 -0.8278 -0.4098  0.6617
10858TIP3   OH253988   4.244   3.110  16.209 -0.3436 -0.2947  0.3064
10858TIP3    H153989   4.219   3.170  16.279  2.2537  2.0669 -0.6106
10858TIP3    H253990   4.311   3.054  16.249  0.9830  0.9109 -0.1710
10859TIP3   OH253991   2.913   2.514   2.851 -0.0735 -0.1583 -0.2927
10859TIP3    H153992   2.853   2.502   2.778  1.1719  0.1784 -1.4052
10859TIP3    H253993   2.972   2.585   2.824 -0.9898  1.6319  1.9861
10860TIP3   OH253994   5.942   2.149   5.125  0.2057  0.1105  0.0764
10860TIP3    H153995   6.019   2.109   5.083  0.0892 -0.6989  0.6088
10860TIP3    H253996   5.884   2.170   5.052  0.5706 -0.0648 -0.2704
10861TIP3   OH253997   3.137   5.721   0.587  0.5070 -0.2693 -0.5709
10861TIP3    H153998   3.127   5.643   0.532 -0.5238 -0.0524 -0.7218
10861TIP3    H253999   3.206   5.772   0.544  1.9718 -1.5751  0.1304
10862TIP3   OH254000   3.149   0.644  15.620  0.5229 -0.1363 -0.2061
10862TIP3    H154001   3.236   0.647  15.581  0.3566  0.8170 -0.5168
10862TIP3    H254002   3.091   0.613  15.550  0.6024 -0.7708  0.0001
10863TIP3   OH254003   4.890   2.384  16.577 -0.0773 -0.1061 -0.5191
10863TIP3    H154004   4.945   2.329  16.632 -0.7500 -0.0336  0.2399
10863TIP3    H254005   4.952   2.438  16.528  0.5729 -1.2762 -1.0090
10864TIP3   OH254006   5.473   6.655  14.482 -0.2755 -0.2887 -0.3891
10864TIP3    H154007   5.530   6.715  14.531  1.2511 -1.5953 -0.4952
10864TIP3    H254008   5.468   6.693  14.395 -0.7888  0.6231  0.0276
10865TIP3   OH254009   5.662   1.818  11.330  0.2795  0.0054 -0.1268
10865TIP3    H154010   5.643   1.854  11.417 -2.2484 -1.6269  0.0735
10865TIP3    H254011   5.577   1.796  11.293  1.3971 -0.8884 -2.3830
10866TIP3   OH254012   2.814   6.730  10.922 -0.1195 -0.1998  0.3182
10866TIP3    H154013   2.833   6.728  11.016  1.1215 -1.0146  0.0598
10866TIP3    H254014   2.818   6.638  10.894  0.8799  0.1597 -0.7892
10867TIP3   OH254015   5.954   2.568  11.798  0.5654  0.2152 -0.2730
10867TIP3    H154016   5.923   2.493  11.849 -0.7522  0.2763 -0.9492
10867TIP3    H254017   5.954   2.641  11.860  0.0738  0.0506 -0.0768
10868TIP3   OH254018   4.431   1.495   3.220 -0.5280  0.3432  0.0450
10868TIP3    H154019   4.485   1.573   3.231 -0.4660  0.4764 -1.0439
10868TIP3    H254020   4.427   1.455   3.307  2.7414 -0.6115 -0.1443
10869TIP3   OH254021   2.540   5.702   0.667  0.0453  0.0834  0.3375
10869TIP3    H154022   2.590   5.783   0.675  0.3745  0.5063 -3.8413
10869TIP3    H254023   2.579   5.656   0.593 -4.0381 -0.7482 -1.6051
10870TIP3   OH254024   2.020   3.481  12.213 -0.1921  0.0676  0.5472
10870TIP3    H154025   2.082   3.447  12.277  1.0701  0.0629 -0.6307
10870TIP3    H254026   1.934   3.465  12.252  0.4431 -2.1201  1.1683
10871TIP3   OH254027   1.580   3.884   1.170 -0.4912 -0.1206  0.1641
10871TIP3    H154028   1.663   3.859   1.211  0.2776 -0.1894 -1.3679
10871TIP3    H254029   1.540   3.945   1.233  2.4371  2.8499 -0.5362
10872TIP3   OH254030   0.045   3.024  15.357 -0.1073 -0.2726  0.1671
10872TIP3    H154031   0.005   3.109  15.374  0.0303 -0.3636  0.9745
10872TIP3    H254032   0.137   3.043  15.342 -0.3195 -0.1265 -1.1511
10873TIP3   OH254033   0.819   1.169  15.017  0.4210 -0.0579 -0.1131
10873TIP3    H154034   0.754   1.156  14.947 -0.6145  1.1120  0.6008
10873TIP3    H254035   0.858   1.254  14.997  0.4563  0.0629  0.4733
10874TIP3   OH254036   3.455   5.644  11.889 -0.2381  0.6808 -0.3255
10874TIP3    H154037   3.507   5.662  11.968 -0.9710  1.2220  0.0536
10874TIP3    H254038   3.447   5.729  11.846 -0.8663  0.6204 -0.3374
10875TIP3   OH254039   5.657   1.494  16.370 -0.1755 -0.1201  0.2790
10875TIP3    H154040   5.750   1.488  16.347  0.2062  1.3601  1.3373
10875TIP3    H254041   5.647   1.432  16.442  0.4470  1.0388  1.4091
10876TIP3   OH254042   3.569   3.979  12.875 -0.0194  0.4062 -0.1018
10876TIP3    H154043   3.589   4.037  12.802 -0.2586  2.2177  1.2051
10876TIP3    H254044   3.523   3.905  12.835  0.1300  1.1866 -1.8017
10877TIP3   OH254045   1.088   3.858   5.615  0.0640 -0.6485 -0.0946
10877TIP3    H154046   1.080   3.806   5.695 -0.5670  0.0061  0.2709
10877TIP3    H254047   1.129   3.940   5.644  3.4245 -1.8016 -1.0338
10878TIP3   OH254048   1.756   1.206  11.854  0.2820  0.8247  0.6991
10878TIP3    H154049   1.839   1.160  11.865  0.0545 -0.4000 -1.9936
10878TIP3    H254050   1.689   1.143  11.881  0.1215  1.0073  0.7336
10879TIP3   OH254051   0.023   2.977   3.945  0.3042  0.2864 -0.5349
10879TIP3    H154052  -0.018   3.020   4.020 -0.7546  3.2487 -2.6147
10879TIP3    H254053   0.044   2.889   3.976 -1.2167  0.9456  2.8010
10880TIP3   OH254054   1.643   4.476  14.258 -0.9112 -0.1314  0.7878
10880TIP3    H154055   1.614   4.501  14.345 -0.5410  1.2028  0.5501
10880TIP3    H254056   1.724   4.428  14.272  1.4599  3.5668  1.0639
10881TIP3   OH254057   2.587   6.774  13.099 -0.0567  0.2454  0.3146
10881TIP3    H154058   2.642   6.779  13.021 -2.4632  2.0274 -1.4159
10881TIP3    H254059   2.579   6.865  13.128 -0.4389 -0.2226  1.7404
10882TIP3   OH254060   4.360   2.446   2.062  0.0730 -0.2225 -0.4362
10882TIP3    H154061   4.372   2.441   1.967 -0.4655 -0.4721 -0.4936
10882TIP3    H254062   4.273   2.485   2.073  0.2424  0.0500 -0.0410
10883TIP3   OH254063   4.389   4.630  16.865  0.1453  0.2691  0.4796
10883TIP3    H154064   4.343   4.667  16.790 -1.8307 -0.1087  1.4480
10883TIP3    H254065   4.388   4.700  16.931 -0.9544 -0.4375  1.2503
10884TIP3   OH254066   3.772   1.876   2.993  0.2280  0.0831 -0.0224
10884TIP3    H154067   3.753   1.782   2.992 -2.0900  0.4816 -1.8141
10884TIP3    H254068   3.816   1.891   2.909 -0.5619  0.7882 -0.3142
10885TIP3   OH254069   5.433   6.146  13.594 -0.2259  0.1827  0.2616
10885TIP3    H154070   5.484   6.136  13.675 -0.7238 -0.6981  0.4736
10885TIP3    H254071   5.393   6.233  13.602 -0.2460  0.1164  0.9484
10886TIP3   OH254072   3.572   5.214  14.969 -0.3995  0.4594 -0.0321
10886TIP3    H154073   3.481   5.237  14.949 -0.3249  0.8217  0.0310
10886TIP3    H254074   3.608   5.186  14.886 -0.0350  2.1499 -0.4848
10887TIP3   OH254075   2.123   4.479  16.209  0.2315 -0.1626 -0.5906
10887TIP3    H154076   2.095   4.423  16.281  0.6939 -1.3450 -1.3155
10887TIP3    H254077   2.216   4.460  16.198  0.1534 -0.0196 -1.5324
10888TIP3   OH254078   2.669   0.365  16.937  0.0973 -0.3098 -0.3713
10888TIP3    H154079   2.582   0.326  16.924  0.3875 -0.7850 -0.9257
10888TIP3    H254080   2.664   0.449  16.893 -0.4837  0.2442  0.6980
10889TIP3   OH254081   6.562   3.089   5.718  0.1029  0.5717  0.3772
10889TIP3    H154082   6.513   3.060   5.641  0.2250  0.6741  0.2592
10889TIP3    H254083   6.495   3.117   5.780 -0.0038  0.2776  0.3951
10890TIP3   OH254084   0.375   5.152  11.940 -1.0808  0.7122  0.4323
10890TIP3    H154085   0.471   5.153  11.942 -0.9897 -1.7105  2.4856
10890TIP3    H254086   0.353   5.062  11.914 -2.7525  0.8425  1.2580
10891TIP3   OH254087   4.357   5.990  11.200 -0.7532  0.2215  0.5784
10891TIP3    H154088   4.450   6.007  11.182 -1.1297  2.1434  0.2065
10891TIP3    H254089   4.322   5.963  11.115 -0.6538  0.0443  0.5930
10892TIP3   OH254090   3.615   5.074   1.510 -0.5796  0.0668 -0.4889
10892TIP3    H154091   3.570   5.113   1.434 -1.3059 -1.1992 -0.7499
10892TIP3    H254092   3.619   4.980   1.489  1.0056 -0.0324  0.1552
10893TIP3   OH254093   6.296   5.302   5.143  0.0186 -0.0268  0.0540
10893TIP3    H154094   6.245   5.318   5.064 -0.2399  0.6765  0.3489
10893TIP3    H254095   6.377   5.352   5.130 -0.6993  1.4265  0.8902
10894TIP3   OH254096   4.592   0.963  13.269 -0.1490 -0.0291 -0.2430
10894TIP3    H154097   4.604   0.885  13.322 -1.0920 -1.2548 -1.7517
10894TIP3    H254098   4.680   0.989  13.244  0.1722 -0.5715  0.2963
10895TIP3   OH254099   4.942   2.172  13.086  0.4925 -0.1733  0.0138
10895TIP3    H154100   4.918   2.265  13.090 -0.0605 -0.2835 -0.6427
10895TIP3    H254101   5.005   2.161  13.158 -1.8887 -0.0046  2.3024
10896TIP3   OH254102   3.155   5.012   1.408 -0.1092 -0.5152  0.0175
10896TIP3    H154103   3.235   5.004   1.356 -0.5564  0.5528 -0.8791
10896TIP3    H254104   3.178   5.073   1.478 -0.1288 -0.2178 -0.2335
10897TIP3   OH254105   6.706   3.255  12.970 -0.3105 -0.1562  0.0142
10897TIP3    H154106   6.748   3.334  12.934 -2.0452  0.4711 -0.7624
10897TIP3    H254107   6.754   3.182  12.931  0.6726  0.5165 -0.0679
10898TIP3   OH254108   0.510   4.117  15.463  0.3734 -0.1986  0.1440
10898TIP3    H154109   0.545   4.071  15.539  0.3131 -1.1165 -0.3645
10898TIP3    H254110   0.420   4.138  15.487  0.0537 -1.3152 -0.0053
10899TIP3   OH254111   5.765   1.789  10.565 -0.2260 -0.3814 -0.1918
10899TIP3    H154112   5.842   1.749  10.605  1.1899  0.4985 -1.8917
10899TIP3    H254113   5.716   1.716  10.528 -1.0146 -1.1002  2.0860
10900TIP3   OH254114   4.230   5.646  17.179  0.3466  0.1193 -0.0198
10900TIP3    H154115   4.164   5.716  17.176 -0.0512 -0.1871  1.0793
10900TIP3    H254116   4.236   5.615  17.088 -1.5995 -0.3746 -0.0219
10901TIP3   OH254117   3.408   4.812   5.818 -0.4930 -0.2534  0.6089
10901TIP3    H154118   3.328   4.843   5.860 -1.5413 -1.8513 -0.1175
10901TIP3    H254119   3.437   4.740   5.874  0.3741  0.1954  0.7629
10902TIP3   OH254120   1.707   5.692   2.641  0.2571 -0.6015  0.3689
10902TIP3    H154121   1.666   5.717   2.724  1.3004  1.8440  0.2385
10902TIP3    H254122   1.800   5.715   2.652  0.8846 -2.3555 -0.7175
10903TIP3   OH254123   4.533   4.393  16.775  0.2483 -0.5007  0.2648
10903TIP3    H154124   4.476   4.446  16.831 -3.5526 -0.8672 -2.8251
10903TIP3    H254125   4.592   4.455  16.734 -0.4975  0.5222  0.7007
10904TIP3   OH254126   4.222   0.875  11.413 -0.9286 -0.2739 -0.0296
10904TIP3    H154127   4.282   0.803  11.392 -2.8740 -1.7704 -0.7161
10904TIP3    H254128   4.251   0.905  11.500  0.1999 -1.5774  0.0803
10905TIP3   OH254129   2.177   5.339  11.536 -0.5541 -0.1913 -0.3108
10905TIP3    H154130   2.271   5.356  11.535 -0.8531  2.4027  2.1599
10905TIP3    H254131   2.142   5.386  11.461  0.0398 -0.9101 -1.0569
10906TIP3   OH254132   5.666   5.611  10.845 -0.3327  0.0508  0.1957
10906TIP3    H154133   5.601   5.557  10.800  0.7396 -0.0884 -1.2819
10906TIP3    H254134   5.728   5.548  10.882  1.0031  0.2013 -1.6561
10907TIP3   OH254135   1.820   3.728  14.306  0.1974  0.0326  0.3678
10907TIP3    H154136   1.728   3.720  14.283  0.4069 -0.2559 -0.3911
10907TIP3    H254137   1.846   3.640  14.335  0.2478  0.1024  0.5380
10908TIP3   OH254138   3.689   4.884  12.362 -0.1643 -0.2800 -0.5139
10908TIP3    H154139   3.657   4.937  12.435  2.2961  1.3965 -0.5337
10908TIP3    H254140   3.696   4.946  12.289  0.8485 -1.0885 -1.1266
10909TIP3   OH254141   6.689   3.087   2.454 -0.7625  0.4913 -0.8308
10909TIP3    H154142   6.764   3.042   2.492  1.3549  2.6987 -2.1618
10909TIP3    H254143   6.657   3.026   2.387  0.2687 -0.2209 -0.7014
10910TIP3   OH254144   0.232   1.551   3.323  1.0089 -0.7296  0.4260
10910TIP3    H154145   0.265   1.626   3.372  1.4516 -0.3521 -0.4165
10910TIP3    H254146   0.158   1.586   3.273  1.2083 -0.8551  0.0411
10911TIP3   OH254147   5.567   5.591  14.429  0.0525  0.1856  0.4621
10911TIP3    H154148   5.489   5.559  14.384 -0.2377  2.1496 -0.5323
10911TIP3    H254149   5.639   5.545  14.386 -0.4537 -0.5373  0.3669
10912TIP3   OH254150   0.686   1.740   5.754  0.5947 -0.1667  0.0523
10912TIP3    H154151   0.615   1.677   5.741  0.4820 -0.2387  0.9448
10912TIP3    H254152   0.710   1.767   5.666 -1.5894  1.0256 -0.2554
10913TIP3   OH254153   1.475   4.295   5.328 -0.4386 -0.0397 -0.1979
10913TIP3    H154154   1.472   4.390   5.343  0.4945  0.0463 -0.4969
10913TIP3    H254155   1.463   4.257   5.415  2.6399  0.4299  0.5534
10914TIP3   OH254156   5.156   1.809   5.771 -0.6382  0.4257  0.0322
10914TIP3    H154157   5.190   1.880   5.717 -0.9655  0.4823 -0.1026
10914TIP3    H254158   5.150   1.846   5.859  0.1690  0.2450  0.1677
10915TIP3   OH254159   3.467   5.548   4.974 -0.2429  0.4204 -0.4347
10915TIP3    H154160   3.493   5.482   5.038  0.3912  0.1215 -0.9854
10915TIP3    H254161   3.371   5.552   4.981 -0.2529 -0.2602 -0.1071
10916TIP3   OH254162   1.696   0.907  16.088 -0.0757  0.6234  0.2863
10916TIP3    H154163   1.652   0.823  16.101  3.7870 -1.6137  0.7388
10916TIP3    H254164   1.667   0.960  16.162 -1.6760 -0.7579  0.7216
10917TIP3   OH254165   1.496   6.525  16.511 -0.1473 -0.1940 -0.0812
10917TIP3    H154166   1.522   6.472  16.586  1.3514  0.8809  0.2076
10917TIP3    H254167   1.457   6.604  16.550  2.5547  1.3545 -0.2772
10918TIP3   OH254168   5.150   4.391   3.792 -0.0529  0.0367  0.7083
10918TIP3    H154169   5.171   4.359   3.705  3.3061  2.8643  0.2136
10918TIP3    H254170   5.095   4.468   3.777  2.5117  2.0436  0.6321
10919TIP3   OH254171   4.868   6.766  12.284 -0.3347 -0.3055  0.0107
10919TIP3    H154172   4.892   6.674  12.299  0.1163  0.0576  1.5842
10919TIP3    H254173   4.927   6.816  12.340 -1.2588  0.8975 -0.0626
10920TIP3   OH254174   0.436   4.618  12.556 -0.1815  0.4377  0.3857
10920TIP3    H154175   0.396   4.532  12.560  0.0856  0.3099  0.3265
10920TIP3    H254176   0.416   4.658  12.641  2.3599 -0.8814  1.6906
10921TIP3   OH254177   4.752   3.490   2.102 -0.2821  0.2497  0.4783
10921TIP3    H154178   4.712   3.418   2.151 -0.4033  0.4410  0.6657
10921TIP3    H254179   4.832   3.510   2.151  0.8556 -1.1382 -0.7458
10922TIP3   OH254180   6.683   3.106  16.981  0.6543 -0.3302  0.3855
10922TIP3    H154181   6.732   3.118  17.063  0.1802 -4.1118  1.3755
10922TIP3    H254182   6.591   3.111  17.007  0.4800  0.4279 -0.3285
10923TIP3   OH254183   2.137   1.280   1.949  0.4167 -0.6310 -0.9353
10923TIP3    H154184   2.121   1.225   2.025  1.8225  0.2252  0.0299
10923TIP3    H254185   2.053   1.282   1.902 -0.8365 -0.2581  1.1996
10924TIP3   OH254186   6.771   4.723  13.944 -0.7371  0.0456 -0.0773
10924TIP3    H154187   6.819   4.790  13.896  0.8711 -0.9741  0.0554
10924TIP3    H254188   6.807   4.726  14.033  1.0849 -2.5282 -0.6217
10925TIP3   OH254189   3.989   4.321   0.549  0.3136  1.2261 -0.0524
10925TIP3    H154190   4.052   4.343   0.480  1.0537  0.2066  0.2838
10925TIP3    H254191   4.039   4.324   0.630  0.1695 -0.4220  0.1404
10926TIP3   OH254192   5.841   0.318  16.096 -0.6613 -0.6211 -0.1669
10926TIP3    H154193   5.768   0.335  16.037 -0.8199 -0.5302  0.0534
10926TIP3    H254194   5.900   0.392  16.082  0.1362 -1.4698 -1.4765
10927TIP3   OH254195   0.607   4.335   0.920 -0.3765 -0.6164  0.1463
10927TIP3    H154196   0.598   4.239   0.920  1.8470 -0.9406 -2.0310
10927TIP3    H254197   0.552   4.364   0.848  1.4854 -0.7115 -1.4128
10928TIP3   OH254198   0.088   6.531   4.473  0.1217  0.3414 -0.0599
10928TIP3    H154199   0.143   6.491   4.405 -0.0390  1.0051 -0.5902
10928TIP3    H254200   0.021   6.580   4.425  0.3427  1.2932  0.5668
10929TIP3   OH254201   0.877   0.568  14.260  0.2762  0.1495  0.3741
10929TIP3    H154202   0.916   0.511  14.326  4.0469 -0.8409 -2.3504
10929TIP3    H254203   0.952   0.606  14.214 -2.1009  1.9586 -2.3623
10930TIP3   OH254204   4.939   3.214  15.796  0.3242  0.5586  0.1677
10930TIP3    H154205   5.006   3.248  15.855  1.2916  0.3742 -0.7786
10930TIP3    H254206   4.875   3.173  15.854  1.1464  0.5307  1.0980
10931TIP3   OH254207   5.232   0.647   3.019  0.0230  0.4897 -0.0550
10931TIP3    H154208   5.261   0.727   2.976 -3.1420  1.3614 -0.7815
10931TIP3    H254209   5.276   0.577   2.970  0.8930  1.6575 -1.0175
10932TIP3   OH254210   5.601   1.129   5.515 -0.2427 -0.5152  0.4121
10932TIP3    H154211   5.553   1.095   5.440 -0.3505  0.7680 -0.1420
10932TIP3    H254212   5.533   1.152   5.579 -0.3425  0.5571 -0.0530
10933TIP3   OH254213   0.849   5.428   5.956 -0.1247 -0.0241  0.7044
10933TIP3    H154214   0.809   5.383   6.031  1.0616 -1.5694  0.4846
10933TIP3    H254215   0.840   5.521   5.976 -1.5251 -0.3611  1.8407
10934TIP3   OH254216   0.622   2.173   2.717  1.1017 -0.2467  0.9850
10934TIP3    H154217   0.683   2.166   2.644 -1.5390 -0.1703 -1.3738
10934TIP3    H254218   0.551   2.112   2.695 -0.5077  0.8927  2.7188
10935TIP3   OH254219   0.319   0.583  13.713 -0.1701 -0.4184 -0.2837
10935TIP3    H154220   0.379   0.567  13.640  0.3405  0.8646 -0.1753
10935TIP3    H254221   0.319   0.678  13.723 -0.4307 -0.5610  1.2282
10936TIP3   OH254222   1.245   3.076  12.586  0.1449 -0.2681 -0.0033
10936TIP3    H154223   1.303   3.053  12.513 -0.9823 -1.2865 -0.6284
10936TIP3    H254224   1.253   3.003  12.647 -2.1004 -1.6285 -1.1583
10937TIP3   OH254225   3.987   1.211   2.833 -0.0454  0.0994 -0.9724
10937TIP3    H154226   3.902   1.199   2.874 -0.6041  2.2153 -1.3965
10937TIP3    H254227   4.050   1.173   2.895 -1.2318 -1.2258 -0.5221
10938TIP3   OH254228   3.382   5.073  12.055  0.0129  0.0770 -0.1031
10938TIP3    H154229   3.408   5.117  11.975  1.2781  0.4628  0.5028
10938TIP3    H254230   3.414   5.129  12.126  0.4556 -1.1136  0.6743
10939TIP3   OH254231   3.034   4.404   1.081 -0.3614 -0.0156  0.0673
10939TIP3    H154232   2.941   4.423   1.091 -0.2432  1.7984 -1.4837
10939TIP3    H254233   3.073   4.489   1.057  1.5391 -0.8961 -0.1855
10940TIP3   OH254234   0.434   0.433  11.203  0.0822 -0.0560 -0.2582
10940TIP3    H154235   0.455   0.361  11.143  4.3327  0.1804  0.5954
10940TIP3    H254236   0.510   0.491  11.197 -1.6841  2.6828  1.5757
10941TIP3   OH254237   6.087   5.614   6.194  0.1474 -0.6699 -0.1189
10941TIP3    H154238   5.996   5.619   6.166  0.3705 -0.1512 -0.7728
10941TIP3    H254239   6.137   5.652   6.122  1.0225 -2.4615 -0.5117
10942TIP3   OH254240   5.308   5.454   3.515 -0.6696  0.3719 -0.3727
10942TIP3    H154241   5.271   5.538   3.486 -2.1059  0.6031  1.9151
10942TIP3    H254242   5.244   5.389   3.488 -0.3877  0.1952 -0.6264
10943TIP3   OH254243   4.643   1.195   5.056  0.2565 -0.2431  0.0012
10943TIP3    H154244   4.663   1.265   4.994 -1.5071 -0.3184 -0.7186
10943TIP3    H254245   4.681   1.224   5.138  2.2249  0.1014 -0.9623
10944TIP3   OH254246   0.228   0.146  13.374 -0.5489 -0.4587 -0.0682
10944TIP3    H154247   0.242   0.162  13.467 -1.4183  2.5089 -0.3351
10944TIP3    H254248   0.293   0.201  13.330  0.9954 -3.0757 -1.3148
10945TIP3   OH254249   4.483   3.830   2.636 -0.4993 -0.0892 -0.1447
10945TIP3    H154250   4.512   3.810   2.547 -0.5341  0.3129 -0.2494
10945TIP3    H254251   4.392   3.855   2.626 -1.1953 -2.2369  0.2975
10946TIP3   OH254252   2.146   6.499  13.354  0.2704 -0.0852 -0.1947
10946TIP3    H154253   2.093   6.579  13.357  0.0992 -0.2132  0.1653
10946TIP3    H254254   2.232   6.529  13.326 -0.0232  0.1078 -0.9193
10947TIP3   OH254255   0.545   5.273   0.680 -0.1426  0.0261  0.5774
10947TIP3    H154256   0.512   5.317   0.758  0.4436  0.7370  0.4345
10947TIP3    H254257   0.482   5.295   0.611 -0.7132 -0.6821  0.8609
10948TIP3   OH254258   1.686   1.608  16.232 -0.9120  0.4433 -0.4419
10948TIP3    H154259   1.648   1.693  16.212 -2.4074 -0.0681  0.1197
10948TIP3    H254260   1.768   1.606  16.182 -1.2530  1.8697 -1.1009
10949TIP3   OH254261   2.603   6.566   2.916  0.3326  0.0348  0.5080
10949TIP3    H154262   2.600   6.569   3.012  2.5801 -1.2315  0.6979
10949TIP3    H254263   2.696   6.559   2.895 -0.0210  1.1522 -1.8443
10950TIP3   OH254264   1.630   4.811  16.752 -0.0267 -0.7658 -0.3847
10950TIP3    H154265   1.563   4.765  16.703 -0.4109  0.5427 -1.1245
10950TIP3    H254266   1.713   4.777  16.718 -0.2811 -2.1164  0.2757
10951TIP3   OH254267   4.915   0.865  14.921  0.1219 -0.2480  0.7477
10951TIP3    H154268   4.826   0.894  14.941  0.2926  0.5236  0.4269
10951TIP3    H254269   4.933   0.797  14.985  0.3838  1.6035  2.7567
10952TIP3   OH254270   6.611   4.035   5.820  0.0607  0.5229 -0.0323
10952TIP3    H154271   6.650   4.051   5.906  1.3345  1.9207 -0.8258
10952TIP3    H254272   6.559   4.113   5.802  0.3391  0.5368 -0.8033
10953TIP3   OH254273   0.856   2.126   2.531  0.1251 -0.2874 -0.4615
10953TIP3    H154274   0.837   2.073   2.454  1.7349 -1.1997 -0.2834
10953TIP3    H254275   0.924   2.077   2.577  0.6461  1.2395  0.4663
10954TIP3   OH254276   3.340   4.147  15.664  0.6929 -0.2962  0.4947
10954TIP3    H154277   3.405   4.079  15.646  0.2876 -0.6800  0.4835
10954TIP3    H254278   3.285   4.111  15.733  0.1440 -0.2039  0.1117
10955TIP3   OH254279   6.635   3.587  12.642  0.2433  0.0957  0.7390
10955TIP3    H154280   6.635   3.649  12.569  0.4929  3.3579  3.3152
10955TIP3    H254281   6.548   3.594  12.680  0.4544 -0.7594  1.4066
10956TIP3   OH254282   1.084   6.649  16.952  0.0422  0.1505  0.2942
10956TIP3    H154283   1.090   6.722  17.014  0.7138  0.5071 -0.1847
10956TIP3    H254284   1.152   6.588  16.981  0.7029  0.5534 -0.3933
10957TIP3   OH254285   0.862   3.482   1.167 -0.7568  0.3841 -0.3302
10957TIP3    H154286   0.919   3.493   1.091 -2.4343  0.1114 -1.7005
10957TIP3    H254287   0.791   3.545   1.154 -1.9855 -0.8488  0.0867
10958TIP3   OH254288   2.741   0.058  14.697  0.6453 -0.0449  0.1990
10958TIP3    H154289   2.760  -0.032  14.669  0.4475 -0.1513  0.4047
10958TIP3    H254290   2.731   0.052  14.792  2.2616  0.4795  0.4258
10959TIP3   OH254291   4.104   3.928   5.101 -0.5660 -0.0815 -0.4975
10959TIP3    H154292   4.093   3.947   5.194 -0.9847  1.6253 -0.8691
10959TIP3    H254293   4.024   3.961   5.060  0.8126  1.8359 -1.8001
10960TIP3   OH254294   3.381   6.508  14.951 -0.2730  0.1989  0.4741
10960TIP3    H154295   3.471   6.479  14.964  0.0540  0.6975 -0.5448
10960TIP3    H254296   3.328   6.452  15.008  0.8522  1.1907  2.6442
10961TIP3   OH254297   4.951   3.210  10.471 -0.0004  0.3435  0.0208
10961TIP3    H154298   4.890   3.270  10.429 -1.2653 -0.5741  0.4956
10961TIP3    H254299   5.006   3.267  10.525 -1.8960  1.0238  1.3461
10962TIP3   OH254300   4.573   5.546  13.662  1.4319  0.6411 -0.4858
10962TIP3    H154301   4.542   5.553  13.753  1.0907 -0.6909 -0.4865
10962TIP3    H254302   4.599   5.636  13.639 -2.8015  2.0407 -0.6316
10963TIP3   OH254303   3.486   5.773   0.156  0.2197 -0.1025 -0.1335
10963TIP3    H154304   3.504   5.699   0.214 -1.2617  0.2631  0.8507
10963TIP3    H254305   3.482   5.849   0.215  1.2194  0.6963 -1.0562
10964TIP3   OH254306   1.363   3.657  13.680  0.1286  0.5478  0.4420
10964TIP3    H154307   1.403   3.689  13.761 -1.3239 -1.3341  2.0085
10964TIP3    H254308   1.323   3.734  13.641  2.8228  1.9534  0.2282
10965TIP3   OH254309   4.410   1.352   3.645  0.4194  0.1841  0.8842
10965TIP3    H154310   4.449   1.416   3.584  0.3774  1.0733  1.7702
10965TIP3    H254311   4.381   1.405   3.719 -1.9014 -0.5446  0.5496
10966TIP3   OH254312   5.773   0.274  15.591 -0.2120 -0.0233  0.1552
10966TIP3    H154313   5.825   0.350  15.618 -0.7375 -0.1896  1.7244
10966TIP3    H254314   5.704   0.310  15.536 -1.1262  0.8122  1.8026
10967TIP3   OH254315   2.750   0.997  14.686  0.5423 -0.1458 -0.1111
10967TIP3    H154316   2.761   1.078  14.736  0.2786  0.0978 -0.4424
10967TIP3    H254317   2.798   1.012  14.605 -1.6667  0.7403 -1.3527
10968TIP3   OH254318   6.055   2.895   3.266  0.1550  0.7122  0.2824
10968TIP3    H154319   6.128   2.834   3.272  0.9589  1.7357  1.3326
10968TIP3    H254320   5.988   2.860   3.325 -0.8545 -0.9919 -1.7198
10969TIP3   OH254321   0.058   6.595  13.940  0.7953 -0.3298 -0.3660
10969TIP3    H154322   0.036   6.591  13.847 -0.2463 -0.5633 -0.1293
10969TIP3    H254323   0.021   6.679  13.970 -1.4231 -1.4930  0.4123
10970TIP3   OH254324   6.636   3.137   1.624  0.1153 -0.1493  0.5593
10970TIP3    H154325   6.713   3.142   1.568  0.8832 -0.3805  1.5644
10970TIP3    H254326   6.647   3.208   1.687  0.4219 -1.2601  1.8043
10971TIP3   OH254327   4.193   1.366  12.813 -0.2656  0.1175 -0.0999
10971TIP3    H154328   4.232   1.409  12.890 -0.4738  1.5244 -0.7552
10971TIP3    H254329   4.156   1.285  12.848 -2.1126  1.6228  1.7213
10972TIP3   OH254330   2.887   1.420   2.274  0.8956 -0.1843  0.2027
10972TIP3    H154331   2.911   1.497   2.223  1.2932 -1.1961 -1.2010
10972TIP3    H254332   2.792   1.424   2.280  0.8437 -0.0284 -0.6020
10973TIP3   OH254333   5.268   1.112  16.844  0.2379  0.0262  0.5474
10973TIP3    H154334   5.362   1.109  16.861  0.2983 -0.4715  0.1714
10973TIP3    H254335   5.230   1.152  16.922  0.7158 -0.2216  0.9123
10974TIP3   OH254336   4.251   5.760   4.049 -0.5163 -0.0171  0.5513
10974TIP3    H154337   4.172   5.809   4.027 -1.7843 -0.3272  3.7993
10974TIP3    H254338   4.227   5.668   4.035 -0.8771 -0.1232  1.6979
10975TIP3   OH254339   4.596   4.113  13.120 -0.0412  0.0855  0.5182
10975TIP3    H154340   4.645   4.035  13.092 -1.2550 -0.4979 -0.0751
10975TIP3    H254341   4.658   4.185  13.110  1.1775 -0.8064  1.2483
10976TIP3   OH254342   1.083   0.706   2.143 -0.1135  0.3333 -0.4011
10976TIP3    H154343   1.026   0.735   2.215 -0.1513  1.0633 -0.7223
10976TIP3    H254344   1.025   0.701   2.067  0.2888  1.2972 -0.7809
10977TIP3   OH254345   3.215   5.451   2.424 -0.3348 -0.7680  0.4825
10977TIP3    H154346   3.294   5.437   2.373 -1.3769 -0.6338 -1.2492
10977TIP3    H254347   3.185   5.539   2.400 -1.5458 -1.2039  0.3072
10978TIP3   OH254348   1.190   0.618   2.376 -0.8145 -0.0934 -0.1425
10978TIP3    H154349   1.163   0.595   2.287 -1.3780 -1.0113  0.2551
10978TIP3    H254350   1.277   0.582   2.386 -0.4488  0.6472 -0.5592
10979TIP3   OH254351   4.642   2.975  13.485 -0.2203  0.0863  0.5009
10979TIP3    H154352   4.684   3.060  13.472 -1.1030  0.4414 -0.1133
10979TIP3    H254353   4.715   2.915  13.504  0.4024  0.9925  1.0701
10980TIP3   OH254354   1.270   3.578  14.051 -0.6741  0.9709  0.2126
10980TIP3    H154355   1.357   3.606  14.082 -0.9666  1.1810  0.8791
10980TIP3    H254356   1.243   3.647  13.990 -0.5956  1.1859  0.4174
10981TIP3   OH254357   5.390   5.938  11.559 -0.0145  0.1419  0.1116
10981TIP3    H154358   5.341   5.870  11.604 -0.3468  0.9166  0.9405
10981TIP3    H254359   5.476   5.898  11.543 -0.9429 -1.3347 -1.6258
10982TIP3   OH254360   0.527   3.277  13.742 -0.1970  0.1257 -0.2557
10982TIP3    H154361   0.571   3.361  13.759  0.6988  0.0828 -2.1567
10982TIP3    H254362   0.445   3.302  13.698  1.3023 -0.0010 -3.3502
10983TIP3   OH254363   0.138   2.829  15.644 -0.1201  0.3337  0.0334
10983TIP3    H154364   0.159   2.772  15.570  2.4818 -0.1855  1.0657
10983TIP3    H254365   0.095   2.905  15.605  0.9211 -0.0390 -1.9751
10984TIP3   OH254366   1.204   3.884  13.604  0.5460 -0.2140  0.0683
10984TIP3    H154367   1.135   3.901  13.540 -0.9012 -0.2415  1.5613
10984TIP3    H254368   1.273   3.946  13.581 -0.8372  1.3136 -0.1841
10985TIP3   OH254369   3.330   5.148   2.009 -0.0985 -0.0619  0.7083
10985TIP3    H154370   3.367   5.104   1.932 -0.3352  0.0138  0.5474
10985TIP3    H254371   3.349   5.241   1.994  0.5470 -0.1292  1.1290
10986TIP3   OH254372   0.757   2.727   3.090 -0.1439  0.7252 -0.8949
10986TIP3    H154373   0.808   2.648   3.107 -1.0732  0.1588 -0.6711
10986TIP3    H254374   0.733   2.759   3.176  1.8474  2.3818 -0.8790
10987TIP3   OH254375   5.563   5.199  15.947  1.0871 -0.1819 -0.1654
10987TIP3    H154376   5.561   5.291  15.919  0.8270  0.0190  0.4908
10987TIP3    H254377   5.523   5.151  15.875  1.5553  0.1742 -0.6755
10988TIP3   OH254378   6.657   0.881   0.916 -0.0510 -0.3506 -0.3200
10988TIP3    H154379   6.704   0.877   0.999  0.7358 -0.2148 -0.7517
10988TIP3    H254380   6.625   0.971   0.910 -0.3529 -0.4351 -0.0425
10989TIP3   OH254381   6.482   3.521  14.368  0.0441  0.4281 -0.2320
10989TIP3    H154382   6.412   3.471  14.410  1.0505 -0.7959  0.0563
10989TIP3    H254383   6.549   3.529  14.435  0.7091  0.4736 -0.8858
10990TIP3   OH254384   5.271   6.607   2.491 -0.4403  0.2859 -0.1550
10990TIP3    H154385   5.195   6.618   2.547 -1.0389  1.2368 -1.1061
10990TIP3    H254386   5.306   6.695   2.480 -0.2112  0.0917 -1.0871
10991TIP3   OH254387   1.945   4.783   4.448  0.0252  0.2780 -0.1696
10991TIP3    H154388   1.863   4.742   4.420  0.4829  0.1993 -1.4877
10991TIP3    H254389   1.918   4.857   4.502 -0.8842 -0.2750  0.1504
10992TIP3   OH254390   2.923   2.072  14.940  0.0697 -0.1018  0.6407
10992TIP3    H154391   2.923   2.024  14.857 -0.7483  0.2133  0.4500
10992TIP3    H254392   3.016   2.091  14.956  0.3528 -1.2750  0.4546
10993TIP3   OH254393   0.135   5.564  14.561 -0.2955  0.2733  0.4112
10993TIP3    H154394   0.133   5.508  14.638  1.1537 -1.0146 -0.4253
10993TIP3    H254395   0.176   5.645  14.591  1.4785 -0.7038  0.7492
10994TIP3   OH254396   2.817   1.480  16.427  0.3341 -0.8008  0.0917
10994TIP3    H154397   2.773   1.400  16.399 -0.2296 -0.5260  0.1829
10994TIP3    H254398   2.859   1.456  16.510  0.2899 -1.0429  0.0434
10995TIP3   OH254399   5.702   4.893  11.490 -0.1462  0.3220 -0.4493
10995TIP3    H154400   5.617   4.850  11.495  0.2746 -0.4020  1.0945
10995TIP3    H254401   5.733   4.875  11.401 -0.6353 -1.3170 -0.3222
10996TIP3   OH254402   1.392   5.402   6.100  0.5538 -0.0808 -0.4766
10996TIP3    H154403   1.396   5.370   6.190 -1.2188  2.0461  0.4384
10996TIP3    H254404   1.347   5.486   6.106 -3.0129 -1.4385 -3.6883
10997TIP3   OH254405   4.721   2.182   5.154 -0.4415 -0.5285 -0.6950
10997TIP3    H154406   4.764   2.141   5.079 -0.3616  0.9296 -1.4812
10997TIP3    H254407   4.748   2.129   5.229  1.6430 -0.4702 -1.3404
10998TIP3   OH254408   1.440   0.199   4.994  0.0165  0.3209 -0.2821
10998TIP3    H154409   1.504   0.162   4.933 -1.1617 -1.2563 -0.6240
10998TIP3    H254410   1.372   0.236   4.939  1.0763  2.9670  0.0635
10999TIP3   OH254411   2.384   2.368  14.578  0.7608 -0.5474 -0.3365
10999TIP3    H154412   2.327   2.366  14.655  0.3764  1.4310 -0.5187
10999TIP3    H254413   2.340   2.427  14.517  1.1389 -1.9310 -2.0374
11000TIP3   OH254414   4.372   1.919  13.465 -0.1074  0.3023 -0.1496
11000TIP3    H154415   4.305   1.870  13.418 -0.6199  1.7775 -1.0354
11000TIP3    H254416   4.370   1.884  13.554  0.8015 -2.4797 -1.1272
11001TIP3   OH254417   5.791   4.369  12.991 -0.5470 -0.0042 -0.0697
11001TIP3    H154418   5.770   4.403  12.904 -1.8759  2.8946  1.2556
11001TIP3    H254419   5.709   4.376  13.040  0.4927 -0.2254  1.8015
11002TIP3   OH254420   6.591   3.915  14.879 -0.2564 -0.2595  0.4100
11002TIP3    H154421   6.600   4.008  14.858 -0.1175 -0.1736  0.8446
11002TIP3    H254422   6.649   3.902  14.954 -1.0012 -0.4873  0.9592
11003TIP3   OH254423   3.760   5.381   1.130  0.3049 -0.1370  0.2018
11003TIP3    H154424   3.801   5.295   1.117  0.9151  0.2516 -0.5205
11003TIP3    H254425   3.764   5.395   1.225  0.4828 -0.7672  0.2934
11004TIP3   OH254426   1.892   0.365   0.517 -0.1846  0.0131 -0.2216
11004TIP3    H154427   1.905   0.408   0.602  0.5919  0.5723 -0.6100
11004TIP3    H254428   1.798   0.345   0.515 -0.5355  1.4758  0.0897
11005TIP3   OH254429   2.694   5.025  17.184  0.2949  0.0355  0.0981
11005TIP3    H154430   2.789   5.020  17.181  0.4303  1.9903 -0.5584
11005TIP3    H254431   2.665   4.982  17.103  0.6423 -0.1417  0.0658
11006TIP3   OH254432   6.393   3.672   4.007 -0.3442 -0.1270 -0.1562
11006TIP3    H154433   6.304   3.707   4.017 -0.2051  0.4516 -0.9064
11006TIP3    H254434   6.391   3.625   3.924  0.2222  0.4208 -0.4854
11007TIP3   OH254435   4.428   0.090   2.785 -0.3949  0.1294  0.2314
11007TIP3    H154436   4.508   0.042   2.804 -0.7260 -0.6149 -0.1637
11007TIP3    H254437   4.377   0.085   2.866 -0.4897 -0.3285  0.1478
11008TIP3   OH254438   2.691   6.212   3.995  0.0417 -0.7151 -0.6020
11008TIP3    H154439   2.726   6.296   4.024 -0.6488 -0.8060  0.5568
11008TIP3    H254440   2.662   6.169   4.075 -2.9300 -0.5368 -1.4767
11009TIP3   OH254441   2.822   0.360   1.429 -0.3384  0.1397  0.5404
11009TIP3    H154442   2.814   0.454   1.448  0.6349 -0.0550  2.0046
11009TIP3    H254443   2.747   0.320   1.473 -1.1683  0.2733 -0.6868
11010TIP3   OH254444   5.492   4.987  15.048 -0.0107  0.6273  0.0821
11010TIP3    H154445   5.508   4.918  15.112  0.4821  0.7782  0.1244
11010TIP3    H254446   5.579   5.015  15.019 -0.0876  2.7015  1.6302
11011TIP3   OH254447   0.757   4.558   3.894  0.2896 -0.4637 -0.0175
11011TIP3    H154448   0.794   4.551   3.806  0.5281  0.1272  0.0313
11011TIP3    H254449   0.670   4.519   3.887  0.4478 -0.7418 -0.4324
11012TIP3   OH254450   5.064   1.218   2.122 -0.3713 -0.4990 -0.0073
11012TIP3    H154451   5.065   1.311   2.100  1.2938 -0.7488 -1.1157
11012TIP3    H254452   4.971   1.195   2.119 -0.6323  0.5036 -2.5509
11013TIP3   OH254453   5.785   2.313  11.927 -0.6532 -0.1405 -0.7820
11013TIP3    H154454   5.716   2.251  11.950  0.0901 -0.3469  1.0121
11013TIP3    H254455   5.863   2.282  11.974 -0.6250  2.9885  1.5713
11014TIP3   OH254456   5.661   3.640  11.419  0.9030 -0.1321  0.3249
11014TIP3    H154457   5.628   3.725  11.392 -0.0562 -0.4001  0.6148
11014TIP3    H254458   5.631   3.630  11.509  1.8010 -0.3863  0.6032
11015TIP3   OH254459   5.365   4.918   3.452 -0.2559  0.1372 -0.4879
11015TIP3    H154460   5.323   4.987   3.502  1.0606  1.4344 -1.0766
11015TIP3    H254461   5.456   4.919   3.482  0.4563  0.6118 -2.4657
11016TIP3   OH254462   1.269   0.488  14.514 -0.8395  0.6048 -0.1532
11016TIP3    H154463   1.191   0.453  14.470  0.8024 -2.0766 -1.1986
11016TIP3    H254464   1.254   0.469  14.607 -0.8844 -1.2716 -0.4922
11017TIP3   OH254465   6.270   0.570   5.535  0.0651  0.0051 -0.1030
11017TIP3    H154466   6.237   0.488   5.571  0.4296  0.5965  1.7141
11017TIP3    H254467   6.323   0.607   5.606 -0.6842  2.1402 -0.5723
11018TIP3   OH254468   0.123   4.580   2.555 -0.2294  0.1617  0.2618
11018TIP3    H154469   0.154   4.490   2.558 -0.1112  0.1672 -0.5376
11018TIP3    H254470   0.044   4.580   2.608 -0.9623 -0.7190 -0.7763
11019TIP3   OH254471   2.996   2.330  15.941  0.2541 -0.0631 -0.1072
11019TIP3    H154472   3.018   2.276  15.866  1.4556  0.3006 -0.0425
11019TIP3    H254473   3.081   2.362  15.973 -0.4445  2.6440 -0.7308
11020TIP3   OH254474   2.402   4.267   5.645 -0.0703 -0.3266 -0.1423
11020TIP3    H154475   2.367   4.353   5.620  0.4760 -0.1874 -0.4651
11020TIP3    H254476   2.328   4.220   5.681 -1.0514 -0.6741 -2.4135
11021TIP3   OH254477   2.551   2.210   6.732  0.3648 -0.3937  0.4262
11021TIP3    H154478   2.517   2.135   6.780  0.1187 -0.8292 -0.4167
11021TIP3    H254479   2.643   2.217   6.759  0.0935 -0.3096  1.3489
11022TIP3   OH254480   2.485   6.571  13.685  0.5207  0.4014 -0.5471
11022TIP3    H154481   2.393   6.548  13.683  0.5028  0.0883  1.5720
11022TIP3    H254482   2.503   6.606  13.598 -1.6944  0.8840 -0.8667
11023TIP3   OH254483   1.502   3.626  16.001  0.3846  0.2589  0.4123
11023TIP3    H154484   1.452   3.550  16.030  0.0957  0.0155 -0.6822
11023TIP3    H254485   1.580   3.626  16.056  0.1281 -0.5214  0.7814
11024TIP3   OH254486   3.463   2.286  14.358  0.4679 -0.1436  0.1401
11024TIP3    H154487   3.530   2.351  14.336 -0.6995  1.0152 -0.1038
11024TIP3    H254488   3.428   2.314  14.442 -0.2831 -0.2339 -0.1288
11025TIP3   OH254489   1.153   5.483   5.890  0.4426  0.3948  0.5265
11025TIP3    H154490   1.176   5.530   5.970 -0.7607  0.3954  0.8848
11025TIP3    H254491   1.071   5.523   5.861 -0.6030 -1.4188  0.8055
11026TIP3   OH254492   0.102   3.527  13.346 -0.5387 -0.2564 -0.2107
11026TIP3    H154493   0.135   3.575  13.422  2.5318 -1.8586 -0.3711
11026TIP3    H254494   0.141   3.571  13.271  0.1236 -1.3425 -0.5224
11027TIP3   OH254495   6.762   0.270   4.412  0.3101  0.2614 -0.0608
11027TIP3    H154496   6.716   0.208   4.356 -0.8653  0.5829  0.5053
11027TIP3    H254497   6.819   0.215   4.467 -0.9575 -0.3721  0.6629
11028TIP3   OH254498   5.106   0.851  11.882  0.0684  0.1916  0.7107
11028TIP3    H154499   5.142   0.773  11.923 -1.7577  0.0709  2.2029
11028TIP3    H254500   5.017   0.858  11.916  0.2405  3.0739  0.8419
11029TIP3   OH254501   1.848   1.899  13.311 -0.1470 -0.6036  0.1304
11029TIP3    H154502   1.798   1.910  13.230  1.0690 -1.5222 -0.7833
11029TIP3    H254503   1.809   1.962  13.372 -0.8261  0.4161 -1.2921
11030TIP3   OH254504   0.609   6.752   3.981  0.5143  0.5177  0.1179
11030TIP3    H154505   0.625   6.678   4.040 -0.7628  1.5334  1.8231
11030TIP3    H254506   0.544   6.805   4.026 -0.5514  1.3599 -2.2444
11031TIP3   OH254507   5.002   4.281  13.219 -0.3337  0.1160  0.0237
11031TIP3    H154508   5.074   4.335  13.186 -0.7562  0.7232  0.0803
11031TIP3    H254509   4.940   4.277  13.146  0.7529 -2.2920 -0.8549
11032TIP3   OH254510   6.737   4.192  12.962 -0.8796  0.1393  0.1765
11032TIP3    H154511   6.726   4.140  13.041 -0.2731  0.0474  0.2070
11032TIP3    H254512   6.771   4.276  12.992 -1.0405  0.2533  0.0477
11033TIP3   OH254513   6.716   0.731   2.345  0.7941 -0.0347 -0.5171
11033TIP3    H154514   6.709   0.776   2.429  1.0582 -0.3638 -0.3185
11033TIP3    H254515   6.643   0.670   2.343  1.9119 -1.4795  0.3597
11034TIP3   OH254516   0.139   4.933   4.664 -0.6200  0.1020  0.5137
11034TIP3    H154517   0.073   5.001   4.675 -1.9804 -0.9764 -0.6093
11034TIP3    H254518   0.101   4.872   4.600  1.7820 -0.1637 -0.7854
11035TIP3   OH254519   2.065   0.569   2.564  0.5436  0.0219  0.3359
11035TIP3    H154520   2.138   0.515   2.536  0.8884  0.1785  0.9092
11035TIP3    H254521   2.011   0.511   2.618 -0.4327 -0.4478 -1.0808
11036TIP3   OH254522   3.872   0.802   2.610  0.5991  0.5835  0.6777
11036TIP3    H154523   3.893   0.739   2.541  0.4052  0.2026  0.9630
11036TIP3    H254524   3.904   0.886   2.577  0.6940  0.3657  0.2165
11037TIP3   OH254525   6.350   6.615  16.165 -0.4443  0.7178 -0.1840
11037TIP3    H154526   6.374   6.707  16.174  1.9900  0.1406 -0.2511
11037TIP3    H254527   6.425   6.574  16.123 -1.3582 -1.3757  0.0933
11038TIP3   OH254528   1.241   6.029   1.868 -0.0066  0.1741  0.2635
11038TIP3    H154529   1.169   6.008   1.809  0.2098 -1.9060  0.6669
11038TIP3    H254530   1.295   6.091   1.818 -1.1355  0.4155 -0.7127
11039TIP3   OH254531   4.249   0.928   5.216 -0.3780 -0.1272  0.2562
11039TIP3    H154532   4.238   0.833   5.209 -1.2345  0.0835 -2.0617
11039TIP3    H254533   4.296   0.953   5.137 -1.0343  1.4984  0.3280
11040TIP3   OH254534   2.110   0.065  14.943 -0.2199 -0.3198  0.6682
11040TIP3    H154535   2.165   0.086  14.867 -0.4404  1.3976  0.9476
11040TIP3    H254536   2.169   0.021  15.004  0.6185  0.6271  0.5659
11041TIP3   OH254537   1.041   1.408   5.737 -0.0288  1.0981 -0.4481
11041TIP3    H154538   1.091   1.386   5.816 -2.9129 -0.4129  1.1263
11041TIP3    H254539   1.003   1.494   5.757 -0.7432  0.7238 -0.1329
11042TIP3   OH254540   5.858   6.007  16.462  0.1321  0.0440 -0.2826
11042TIP3    H154541   5.908   5.992  16.543 -0.5262 -2.1534 -0.2025
11042TIP3    H254542   5.911   6.069  16.412  1.2525  0.3674  1.2296
11043TIP3   OH254543   1.859   1.474  14.666 -0.2094 -0.5295  0.5136
11043TIP3    H154544   1.826   1.475  14.756 -1.8749 -1.6279 -0.0264
11043TIP3    H254545   1.860   1.565  14.639  1.4213 -0.0530  1.9832
11044TIP3   OH254546   2.120   6.168   1.171  0.5153  0.4986 -0.1765
11044TIP3    H154547   2.201   6.216   1.155  0.0337  1.1693 -0.6331
11044TIP3    H254548   2.071   6.224   1.232  1.8381 -1.4749  2.9726
11045TIP3   OH254549   3.239   6.357  15.940 -0.1744 -0.0440  0.3922
11045TIP3    H154550   3.212   6.275  15.899  0.0030  0.5365 -0.9448
11045TIP3    H254551   3.282   6.331  16.022 -1.2086 -1.1993  0.5941
11046TIP3   OH254552   1.895   5.077  12.821 -0.7590  0.2790 -0.2533
11046TIP3    H154553   1.837   5.147  12.790 -0.9365  0.9217  1.3783
11046TIP3    H254554   1.860   5.055  12.908  0.8401 -0.0109  0.3480
11047TIP3   OH254555   2.298   5.450  12.716 -0.4680 -0.7758 -0.2386
11047TIP3    H154556   2.273   5.489  12.800  0.4917 -2.5798  0.9536
11047TIP3    H254557   2.230   5.385  12.699 -1.0060  0.0099 -1.2332
11048TIP3   OH254558   2.747   1.789  14.320  0.9456 -0.1054 -0.3886
11048TIP3    H154559   2.827   1.740  14.337  1.4193  0.6770 -0.2966
11048TIP3    H254560   2.776   1.866  14.271  0.0945 -0.3869 -1.3788
11049TIP3   OH254561   4.305   5.829   4.508  0.5029  0.1366 -0.4983
11049TIP3    H154562   4.299   5.828   4.412  0.7071 -0.4144 -0.5102
11049TIP3    H254563   4.382   5.882   4.526 -0.2856  1.3406 -0.5874
11050TIP3   OH254564   5.098   3.338   5.907  0.2953  0.0655  0.2862
11050TIP3    H154565   5.076   3.331   6.000  1.0810 -1.9966  0.3693
11050TIP3    H254566   5.193   3.341   5.906  0.2650  0.8239 -0.4251
11051TIP3   OH254567   4.530   2.365   5.437  0.5996  0.2338  0.2486
11051TIP3    H154568   4.516   2.368   5.342  0.9785  0.3749  0.1986
11051TIP3    H254569   4.621   2.390   5.449  0.7341 -0.4078  0.6052
11052TIP3   OH254570   1.992   4.868   1.949  0.0418 -0.3740 -0.2365
11052TIP3    H154571   2.001   4.913   2.032  1.4826  1.1543 -1.1662
11052TIP3    H254572   1.940   4.790   1.969  0.1768  0.0678  2.0175
11053TIP3   OH254573   6.046   2.070  16.758  0.4294  0.3496 -0.1568
11053TIP3    H154574   5.964   2.024  16.775  1.8628 -2.1564  0.3919
11053TIP3    H254575   6.036   2.104  16.669  0.0356 -2.8932 -1.4922
11054TIP3   OH254576   4.489   1.846  13.193  0.2408  0.2315  0.4998
11054TIP3    H154577   4.405   1.892  13.192  0.5646  0.8296 -0.8811
11054TIP3    H254578   4.512   1.842  13.286 -0.8605  0.9006  0.8272
11055TIP3   OH254579   2.472   6.778   2.610 -0.1310  0.2544  0.8757
11055TIP3    H154580   2.402   6.796   2.673 -0.1168 -0.6014  1.1451
11055TIP3    H254581   2.541   6.841   2.634 -0.3927  0.3993  1.2727
11056TIP3   OH254582   4.837   3.875  14.691  0.8962  0.1214 -0.3989
11056TIP3    H154583   4.876   3.808  14.634 -0.1340 -0.1078 -0.8580
11056TIP3    H254584   4.830   3.952  14.636 -0.5464 -0.2410 -0.7455
11057TIP3   OH254585   6.501   4.923  12.905 -0.1697  0.1981  0.2098
11057TIP3    H154586   6.596   4.929  12.913  0.0760 -1.7687 -0.8315
11057TIP3    H254587   6.469   4.929  12.995  0.9067  1.0687  0.5544
11058TIP3   OH254588   0.716   3.862  16.497  0.1772 -0.5782  0.5994
11058TIP3    H154589   0.734   3.927  16.429  0.1951 -0.4859  0.6907
11058TIP3    H254590   0.644   3.900  16.547  1.3172  0.1930  1.7241
11059TIP3   OH254591   1.249   2.095  12.098  0.4299  0.2348  0.1344
11059TIP3    H154592   1.157   2.070  12.095  0.2806  0.6601 -3.4623
11059TIP3    H254593   1.295   2.014  12.120 -0.7210 -0.3248  0.5532
11060TIP3   OH254594   3.573   0.127  16.351  0.1424  0.5491 -0.4230
11060TIP3    H154595   3.621   0.202  16.386 -0.3307  1.8484 -2.4036
11060TIP3    H254596   3.486   0.161  16.331 -0.7732 -1.0756  0.4967
11061TIP3   OH254597   5.412   6.251   2.816 -0.3027  0.3691  0.0199
11061TIP3    H154598   5.452   6.286   2.736 -0.3899 -2.1762 -1.2321
11061TIP3    H254599   5.329   6.297   2.823 -0.2768  0.6736 -1.3495
11062TIP3   OH254600   1.348   3.162   4.434 -0.5164 -0.3839 -0.0888
11062TIP3    H154601   1.380   3.218   4.363 -0.7842 -1.2639 -0.9316
11062TIP3    H254602   1.255   3.183   4.441 -0.6019 -0.6741 -0.3571
11063TIP3   OH254603   6.409   0.919  14.755 -0.0600 -0.2487 -0.1485
11063TIP3    H154604   6.377   0.890  14.840  0.9629 -0.4550  0.1777
11063TIP3    H254605   6.335   0.965  14.715 -0.3810  0.3081  1.0651
11064TIP3   OH254606   0.497   2.660   1.269 -0.1649 -0.0475 -0.0861
11064TIP3    H154607   0.496   2.756   1.262  0.7825  0.0009  0.2632
11064TIP3    H254608   0.441   2.641   1.344 -0.0104  0.2664  0.1126
11065TIP3   OH254609   0.079   3.210  14.456  0.1657 -0.3671 -0.0536
11065TIP3    H154610   0.051   3.253  14.376  0.1267  0.2351  0.2784
11065TIP3    H254611   0.081   3.280  14.522 -2.3726 -1.2814  1.1338
11066TIP3   OH254612   0.572   4.532  15.567  0.0031  0.1025  0.0062
11066TIP3    H154613   0.615   4.446  15.572 -1.1079 -0.3941  2.3803
11066TIP3    H254614   0.498   4.525  15.626  0.0855  2.8358  0.5485
11067TIP3   OH254615   2.060   4.233  16.097 -0.1272  0.0866  0.3624
11067TIP3    H154616   2.137   4.178  16.082 -0.2161 -0.2009  0.9148
11067TIP3    H254617   2.095   4.320  16.116  0.0687 -0.0614  0.6839
11068TIP3   OH254618   5.123   1.361  15.888 -0.3877  0.1383  0.8763
11068TIP3    H154619   5.206   1.345  15.933 -0.0323 -0.9008 -0.0880
11068TIP3    H254620   5.134   1.447  15.848  0.1112  0.1461  1.0167
11069TIP3   OH254621   5.035   1.519  12.348 -0.2042  0.8891 -0.1855
11069TIP3    H154622   4.977   1.490  12.277  0.0608  1.6890 -0.7511
11069TIP3    H254623   5.055   1.610  12.326  0.8546  0.7817  0.2772
11070TIP3   OH254624   2.232   1.786  16.751  0.4353  0.1658  0.4567
11070TIP3    H154625   2.289   1.799  16.675  0.5273  2.3445  0.8240
11070TIP3    H254626   2.292   1.757  16.820  0.2867 -2.2274 -0.3469
11071TIP3   OH254627   1.185   5.471  16.723 -0.6150  0.6043 -0.4782
11071TIP3    H154628   1.092   5.493  16.715 -1.1996 -2.0289 -2.0488
11071TIP3    H254629   1.213   5.454  16.633  1.3532  1.1143 -0.0029
11072TIP3   OH254630   4.284   2.567  14.359  0.0847 -0.0904  0.1151
11072TIP3    H154631   4.314   2.479  14.385 -0.6102 -0.1345  0.7886
11072TIP3    H254632   4.361   2.607  14.319  1.6347  0.3801  3.2420
11073TIP3   OH254633   5.171   6.694  14.109  0.2369  0.4963 -0.4006
11073TIP3    H154634   5.121   6.773  14.091 -0.7161 -0.1205 -0.5500
11073TIP3    H254635   5.128   6.656  14.186 -0.7114 -0.9909 -1.6011
11074TIP3   OH254636   5.665   3.977  15.457 -0.3889  0.5200  0.1235
11074TIP3    H154637   5.749   4.022  15.451 -0.9437  1.4564 -0.9230
11074TIP3    H254638   5.687   3.884  15.449  0.4387  0.8264 -1.8100
11075TIP3   OH254639   0.147   3.894   3.732  0.3279  0.2720 -0.1199
11075TIP3    H154640   0.052   3.884   3.728  0.4158 -1.6887  1.1972
11075TIP3    H254641   0.162   3.951   3.808  0.2218  1.3446 -0.8696
11076TIP3   OH254642   5.515   2.098  16.382 -0.1926  0.3791 -0.4891
11076TIP3    H154643   5.600   2.133  16.408  1.3699 -3.3781  0.0226
11076TIP3    H254644   5.470   2.081  16.464  1.0143 -2.8813 -0.3423
11077TIP3   OH254645   3.226   2.011  11.562 -0.1039 -0.1379  0.0539
11077TIP3    H154646   3.235   2.092  11.612 -2.8858  0.3038 -0.0342
11077TIP3    H254647   3.173   1.954  11.617  1.1670 -1.6676 -0.2220
11078TIP3   OH254648   2.988   4.524   4.952 -0.4173  0.3887  0.3167
11078TIP3    H154649   3.003   4.436   4.918  1.2066  0.5731  0.4826
11078TIP3    H254650   2.979   4.579   4.874 -0.8521  0.1737  0.2122
11079TIP3   OH254651   0.139   3.889   5.300  0.5479 -0.1769 -0.5235
11079TIP3    H154652   0.175   3.807   5.264 -3.1343 -0.5965 -3.8704
11079TIP3    H254653   0.081   3.860   5.370 -0.1748 -0.3807 -1.2002
11080TIP3   OH254654   0.243   6.567   6.286 -0.5163 -0.0789  0.3324
11080TIP3    H154655   0.291   6.486   6.302  1.9465  0.5162 -2.8273
11080TIP3    H254656   0.162   6.540   6.243 -0.5242 -0.9280  0.8709
11081TIP3   OH254657   6.064   1.402  14.185 -0.5223  0.2969 -0.2831
11081TIP3    H154658   6.040   1.312  14.159 -2.7467  0.9979 -0.9148
11081TIP3    H254659   6.012   1.419  14.263 -0.8354  1.3361 -0.6992
11082TIP3   OH254660   6.525   4.974  14.441 -0.1468 -0.0495 -0.6471
11082TIP3    H154661   6.572   4.905  14.395  1.6991  0.4415  0.4232
11082TIP3    H254662   6.560   5.055  14.405 -1.2727  0.3569 -0.8791
11083TIP3   OH254663   3.093   3.759   0.428 -0.3945  0.0985 -0.3258
11083TIP3    H154664   3.082   3.790   0.518 -2.5654  1.9071 -1.1114
11083TIP3    H254665   3.031   3.687   0.420  0.2416 -0.4671 -0.2182
11084TIP3   OH254666   6.663   2.524  12.306  0.2017 -0.1542  0.1075
11084TIP3    H154667   6.674   2.438  12.266  0.3168 -1.1153  2.0744
11084TIP3    H254668   6.584   2.516  12.359  0.9594  0.5031  1.3824
11085TIP3   OH254669   2.223   3.543  13.322 -0.4385 -0.5152  0.2617
11085TIP3    H154670   2.230   3.549  13.417  1.4299 -1.2169  0.2085
11085TIP3    H254671   2.289   3.479  13.296 -0.6378 -0.0641 -1.5473
11086TIP3   OH254672   0.947   2.511  12.591  0.2974  0.6361  0.4667
11086TIP3    H154673   1.000   2.580  12.632  0.5506  1.0298 -0.4800
11086TIP3    H254674   0.872   2.558  12.553  0.0120  0.2690  0.5738
11087TIP3   OH254675   3.536   5.521   4.713  0.4619  0.1939 -0.3410
11087TIP3    H154676   3.503   5.544   4.800 -0.4253  0.3585 -0.7114
11087TIP3    H254677   3.581   5.600   4.683  1.2199 -0.0291  0.1619
11088TIP3   OH254678   5.772   6.544   4.230  0.3812  0.2660  0.8902
11088TIP3    H154679   5.865   6.560   4.212 -0.0395  1.5773 -0.3436
11088TIP3    H254680   5.738   6.630   4.256 -0.7345  0.0832  0.0961
11089TIP3   OH254681   2.754   5.576  12.497 -0.3100  0.0208 -0.0579
11089TIP3    H154682   2.826   5.515  12.482 -0.3762 -0.0862  0.0563
11089TIP3    H254683   2.675   5.526  12.477 -0.3401  0.2104 -0.4140
11090TIP3   OH254684   1.203   1.427   2.884 -0.2965  0.1626  0.2660
11090TIP3    H154685   1.262   1.471   2.945  0.7287 -2.5259  1.3949
11090TIP3    H254686   1.245   1.436   2.799 -0.5343  1.9463  0.2999
11091TIP3   OH254687   0.529   6.673   2.022  0.5265 -0.3184  0.0017
11091TIP3    H154688   0.469   6.601   2.001  0.9980 -0.7315  0.0514
11091TIP3    H254689   0.615   6.631   2.030  1.0967  0.4793 -1.5419
11092TIP3   OH254690   3.887   3.298  12.778 -0.0031  0.4941 -0.3225
11092TIP3    H154691   3.892   3.393  12.788 -0.2358  0.3932  0.9250
11092TIP3    H254692   3.818   3.284  12.713  0.6862  1.1950 -1.2285
11093TIP3   OH254693   3.949   2.560   6.042 -0.0592  0.1195  0.7076
11093TIP3    H154694   3.996   2.542   6.123  0.4044 -2.0483  0.0045
11093TIP3    H254695   3.862   2.589   6.070 -0.2356 -1.5563  1.9948
11094TIP3   OH254696   4.722   0.758  12.874 -0.4338  0.0527 -0.2294
11094TIP3    H154697   4.813   0.786  12.868 -0.6869  1.0469  0.3883
11094TIP3    H254698   4.689   0.764  12.784  0.0477 -0.1066 -0.4160
11095TIP3   OH254699   3.508   6.182  10.838  0.5443  0.4697 -0.1195
11095TIP3    H154700   3.503   6.096  10.797  0.9172  0.2862  0.2081
11095TIP3    H254701   3.590   6.179  10.888  1.4338  1.6047 -1.4369
11096TIP3   OH254702   0.862   4.885   0.142 -0.5878 -0.2402  0.1430
11096TIP3    H154703   0.803   4.921   0.208 -1.4119  1.8327 -1.5712
11096TIP3    H254704   0.945   4.931   0.156 -0.2160 -1.0964  0.8072
11097TIP3   OH254705   4.929   4.455  12.617 -0.0363  0.1105 -0.0340
11097TIP3    H154706   4.939   4.507  12.697 -0.7394  2.3424 -1.3139
11097TIP3    H254707   4.836   4.432  12.614 -0.2684  1.0563 -0.7515
11098TIP3   OH254708   4.000   1.522  15.404 -0.0353  0.0319  0.1432
11098TIP3    H154709   3.996   1.562  15.492  2.8792 -0.6476  0.7022
11098TIP3    H254710   3.998   1.596  15.344 -0.3533  0.6315  0.8785
11099TIP3   OH254711   4.500   0.365   5.040  0.0853  0.3343 -0.2419
11099TIP3    H154712   4.521   0.381   4.948 -0.4615  2.8854  0.0127
11099TIP3    H254713   4.560   0.422   5.088 -0.4085 -0.1158  0.9458
11100TIP3   OH254714   0.140   3.588  11.605  0.4381  0.7880 -0.1556
11100TIP3    H154715   0.051   3.616  11.586  0.0527  0.4243  1.0299
11100TIP3    H254716   0.166   3.640  11.681  0.4266 -0.6112  0.8462
11101TIP3   OH254717   6.435   6.266   5.272  0.3542 -0.5188 -0.4244
11101TIP3    H154718   6.389   6.349   5.260  0.2832 -0.3348  0.8890
11101TIP3    H254719   6.366   6.204   5.299  0.8391 -0.1784  1.8056
11102TIP3   OH254720   3.462   5.035  14.221 -0.1565 -0.2623 -0.5174
11102TIP3    H154721   3.447   5.059  14.313 -1.2380  2.5822 -1.3336
11102TIP3    H254722   3.556   5.048  14.208 -0.4792  2.6319 -0.5553
11103TIP3   OH254723   6.435   2.052   6.337  0.3137 -0.1651  0.5559
11103TIP3    H154724   6.528   2.030   6.334  0.5926  0.9019  0.7987
11103TIP3    H254725   6.434   2.148   6.334 -0.8217 -0.1955 -0.4056
11104TIP3   OH254726   3.756   5.284  17.189  0.3864  0.0477  0.1764
11104TIP3    H154727   3.708   5.361  17.220  0.2046 -0.5021  1.3175
11104TIP3    H254728   3.791   5.310  17.103 -1.4434  0.6627 -0.4155
11105TIP3   OH254729   4.042   0.151  12.389  0.0509 -0.5665  0.3376
11105TIP3    H154730   4.104   0.142  12.317  0.8522 -1.1934  1.0793
11105TIP3    H254731   4.037   0.245  12.406 -0.2518 -0.4057 -0.6192
11106TIP3   OH254732   2.984   3.062   2.093  0.8773 -0.2960  0.6108
11106TIP3    H154733   2.897   3.029   2.072  0.2897  1.0268  0.8191
11106TIP3    H254734   3.044   2.999   2.054 -0.1833 -0.7059 -0.4364
11107TIP3   OH254735   4.708   0.751  14.295 -0.3169 -0.1797  0.5924
11107TIP3    H154736   4.626   0.717  14.259 -0.0377 -0.2338  0.0044
11107TIP3    H254737   4.685   0.778  14.384 -0.3847 -2.6084  1.4022
11108TIP3   OH254738   3.245   4.206   0.707 -0.2802 -0.2140  0.0266
11108TIP3    H154739   3.293   4.286   0.727 -0.2616 -0.1820 -0.1390
11108TIP3    H254740   3.310   4.136   0.716 -0.6904 -0.4080  1.8215
11109TIP3   OH254741   0.338   4.165  17.065  0.1731 -0.0189  0.4873
11109TIP3    H154742   0.288   4.141  17.143  0.1918  0.5699  0.6905
11109TIP3    H254743   0.275   4.211  17.010 -0.2473 -1.7700 -0.5544
11110TIP3   OH254744   0.588   1.270  12.438  0.1635 -0.0882 -0.2369
11110TIP3    H154745   0.581   1.312  12.352 -0.7053 -0.7466 -0.5118
11110TIP3    H254746   0.498   1.242  12.458 -0.0951  2.0103  1.9049
11111TIP3   OH254747   6.726   1.080  16.788 -0.4679  0.8388  0.8664
11111TIP3    H154748   6.776   1.033  16.855 -0.9147  0.3576  0.8713
11111TIP3    H254749   6.771   1.164  16.779  1.7062 -0.3958 -0.7207
11112TIP3   OH254750   3.953   0.730  12.902 -0.4324 -0.6899  0.0308
11112TIP3    H154751   3.987   0.819  12.895 -2.5108  0.0835 -1.2162
11112TIP3    H254752   3.878   0.737  12.961 -0.3527 -1.7094  0.2770
11113TIP3   OH254753   4.815   2.408  12.043  0.4224  0.0717 -0.1112
11113TIP3    H154754   4.788   2.480  12.099 -0.5114 -0.2700 -0.1129
11113TIP3    H254755   4.903   2.384  12.074  0.0846  0.1573  0.9212
11114TIP3   OH254756   1.645   1.872  13.096 -0.5232  0.0961 -0.9231
11114TIP3    H154757   1.622   1.854  13.005 -0.3039  1.2774 -1.2273
11114TIP3    H254758   1.560   1.884  13.140 -0.7356 -2.4429 -0.4946
11115TIP3   OH254759   3.251   3.042   4.593  0.2185 -0.3122  0.2746
11115TIP3    H154760   3.275   2.962   4.547  0.2155  0.4916 -1.1691
11115TIP3    H254761   3.334   3.076   4.627  0.2580 -0.7668  0.6381
11116TIP3   OH254762   0.239   5.348  15.953  0.0375 -0.0469  0.1052
11116TIP3    H154763   0.179   5.389  15.890  0.3558  0.7998  0.3430
11116TIP3    H254764   0.292   5.289  15.899 -1.4083 -1.3244 -0.0222
11117TIP3   OH254765   6.549   6.785  16.060  0.3737  0.0128 -0.4715
11117TIP3    H154766   6.546   6.873  16.022 -1.3800  0.4630  0.5599
11117TIP3    H254767   6.563   6.800  16.153  1.3382 -0.8872 -0.4635
11118TIP3   OH254768   1.123   3.713  16.049 -0.2877 -0.2538  0.1811
11118TIP3    H154769   1.117   3.702  15.954 -1.4259 -1.7841  0.3873
11118TIP3    H254770   1.200   3.768  16.062 -1.6663  2.3686 -1.7636
11119TIP3   OH254771   5.126   5.862  15.349 -0.3674  0.0587 -0.5647
11119TIP3    H154772   5.206   5.826  15.387 -0.0632  1.4547  0.1633
11119TIP3    H254773   5.156   5.937  15.297 -1.0228 -0.4883 -1.7769
11120TIP3   OH254774   1.142   0.761  13.801  0.5028  0.7990  0.0503
11120TIP3    H154775   1.062   0.739  13.753  1.1275 -0.9299 -0.2740
11120TIP3    H254776   1.200   0.799  13.735  0.5908  0.4150 -0.0915
11121TIP3   OH254777   0.644   5.697  16.459  0.4505 -0.1448 -0.0847
11121TIP3    H154778   0.663   5.764  16.525  1.0503  0.6515 -1.0478
11121TIP3    H254779   0.674   5.734  16.377  1.5302 -1.9178 -0.5438
11122TIP3   OH254780   6.403   5.641  13.703  0.2534  0.0744 -0.6202
11122TIP3    H154781   6.365   5.580  13.640 -3.1044  2.0921 -0.7811
11122TIP3    H254782   6.464   5.694  13.652 -0.3549 -0.0955 -1.5396
11123TIP3   OH254783   5.043   0.404  14.832 -0.2586 -0.2059 -0.0332
11123TIP3    H154784   5.019   0.339  14.766 -1.1384  1.0320 -0.9791
11123TIP3    H254785   5.044   0.487  14.785 -0.4822  0.6675  1.4249
11124TIP3   OH254786   6.053   3.134   2.593 -0.2707  0.3574  0.3419
11124TIP3    H154787   6.057   3.199   2.523 -0.9283 -0.0344 -0.0757
11124TIP3    H254788   6.077   3.052   2.550  1.8272  0.4951  1.1384
11125TIP3   OH254789   4.446   6.402  14.564 -0.1237  0.9347  0.4569
11125TIP3    H154790   4.365   6.385  14.516  0.2725 -2.5526  0.7754
11125TIP3    H254791   4.514   6.406  14.497  0.1258 -1.7623  0.4575
11126TIP3   OH254792   3.334   5.871   3.483  0.3078 -0.1779  0.3546
11126TIP3    H154793   3.273   5.831   3.544 -1.3130 -1.4675 -1.9541
11126TIP3    H254794   3.388   5.799   3.452  0.7603  0.3489 -0.1007
11127TIP3   OH254795   3.685   5.431  15.519  0.5560  0.4338  0.0468
11127TIP3    H154796   3.772   5.423  15.479  0.6441  1.2995  0.0596
11127TIP3    H254797   3.687   5.514  15.566  0.2425 -0.2786  1.3631
11128TIP3   OH254798   6.643   5.304   1.497 -0.3194  0.1405  0.4288
11128TIP3    H154799   6.663   5.302   1.404  0.1634  0.0185  0.5367
11128TIP3    H254800   6.572   5.240   1.508  0.0889 -0.3462  0.2558
11129TIP3   OH254801   3.300   4.917  15.739  0.0396 -0.0815 -0.3815
11129TIP3    H154802   3.289   4.969  15.660  0.0100 -0.0475 -0.3552
11129TIP3    H254803   3.287   4.827  15.710  0.4323 -0.1037 -0.4903
11130TIP3   OH254804   3.093   2.818   5.629 -0.4149  0.3044  0.5814
11130TIP3    H154805   3.146   2.777   5.561 -1.0505  0.0862  0.2105
11130TIP3    H254806   3.060   2.745   5.682 -2.0253  0.2446 -0.4271
11131TIP3   OH254807   5.604   0.955  16.205 -0.3043  0.2576 -0.4027
11131TIP3    H154808   5.607   0.931  16.298  1.0763  2.5123  0.2234
11131TIP3    H254809   5.513   0.978  16.189 -0.3533  0.9938  0.7725
11132TIP3   OH254810   3.539   6.353  12.886 -0.4871  0.1589 -0.2264
11132TIP3    H154811   3.549   6.258  12.891 -2.3578 -0.0230  0.6365
11132TIP3    H254812   3.510   6.369  12.796  2.1656  0.2221 -1.1688
11133TIP3   OH254813   1.213   2.147  15.674 -0.1474 -0.2374  0.5529
11133TIP3    H154814   1.189   2.074  15.731 -1.7122  0.0294  0.2636
11133TIP3    H254815   1.290   2.186  15.716 -1.1567 -0.1406  2.3908
11134TIP3   OH254816   2.291   4.816  14.137  0.7538  0.1519  0.1370
11134TIP3    H154817   2.316   4.853  14.053 -1.4394  1.5464  0.0042
11134TIP3    H254818   2.294   4.891  14.198  0.3383 -0.3779  0.8252
11135TIP3   OH254819   6.775   6.707  13.660  0.0657  0.0187 -0.2056
11135TIP3    H154820   6.680   6.714  13.674  0.2380  0.0068  1.0616
11135TIP3    H254821   6.803   6.797  13.640 -0.4965 -0.2929 -2.7619
11136TIP3   OH254822   4.375   3.039   5.852  0.9401 -0.1165  0.0767
11136TIP3    H154823   4.372   2.955   5.805  1.1673  0.2358 -0.5805
11136TIP3    H254824   4.306   3.032   5.918 -1.0403  0.2531 -1.8169
11137TIP3   OH254825   0.205   1.092   3.567  0.0431 -0.0225  0.3872
11137TIP3    H154826   0.245   1.172   3.534 -1.0127  0.5893  0.5376
11137TIP3    H254827   0.128   1.079   3.511 -0.2778 -0.4549  0.9200
11138TIP3   OH254828   5.467   5.658  11.753 -0.2530 -0.1417  0.1968
11138TIP3    H154829   5.392   5.639  11.697  2.0844  0.2132 -3.3217
11138TIP3    H254830   5.493   5.747  11.730  0.9142 -0.0211  1.7838
11139TIP3   OH254831   0.906   4.888   5.026  0.3073 -0.2879 -0.2704
11139TIP3    H154832   0.921   4.982   5.018  2.5310 -0.6858 -1.8046
11139TIP3    H254833   0.989   4.848   4.998 -0.2593 -2.6959  1.2106
11140TIP3   OH254834   4.714   3.669   3.053  0.2424  0.3119  0.1321
11140TIP3    H154835   4.776   3.698   2.986 -0.3524  0.3096 -0.4297
11140TIP3    H254836   4.723   3.574   3.054  1.8690  0.4419  1.6574
11141TIP3   OH254837   3.334   1.793  14.613 -0.1726  0.6072  0.0478
11141TIP3    H154838   3.262   1.733  14.630 -1.3282  1.0516 -2.8399
11141TIP3    H254839   3.386   1.750  14.545  0.6929  1.5663  0.0737
11142TIP3   OH254840   0.124   4.328  15.431  0.2831  0.4899  0.3076
11142TIP3    H154841   0.087   4.414  15.451  2.0959  1.3388  0.2284
11142TIP3    H254842   0.137   4.328  15.336 -1.0704 -0.4726  0.1004
11143TIP3   OH254843   0.941   3.816   0.849  0.1246  0.3839  0.0648
11143TIP3    H154844   1.013   3.810   0.786 -0.0784  0.1237 -0.1446
11143TIP3    H254845   0.984   3.819   0.934  0.3752 -0.0785 -0.0427
11144TIP3   OH254846   2.442   1.100  11.503 -0.0876  0.2036  0.1176
11144TIP3    H154847   2.457   1.050  11.423 -0.0290  0.7268 -0.2049
11144TIP3    H254848   2.507   1.068  11.565 -0.0981 -0.1640 -0.0611
11145TIP3   OH254849   1.809   6.504  14.272  0.2720 -0.6460 -0.0957
11145TIP3    H154850   1.891   6.516  14.223  0.8204 -0.5560  0.8159
11145TIP3    H254851   1.741   6.531  14.211  0.9233 -0.6281 -0.8421
11146TIP3   OH254852   2.527   4.028  14.789  0.0780  0.4976 -0.4757
11146TIP3    H154853   2.502   3.976  14.712  0.0621  0.8322 -0.6955
11146TIP3    H254854   2.506   4.118  14.766 -0.9696  0.4837  0.3458
11147TIP3   OH254855   6.708   1.513   0.921 -0.6594  0.3307  0.1297
11147TIP3    H154856   6.754   1.430   0.929 -1.8327 -0.2332  1.5337
11147TIP3    H254857   6.700   1.528   0.827  1.3111 -0.1287 -0.1480
11148TIP3   OH254858   4.207   0.931  14.865  0.1490 -0.2529 -0.3187
11148TIP3    H154859   4.258   0.925  14.946  0.3079 -0.2773 -0.4183
11148TIP3    H254860   4.148   1.005  14.879 -1.1961 -1.4666  0.5722
11149TIP3   OH254861   6.513   4.717   5.130  0.4106 -0.0188  0.4421
11149TIP3    H154862   6.527   4.677   5.044 -0.7414 -0.8654  0.6191
11149TIP3    H254863   6.577   4.675   5.187 -1.2532 -2.2347  0.7864
11150TIP3   OH254864   0.600   0.151   1.883 -0.1371 -0.0650 -0.1715
11150TIP3    H154865   0.578   0.065   1.846  2.0839 -1.7495  2.0640
11150TIP3    H254866   0.691   0.165   1.857 -0.6608  2.0394 -1.0873
11151TIP3   OH254867   5.345   0.621   6.046 -0.0168 -0.2420 -0.7269
11151TIP3    H154868   5.307   0.559   5.983 -0.7266  1.7131 -2.3401
11151TIP3    H254869   5.399   0.680   5.992  0.5939  0.5798  0.7221
11152TIP3   OH254870   2.614   5.534   5.498 -0.6750  0.2420  0.2647
11152TIP3    H154871   2.591   5.553   5.407 -2.1378  0.5183  0.6522
11152TIP3    H254872   2.542   5.478   5.528  0.2293 -0.5324  1.0113
11153TIP3   OH254873   0.428   6.380  11.645  0.4237 -0.3140  0.1689
11153TIP3    H154874   0.480   6.319  11.696 -1.3843 -3.3043 -1.2636
11153TIP3    H254875   0.491   6.440  11.605  2.1768 -0.4350  2.5972
11154TIP3   OH254876   3.636   1.304   4.053  0.4925  0.0874  0.4965
11154TIP3    H154877   3.592   1.381   4.016  0.1912 -0.4744 -0.3430
11154TIP3    H254878   3.716   1.339   4.094 -0.1080  0.9569  0.9491
11155TIP3   OH254879   2.261   6.428   4.772 -0.1633  0.4034  0.2059
11155TIP3    H154880   2.279   6.474   4.854  0.8723  0.6314 -0.1283
11155TIP3    H254881   2.212   6.490   4.719 -0.0114  0.5991  0.2936
11156TIP3   OH254882   6.658   4.182   2.945 -0.0822 -0.0710 -0.1572
11156TIP3    H154883   6.614   4.248   2.999  2.6994  1.9458 -0.1424
11156TIP3    H254884   6.707   4.129   3.008 -0.9238 -1.0926 -0.3314
11157TIP3   OH254885   6.650   1.825  13.982  0.5598 -0.0562  0.0929
11157TIP3    H154886   6.701   1.749  13.954  1.6514  0.5664  0.3293
11157TIP3    H254887   6.683   1.845  14.069 -0.0089  0.4548  0.1992
11158TIP3   OH254888   3.972   2.067   3.289  0.2060 -0.1481 -0.0681
11158TIP3    H154889   4.033   2.097   3.355  0.2999 -1.2776  0.3858
11158TIP3    H254890   3.907   2.015   3.337 -1.9916  2.1710 -0.3039
11159TIP3   OH254891   3.411   6.589  12.042  0.5082  0.3705 -0.2883
11159TIP3    H154892   3.418   6.625  12.131 -3.2724 -0.5051  0.5233
11159TIP3    H254893   3.438   6.498  12.051  0.5469  0.3933 -0.1647
11160TIP3   OH254894   3.050   4.705  15.808  0.0076  0.8223  0.0899
11160TIP3    H154895   2.989   4.632  15.816 -1.2079  1.8743  0.8949
11160TIP3    H254896   3.123   4.683  15.865 -1.3850  1.2017  2.1211
11161TIP3   OH254897   6.444   0.110  11.451  0.0499 -0.6298 -0.3360
11161TIP3    H154898   6.352   0.108  11.478  0.7889 -0.1130  2.5408
11161TIP3    H254899   6.484   0.035  11.497  1.4051  0.2567 -0.0101
11162TIP3   OH254900   6.492   6.148  12.734 -0.0619  0.4506 -0.3244
11162TIP3    H154901   6.405   6.120  12.707 -0.2469  0.4300  0.2968
11162TIP3    H254902   6.480   6.238  12.764 -0.3085 -0.2884  1.9205
11163TIP3   OH254903   0.961   6.305   4.827 -0.6631 -0.5565 -0.4628
11163TIP3    H154904   0.997   6.299   4.916  0.2293 -1.0095 -0.8454
11163TIP3    H254905   1.016   6.371   4.784  0.5560 -2.1414 -1.4321
11164TIP3   OH254906   6.584   0.016   5.562 -0.4511  0.5081 -0.2973
11164TIP3    H154907   6.492   0.002   5.543 -0.5726  2.4573 -1.3849
11164TIP3    H254908   6.617  -0.071   5.585 -2.4570 -0.2915 -0.2044
11165TIP3   OH254909   6.072   6.049  15.561 -0.0782  0.4636 -0.1475
11165TIP3    H154910   5.982   6.021  15.543 -0.0652  0.0224  0.4520
11165TIP3    H254911   6.098   5.999  15.638  0.6200  0.7281 -0.2034
11166TIP3   OH254912   6.693   2.405   0.938  0.4888 -0.5588 -0.2673
11166TIP3    H154913   6.744   2.353   1.001 -0.1399 -0.7220  0.1132
11166TIP3    H254914   6.605   2.407   0.974  0.0700 -0.8099 -1.2437
11167TIP3   OH254915   6.187   0.015   5.830 -0.2212 -0.9557 -0.3851
11167TIP3    H154916   6.138  -0.063   5.805 -1.8086  0.4510 -2.0496
11167TIP3    H254917   6.121   0.084   5.832  1.3382  0.6060 -0.3331
11168TIP3   OH254918   0.057   2.522   5.855 -0.1920  0.0113  0.3317
11168TIP3    H154919   0.018   2.508   5.769  2.4490 -1.4640 -0.7544
11168TIP3    H254920   0.124   2.589   5.841  0.2197 -0.1921  1.2296
11169TIP3   OH254921   5.429   6.361  11.222  0.5131 -0.0488 -0.3366
11169TIP3    H154922   5.477   6.349  11.304  0.4227 -0.1819 -0.3010
11169TIP3    H254923   5.492   6.402  11.163  0.8627 -0.7733 -0.4815
11170TIP3   OH254924   1.519   3.167  10.921  0.0995  0.2644 -0.6109
11170TIP3    H154925   1.511   3.093  10.862  2.1715 -0.7751  0.2941
11170TIP3    H254926   1.576   3.228  10.876  0.5244  0.1109 -0.2893
11171TIP3   OH254927   2.840   3.737   2.661 -0.3915 -0.3088 -0.3005
11171TIP3    H154928   2.811   3.818   2.702 -0.1526  0.4497 -1.5823
11171TIP3    H254929   2.928   3.723   2.695 -0.4465 -0.0628 -0.0527
11172TIP3   OH254930   1.742   0.510  12.073  0.6525 -0.3613  0.4810
11172TIP3    H154931   1.650   0.510  12.099  0.3394  0.9499 -0.4952
11172TIP3    H254932   1.788   0.545  12.149  0.1996  0.0754  0.5593
11173TIP3   OH254933   2.356   4.221   2.222  0.4924 -0.4925  0.2125
11173TIP3    H154934   2.425   4.216   2.288  1.8377 -1.2635 -1.1811
11173TIP3    H254935   2.343   4.131   2.193 -0.0697 -0.1756 -0.5671
11174TIP3   OH254936   4.528   5.038   5.355  0.1266  0.4305  0.0935
11174TIP3    H154937   4.580   4.966   5.391 -0.6609  0.1912  0.7650
11174TIP3    H254938   4.594   5.100   5.322  0.8284 -1.1718 -1.7310
11175TIP3   OH254939   5.029   3.454  13.466  0.1243 -0.8267  0.0506
11175TIP3    H154940   4.988   3.538  13.488 -0.5063 -1.1008 -0.0363
11175TIP3    H254941   4.996   3.393  13.532  2.2533 -0.5819  1.4255
11176TIP3   OH254942   0.385   5.091  12.585 -0.0151 -0.3923 -0.5902
11176TIP3    H154943   0.349   5.024  12.644 -1.3432  0.3431 -0.5375
11176TIP3    H254944   0.325   5.165  12.594  0.8346  0.4179 -1.4609
11177TIP3   OH254945   0.481   3.574   2.054  0.1790 -0.3909  0.2519
11177TIP3    H154946   0.532   3.645   2.093 -1.7722  1.2116  0.0307
11177TIP3    H254947   0.511   3.495   2.100  2.2180  0.5686  0.6972
11178TIP3   OH254948   1.855   1.872  17.031  0.0667 -0.7004 -0.1847
11178TIP3    H154949   1.833   1.779  17.030  0.2369 -0.7460 -1.0105
11178TIP3    H254950   1.951   1.873  17.037  0.2169 -0.6438 -1.9675
11179TIP3   OH254951   0.059   6.748  16.353  0.1783  0.4026 -0.3823
11179TIP3    H154952   0.128   6.766  16.290  1.4028 -0.1971  0.7354
11179TIP3    H254953   0.044   6.654  16.346 -0.3313  0.4821 -0.4069
11180TIP3   OH254954   4.453   2.397   1.671 -0.1548  0.2100 -0.1040
11180TIP3    H154955   4.375   2.453   1.672 -1.5765 -1.6313 -0.7606
11180TIP3    H254956   4.418   2.308   1.664  1.9762 -0.8195  1.2140
11181TIP3   OH254957   0.466   0.598   3.676  0.0523 -0.1785  0.2880
11181TIP3    H154958   0.420   0.665   3.727 -1.1996  0.1512 -1.1938
11181TIP3    H254959   0.477   0.638   3.589  1.5518 -0.9570  0.0981
11182TIP3   OH254960   1.923   1.325  12.265  0.0510  0.1431 -0.7779
11182TIP3    H154961   2.017   1.340  12.262 -0.1700  1.7002 -0.6660
11182TIP3    H254962   1.896   1.356  12.351 -0.6147  0.0740 -0.9557
11183TIP3   OH254963   4.720   4.589  16.716  0.1901 -0.0007  0.1702
11183TIP3    H154964   4.755   4.602  16.804  2.1021 -0.3174 -0.4765
11183TIP3    H254965   4.798   4.577  16.661 -0.9748 -1.2661 -1.3273
11184TIP3   OH254966   1.738   6.534   0.546 -0.1571 -0.6464  0.0237
11184TIP3    H154967   1.814   6.477   0.536 -0.3193 -0.7680 -0.4983
11184TIP3    H254968   1.758   6.611   0.493 -0.3100 -0.5847  0.0538
11185TIP3   OH254969   4.669   2.945   1.309 -0.4233  0.6717 -0.5341
11185TIP3    H154970   4.580   2.953   1.343 -0.1776  1.6521 -0.0791
11185TIP3    H254971   4.657   2.917   1.218 -1.1912  0.6508 -0.4349
11186TIP3   OH254972   0.049   4.563  15.318 -0.3410 -0.2932 -0.1780
11186TIP3    H154973   0.010   4.640  15.360  0.5795  0.7838 -1.2280
11186TIP3    H254974   0.107   4.599  15.251  2.5076 -1.7819  1.3062
11187TIP3   OH254975   4.186   2.331  12.458  0.2270 -0.6181 -0.1885
11187TIP3    H154976   4.272   2.369  12.476 -0.0226  0.2187 -0.7282
11187TIP3    H254977   4.143   2.394  12.401  0.0351 -1.9904 -1.6392
11188TIP3   OH254978   5.659   0.282   1.233  0.7703  0.4287 -0.3644
11188TIP3    H154979   5.721   0.215   1.261 -1.6310 -1.8638 -0.1740
11188TIP3    H254980   5.581   0.267   1.286 -0.3715  2.4772 -1.3376
11189TIP3   OH254981   5.301   2.529  17.121  0.3196  0.4183  0.1796
11189TIP3    H154982   5.251   2.611  17.125  0.2304  0.5978 -2.4907
11189TIP3    H254983   5.386   2.555  17.085 -0.0564 -0.7032 -1.7094
11190TIP3   OH254984   6.106   2.346  10.412 -0.0954 -0.1143  0.1179
11190TIP3    H154985   6.140   2.391  10.490 -2.2612 -1.1619  1.7919
11190TIP3    H254986   6.062   2.414  10.362 -0.7963  0.1844  1.1004
11191TIP3   OH254987   4.262   1.983   5.763  0.2953 -0.4437 -0.4776
11191TIP3    H154988   4.214   2.062   5.786  1.1467 -0.0098 -0.1358
11191TIP3    H254989   4.243   1.970   5.670  0.5248  0.4406 -0.6595
11192TIP3   OH254990   2.309   4.823   1.301 -0.6886  0.0503 -0.5176
11192TIP3    H154991   2.390   4.844   1.347 -1.3361  0.0952  0.6480
11192TIP3    H254992   2.240   4.867   1.351 -1.4708 -0.2375 -1.3010
11193TIP3   OH254993   4.482   6.774  11.096  0.1802 -0.2084  0.4765
11193TIP3    H154994   4.516   6.863  11.088 -0.3167 -0.0656 -0.1223
11193TIP3    H254995   4.549   6.718  11.055 -1.2356  0.2815 -2.7934
11194TIP3   OH254996   3.952   4.518   2.910 -0.2372 -0.3172 -0.3237
11194TIP3    H154997   3.962   4.521   3.005 -0.0545  0.1694 -0.3567
11194TIP3    H254998   3.866   4.557   2.893 -1.0478 -1.9784 -0.2429
11195TIP3   OH254999   3.700   6.087  12.068 -0.3460  0.7049 -0.5614
11195TIP3    H155000   3.688   6.008  12.122 -0.6817  1.5515  0.6552
11195TIP3    H255001   3.771   6.134  12.111 -0.1998  1.0979 -1.2369
11196TIP3   OH255002   0.353   2.072   5.858  0.5549  0.2093 -0.1228
11196TIP3    H155003   0.355   2.167   5.850  1.9555  0.1591 -0.6971
11196TIP3    H255004   0.405   2.053   5.935 -0.2598 -0.0785  0.3687
11197TIP3   OH255005   4.594   4.733   3.452 -0.0627 -0.9846  0.3360
11197TIP3    H155006   4.594   4.640   3.477  1.0089 -1.0871  0.0047
11197TIP3    H255007   4.663   4.740   3.387 -2.4184 -0.6180 -2.3072
11198TIP3   OH255008   0.883   6.724   3.251 -0.2592 -0.3567 -0.3410
11198TIP3    H155009   0.942   6.765   3.188  1.0239 -0.8791  0.4829
11198TIP3    H255010   0.799   6.768   3.237  0.1006 -0.1317 -2.0633
11199TIP3   OH255011   6.235   5.416   0.019  0.2596  0.8553 -0.9363
11199TIP3    H155012   6.258   5.347   0.081  0.5330  0.9420 -0.9392
11199TIP3    H255013   6.234   5.496   0.072  2.6746  1.2936 -1.4178
11200TIP3   OH255014   0.748   2.772   1.168 -0.1762  0.0556 -0.3112
11200TIP3    H155015   0.809   2.785   1.240 -1.4338  2.0203  0.4767
11200TIP3    H255016   0.682   2.712   1.203  0.9364 -1.6545 -0.9947
11201TIP3   OH255017   0.192   6.672  13.402 -0.0610  0.0404 -0.2310
11201TIP3    H155018   0.189   6.763  13.373  0.3182  0.1804  0.1612
11201TIP3    H255019   0.148   6.623  13.333 -1.4487  0.6816  0.1581
11202TIP3   OH255020   2.802   3.565  15.028 -0.2079  0.9109  0.3930
11202TIP3    H155021   2.768   3.523  15.107 -2.4032  0.8788 -0.4974
11202TIP3    H255022   2.867   3.504  14.994 -0.7425 -0.0710  1.0835
11203TIP3   OH255023   2.475   3.792  11.940 -0.1662  0.6181  0.2123
11203TIP3    H155024   2.506   3.715  11.989 -0.2190  0.9346  0.7468
11203TIP3    H255025   2.380   3.793  11.956 -0.3730  0.0317 -0.8813
11204TIP3   OH255026   3.317   0.934   0.726  0.0561  0.3786  0.3195
11204TIP3    H155027   3.271   0.981   0.795 -1.9272 -0.8485 -0.0858
11204TIP3    H255028   3.357   0.859   0.771 -0.3645  0.1485  0.3194
11205TIP3   OH255029   0.233   3.456  14.654 -0.7292 -0.0568 -0.1061
11205TIP3    H155030   0.210   3.528  14.713  2.1183  0.7434  0.1787
11205TIP3    H255031   0.249   3.498  14.570  0.6833 -0.3471 -0.0069
11206TIP3   OH255032   1.802   4.168  13.479 -0.1612  0.3778  0.1093
11206TIP3    H155033   1.852   4.156  13.398 -3.6099 -1.6193 -1.9658
11206TIP3    H255034   1.786   4.263  13.483  0.0148  0.5123 -1.6383
11207TIP3   OH255035   6.625   1.878   3.946 -0.2178 -0.6520  0.3486
11207TIP3    H155036   6.677   1.809   3.988  0.7081 -1.0162 -1.3146
11207TIP3    H255037   6.631   1.953   4.006 -0.5660 -1.7289  1.7847
11208TIP3   OH255038   5.563   0.333   3.026 -0.3001  0.5094 -0.7472
11208TIP3    H155039   5.573   0.413   3.078 -0.3159 -1.0457  1.8086
11208TIP3    H255040   5.481   0.295   3.057  0.0245 -0.8229 -1.4611
11209TIP3   OH255041   2.558   1.370   5.323  0.4985  0.2371 -0.1069
11209TIP3    H155042   2.571   1.446   5.265 -0.8067  0.4482 -0.1543
11209TIP3    H255043   2.512   1.406   5.399 -2.7025 -0.9055 -1.3395
11210TIP3   OH255044   5.700   6.591   6.072 -0.6443 -0.1466  0.1972
11210TIP3    H155045   5.618   6.627   6.041 -1.0884  0.2710  1.7671
11210TIP3    H255046   5.747   6.665   6.110  0.8630 -0.2062 -1.4193
11211TIP3   OH255047   1.832   0.476   4.742  0.6720  0.3263  0.1801
11211TIP3    H155048   1.739   0.495   4.747  0.5156 -0.3852  0.0698
11211TIP3    H255049   1.866   0.496   4.829 -0.0669 -1.8438  1.0161
11212TIP3   OH255050   6.169   6.215  11.389 -0.4085  0.0776 -0.1133
11212TIP3    H155051   6.248   6.236  11.340  0.2656 -1.9585  0.0073
11212TIP3    H255052   6.097   6.233  11.327  0.3764 -1.6983 -1.6428
11213TIP3   OH255053   2.775   6.583   0.562 -0.3073  0.4819 -0.0212
11213TIP3    H155054   2.706   6.568   0.497 -1.1975  0.1410  0.9833
11213TIP3    H255055   2.769   6.677   0.580  0.7425  0.8257 -1.2828
11214TIP3   OH255056   5.712   6.731   3.663  0.4387  0.2463  0.2185
11214TIP3    H155057   5.766   6.672   3.716  1.1656  0.5325 -0.1968
11214TIP3    H255058   5.705   6.687   3.578 -0.4604 -0.0593  0.4328
11215TIP3   OH255059   6.723   6.263  10.361 -0.1386 -0.1239 -0.1980
11215TIP3    H155060   6.739   6.304  10.446 -1.5929  0.6756 -0.2795
11215TIP3    H255061   6.653   6.200  10.377 -0.5409  0.1495 -0.8179
11216TIP3   OH255062   3.260   1.561  16.485  0.2941  0.6092 -0.3776
11216TIP3    H155063   3.271   1.648  16.522  1.1203  1.2138 -1.9870
11216TIP3    H255064   3.336   1.512  16.517  1.3945  1.3346 -1.7881
11217TIP3   OH255065   3.960   2.071  11.996  0.2945  0.4698  0.3865
11217TIP3    H155066   4.024   2.048  12.063  1.6939 -1.0341 -1.3643
11217TIP3    H255067   3.891   2.005  12.004  0.2158  0.5868  0.6635
11218TIP3   OH255068   0.320   2.063   0.390 -0.4108  0.3138  0.0414
11218TIP3    H155069   0.289   2.082   0.479 -1.4274 -0.5583 -0.1123
11218TIP3    H255070   0.386   2.131   0.373  1.9016 -1.1528  2.5074
11219TIP3   OH255071   2.100   0.891   4.957 -0.4635 -0.6138  0.3863
11219TIP3    H155072   2.077   0.910   5.048 -0.2583 -3.4759  1.1254
11219TIP3    H255073   2.016   0.870   4.915 -0.4408 -0.2276  0.1360
11220TIP3   OH255074   5.990   3.074  11.430 -0.0284 -0.8866  0.1388
11220TIP3    H155075   6.060   3.101  11.490  0.9839 -0.3712 -1.2149
11220TIP3    H255076   5.916   3.132  11.451  0.5849 -0.1714  0.3546
11221TIP3   OH255077   3.428   5.356  15.424 -0.5168 -0.0880 -0.1908
11221TIP3    H155078   3.499   5.393  15.477 -0.3328 -1.4503  0.5657
11221TIP3    H255079   3.463   5.272  15.393 -1.5666 -0.4960 -0.3083
11222TIP3   OH255080   4.479   2.230   3.628  0.1932  0.2767 -0.3450
11222TIP3    H155081   4.571   2.207   3.612 -0.7500 -2.1585 -3.4000
11222TIP3    H255082   4.456   2.288   3.555 -1.1586 -0.8745 -0.8961
11223TIP3   OH255083   0.983   2.348   4.232 -0.1597  0.0742  0.2560
11223TIP3    H155084   0.954   2.388   4.314 -0.9005 -0.2692  0.1720
11223TIP3    H255085   0.914   2.370   4.169  0.9571  1.3103 -0.5724
11224TIP3   OH255086   4.570   0.454   0.813  0.0532  0.2464 -0.0789
11224TIP3    H155087   4.585   0.438   0.720  0.4838 -0.7303  0.1413
11224TIP3    H255088   4.477   0.477   0.819 -0.0945 -0.1665 -0.6952
11225TIP3   OH255089   2.799   3.296  13.976  0.5955  0.0061 -0.1758
11225TIP3    H155090   2.798   3.260  14.064  1.2471  1.4382  0.4549
11225TIP3    H255091   2.724   3.256  13.932 -0.8516  0.6546  1.6041
11226TIP3   OH255092   1.285   2.586   6.397 -0.1530 -0.1924 -0.1888
11226TIP3    H155093   1.308   2.495   6.378 -0.4599 -0.3294  0.0808
11226TIP3    H255094   1.277   2.589   6.493  0.9217  0.3748 -0.0937
11227TIP3   OH255095   3.353   3.839   2.925 -0.4115  0.4841 -0.0054
11227TIP3    H155096   3.415   3.909   2.946 -1.8236  1.6910  0.3100
11227TIP3    H255097   3.339   3.794   3.008  1.2341 -0.8674 -0.3914
11228TIP3   OH255098   0.698   2.246   5.918 -0.1838  0.6298 -0.4730
11228TIP3    H155099   0.665   2.157   5.904  1.7916 -0.1437 -0.4265
11228TIP3    H255100   0.653   2.276   5.997  0.6388 -1.1174  0.7070
11229TIP3   OH255101   0.761   4.387   1.646  0.2251 -0.5579 -0.2884
11229TIP3    H155102   0.835   4.438   1.678  0.6146 -2.4565  2.1945
11229TIP3    H255103   0.775   4.381   1.552  0.4569  3.2718 -0.6382
11230TIP3   OH255104   4.530   2.468   4.122 -0.0242 -0.5749 -0.0755
11230TIP3    H155105   4.593   2.497   4.188 -1.5471  2.4632  0.2448
11230TIP3    H255106   4.548   2.524   4.046 -0.8951 -1.2079 -0.7730
11231TIP3   OH255107   1.841   1.277  14.467  0.5072  0.2969 -0.1822
11231TIP3    H155108   1.849   1.343  14.536 -0.6314 -1.1495  1.4240
11231TIP3    H255109   1.916   1.293  14.410  1.5670  1.4938  1.4508
11232TIP3   OH255110   1.579   1.964   3.198 -0.2233 -0.3603  0.8256
11232TIP3    H155111   1.549   2.020   3.127 -0.3348 -0.3325  0.8948
11232TIP3    H255112   1.669   1.994   3.215 -1.1609  1.7562  2.7527
11233TIP3   OH255113   0.836   4.585  14.353  0.4302 -0.0795  0.4515
11233TIP3    H155114   0.786   4.664  14.331 -0.1714 -0.3302  0.8973
11233TIP3    H255115   0.881   4.562  14.272  0.6759  0.7607  0.3324
11234TIP3   OH255116   1.397   4.694   3.175 -0.6137 -0.7434  0.2124
11234TIP3    H155117   1.337   4.631   3.214 -1.2250 -0.4414 -0.2271
11234TIP3    H255118   1.345   4.740   3.110 -0.7599  1.6097  1.8625
11235TIP3   OH255119   5.106   5.231  13.145 -0.0798 -0.7275 -0.3048
11235TIP3    H155120   5.177   5.170  13.165  0.2330 -0.0511  0.7302
11235TIP3    H255121   5.029   5.175  13.136  0.3219 -1.3437  0.0020
11236TIP3   OH255122   5.072   1.971   2.094  0.1277  0.1635  0.3032
11236TIP3    H155123   5.132   2.044   2.109  1.1319 -0.9478  1.9633
11236TIP3    H255124   5.053   1.937   2.181 -0.7549 -1.2285 -0.3933
11237TIP3   OH255125   0.295   4.928   6.663 -0.0760  0.1314  0.3416
11237TIP3    H155126   0.382   4.944   6.626  0.2229 -2.1926 -0.1344
11237TIP3    H255127   0.251   5.013   6.658  1.4718  0.9156 -1.2994
11238TIP3   OH255128   5.242   4.853  11.081 -0.0195  0.9162  0.2698
11238TIP3    H155129   5.154   4.890  11.086 -1.0599 -1.3441  0.0671
11238TIP3    H255130   5.299   4.921  11.115 -1.7307  2.7860 -0.4327
11239TIP3   OH255131   6.674   2.535  14.879  0.3671 -0.4209 -0.0931
11239TIP3    H155132   6.583   2.559  14.860 -0.0562 -1.8973 -0.0506
11239TIP3    H255133   6.689   2.567  14.968  0.1718  0.5703 -0.4049
11240TIP3   OH255134   0.728   1.635   3.096  0.1619  0.3176 -0.2561
11240TIP3    H155135   0.791   1.563   3.099  0.1456  0.2755 -0.8711
11240TIP3    H255136   0.646   1.594   3.071 -0.3684  0.2056  1.5268
11241TIP3   OH255137   4.750   1.674  14.812  0.1513  0.5785  0.0839
11241TIP3    H155138   4.682   1.730  14.848 -0.4602 -0.3421  0.3874
11241TIP3    H255139   4.820   1.734  14.786 -0.3717  1.4465  0.6626
11242TIP3   OH255140   0.018   4.550   0.414 -0.5832 -0.1861  0.4110
11242TIP3    H155141  -0.038   4.476   0.390 -2.5980  1.0645  1.0861
11242TIP3    H255142  -0.015   4.623   0.363 -1.8697  1.3987  3.3093
11243TIP3   OH255143   6.443   3.824   1.537  0.2401  0.2470  0.3471
11243TIP3    H155144   6.427   3.752   1.599  0.9314 -0.5351 -0.3467
11243TIP3    H255145   6.429   3.903   1.588 -0.2154 -0.3838  1.2305
11244TIP3   OH255146   6.295   1.262   4.622  0.4260 -0.2410 -0.0684
11244TIP3    H155147   6.244   1.340   4.599  1.3557  0.6255  0.6835
11244TIP3    H255148   6.292   1.207   4.544  0.7683  1.1251 -1.0830
11245TIP3   OH255149   2.144   1.170   6.271 -0.1669 -0.4519  0.1322
11245TIP3    H155150   2.109   1.128   6.349 -0.8629  1.4468  0.9083
11245TIP3    H255151   2.070   1.176   6.211 -0.4667  0.8843  0.5952
11246TIP3   OH255152   0.779   5.098  16.779 -0.2344 -0.2599 -0.0087
11246TIP3    H155153   0.796   5.180  16.827  0.3450 -0.5938  0.3674
11246TIP3    H255154   0.857   5.085  16.726 -1.3113  0.6685 -1.9178
11247TIP3   OH255155   0.718   1.482  14.765  0.6224 -0.7733  0.3741
11247TIP3    H155156   0.783   1.430  14.718  0.0941  0.0711 -1.3449
11247TIP3    H255157   0.656   1.511  14.698 -0.7817 -0.4222  1.7553
11248TIP3   OH255158   1.459   0.909   4.213 -0.5581 -0.2226  0.5124
11248TIP3    H155159   1.534   0.948   4.168 -0.7515  0.2839  0.6322
11248TIP3    H255160   1.467   0.815   4.195  0.7741 -0.3262  1.4864
11249TIP3   OH255161   0.271   6.471  12.367 -0.0290 -0.2825 -0.3667
11249TIP3    H155162   0.335   6.408  12.334  2.4398  2.0666 -0.4147
11249TIP3    H255163   0.273   6.460  12.462 -2.4688 -2.7410 -0.4802
11250TIP3   OH255164   5.839   6.037  14.036 -0.2075 -0.6549  0.2768
11250TIP3    H155165   5.788   6.007  14.112  0.0524 -0.4880  0.5199
11250TIP3    H255166   5.926   6.057  14.072 -0.2697  0.0479  0.0565
11251TIP3   OH255167   2.867   5.065   4.815 -0.1854  0.7622  0.1905
11251TIP3    H155168   2.948   5.032   4.854 -0.6196 -1.4564 -0.6459
11251TIP3    H255169   2.881   5.159   4.809  1.3592  0.7464  2.2531
11252TIP3   OH255170   4.100   1.943   1.777 -0.4205  0.1249  0.1034
11252TIP3    H155171   4.100   1.934   1.872 -1.7528  0.4137  0.1503
11252TIP3    H255172   4.181   1.901   1.748 -0.8727 -1.5848  1.2074
11253TIP3   OH255173   0.940   3.582  13.949  0.1883 -0.3304 -0.0834
11253TIP3    H155174   1.011   3.536  13.995  0.1373 -1.8865 -1.4517
11253TIP3    H255175   0.868   3.583  14.011  1.3043  1.1233  1.2742
11254TIP3   OH255176   4.830   4.718   4.859 -0.3617 -0.1472 -0.5709
11254TIP3    H155177   4.866   4.704   4.772 -1.3590  1.3903 -1.2645
11254TIP3    H255178   4.871   4.799   4.889  1.2605 -1.4823  1.1491
11255TIP3   OH255179   0.614   5.842   5.660 -0.1925 -0.0236 -0.9520
11255TIP3    H155180   0.655   5.860   5.744 -0.6096 -0.6246 -0.6171
11255TIP3    H255181   0.671   5.885   5.596  0.4810 -0.1164 -0.4215
11256TIP3   OH255182   0.278   6.504  11.833  0.2815 -0.8130  0.1661
11256TIP3    H155183   0.230   6.565  11.778  0.2425 -0.1733  0.8848
11256TIP3    H255184   0.311   6.437  11.773  0.4982  0.0281 -0.6757
11257TIP3   OH255185   0.717   5.895  16.647  0.1911 -0.4125 -0.1530
11257TIP3    H155186   0.782   5.834  16.683  2.1175  1.0160 -0.9708
11257TIP3    H255187   0.770   5.968  16.613 -1.7445  0.0859 -2.3591
11258TIP3   OH255188   2.472   3.882   3.270 -0.2283  0.4462 -0.7748
11258TIP3    H155189   2.549   3.927   3.304 -0.4157  1.0395 -1.1268
11258TIP3    H255190   2.504   3.795   3.246 -0.1651 -0.1722  1.2850
11259TIP3   OH255191   5.384   5.856  10.756 -0.4482 -0.2049 -0.0045
11259TIP3    H155192   5.309   5.901  10.718 -0.1014 -0.5142 -1.1104
11259TIP3    H255193   5.381   5.878  10.849 -0.4556  1.8533 -0.4381
11260TIP3   OH255194   4.365   1.539   1.803  0.0851  0.3124 -0.3570
11260TIP3    H155195   4.393   1.598   1.873 -0.1576  0.6267 -0.5240
11260TIP3    H255196   4.399   1.454   1.829 -2.6095 -0.2565  1.7636
11261TIP3   OH255197   4.471   2.321  15.068  0.6425 -0.9641 -0.1231
11261TIP3    H155198   4.466   2.320  14.972  0.2742 -1.3709 -0.1031
11261TIP3    H255199   4.380   2.309  15.097  0.7468 -0.8030  0.2796
11262TIP3   OH255200   5.151   6.251   0.586  0.6129  0.9695  0.1191
11262TIP3    H155201   5.165   6.254   0.491  1.4317  0.2150  0.2044
11262TIP3    H255202   5.141   6.343   0.611 -0.6173  1.1288 -0.8265
11263TIP3   OH255203   0.862   0.264  13.051  0.5709 -0.3185 -0.1510
11263TIP3    H155204   0.887   0.348  13.091  1.4886 -0.4901 -0.3389
11263TIP3    H255205   0.945   0.219  13.037  0.0348 -1.7430  0.9942
11264TIP3   OH255206   5.126   0.619  13.363 -0.5194  0.0212 -0.3540
11264TIP3    H155207   5.176   0.671  13.426 -2.9114  1.2226  0.6866
11264TIP3    H255208   5.080   0.553  13.416 -0.5269 -0.6623 -1.1819
11265TIP3   OH255209   1.672   4.221   6.497  0.1375  0.0070 -0.2358
11265TIP3    H155210   1.763   4.205   6.474  1.2778 -1.7622  4.4910
11265TIP3    H255211   1.631   4.134   6.491 -0.8462  0.4823 -0.6272
11266TIP3   OH255212   3.027   3.340  13.831 -0.3344 -0.2126 -0.4412
11266TIP3    H155213   2.939   3.317  13.861 -0.0178 -0.6226  0.1997
11266TIP3    H255214   3.016   3.364  13.739 -0.9438 -1.4103 -0.7120
11267TIP3   OH255215   1.878   4.243   2.088  0.2522 -0.1571  0.3132
11267TIP3    H155216   1.792   4.251   2.129  0.0719  0.1952 -0.1263
11267TIP3    H255217   1.938   4.287   2.148  0.2907 -1.2327  1.0966
11268TIP3   OH255218   1.999   2.573   1.936  0.0143 -0.3811  0.3891
11268TIP3    H155219   1.908   2.548   1.921  0.1577  0.0999 -1.5135
11268TIP3    H255220   2.036   2.581   1.849  1.8679 -0.4544  1.1358
11269TIP3   OH255221   5.354   0.047  17.031 -0.6153 -0.1707  0.4663
11269TIP3    H155222   5.374  -0.044  17.054  1.4292  0.6507  2.3631
11269TIP3    H255223   5.311   0.082  17.108 -1.7781  0.3909 -0.4112
11270TIP3   OH255224   0.735   0.994   4.521 -0.1277 -0.1275  0.4269
11270TIP3    H155225   0.822   1.032   4.534  0.0893 -0.6897  0.6630
11270TIP3    H255226   0.675   1.056   4.562  0.0198  0.9647 -0.9413
11271TIP3   OH255227   0.786   0.309   2.878 -0.4610  0.0167 -0.2683
11271TIP3    H155228   0.718   0.280   2.817  0.4077 -1.7655 -0.4414
11271TIP3    H255229   0.840   0.369   2.828 -1.5502  1.0101 -0.2966
11272TIP3   OH255230   3.062   6.205  17.098  0.1650 -0.1944 -0.2423
11272TIP3    H155231   3.055   6.136  17.032 -1.4729  0.5091 -0.8542
11272TIP3    H255232   2.973   6.216  17.130  0.3765  1.6605 -0.2000
11273TIP3   OH255233   0.305   2.880  11.299 -0.0348 -0.3287  0.0723
11273TIP3    H155234   0.383   2.919  11.259 -0.2834  1.2007  1.0118
11273TIP3    H255235   0.232   2.929  11.261 -0.3854 -0.1958  0.9076
11274TIP3   OH255236   3.923   1.809   1.405  0.0672  0.2580  0.5804
11274TIP3    H155237   4.015   1.806   1.428  0.0590  0.6358  0.6645
11274TIP3    H255238   3.891   1.721   1.423  0.5483 -0.0473 -0.0341
11275TIP3   OH255239   2.266   2.778  14.271 -0.4428 -0.0408  0.0064
11275TIP3    H155240   2.215   2.738  14.201 -0.4129 -0.1770  0.0619
11275TIP3    H255241   2.349   2.730  14.271  0.4822  1.4630 -1.3921
11276TIP3   OH255242   3.554   2.204  13.205  0.4344  0.2475  0.5036
11276TIP3    H155243   3.586   2.173  13.120 -1.2618  0.0010 -0.0883
11276TIP3    H255244   3.566   2.130  13.264  2.4456  0.7032  0.7626
11277TIP3   OH255245   4.993   5.115  12.741 -0.1737 -0.4519  0.0469
11277TIP3    H155246   4.935   5.143  12.812 -1.5558 -1.2184 -0.7446
11277TIP3    H255247   4.941   5.126  12.662  1.2343  0.0936 -0.8485
11278TIP3   OH255248   0.190   0.482   2.767  0.0943 -0.0668 -0.0409
11278TIP3    H155249   0.148   0.403   2.734 -0.1372 -0.9416  2.1836
11278TIP3    H255250   0.283   0.469   2.751 -0.0293 -0.3217 -0.5805
11279TIP3   OH255251   1.083   4.980  15.139 -0.0989 -0.9122  0.1520
11279TIP3    H155252   1.059   5.071  15.126  0.9552 -0.6977 -0.3903
11279TIP3    H255253   1.049   4.934  15.062 -0.8746 -1.0373  0.5594
11280TIP3   OH255254   4.631   3.574  14.863 -0.4249  0.0389 -0.0120
11280TIP3    H155255   4.702   3.511  14.876 -2.3163 -1.8842  1.7811
11280TIP3    H255256   4.607   3.565  14.771  1.0524  0.1302 -0.4397
11281TIP3   OH255257   0.766   1.231  11.559  0.2085  0.1326  0.3131
11281TIP3    H155258   0.824   1.160  11.534  0.6970  0.8559 -0.6668
11281TIP3    H255259   0.752   1.219  11.653  1.1990 -0.5929  0.3760
11282TIP3   OH255260   2.306   2.357   0.709  0.4414  0.6115  0.0327
11282TIP3    H155261   2.214   2.345   0.735  0.4564  0.1263 -0.1177
11282TIP3    H255262   2.321   2.287   0.645  0.8921  0.7478 -0.0095
11283TIP3   OH255263   4.805   0.109   0.534  0.3897  0.3660 -0.3290
11283TIP3    H155264   4.711   0.113   0.513  0.4366  0.4881 -0.5121
11283TIP3    H255265   4.834   0.025   0.497  0.4925  0.6220 -0.8381
11284TIP3   OH255266   0.158   1.679  12.657 -0.5769  0.1808 -0.0444
11284TIP3    H155267   0.196   1.608  12.605 -1.5103  0.3689 -1.0325
11284TIP3    H255268   0.137   1.638  12.741 -2.6018 -1.2129 -1.1311
11285TIP3   OH255269   1.930   1.407   6.111 -0.3275  0.4769 -0.6796
11285TIP3    H155270   1.907   1.315   6.125 -0.7074  0.6750 -0.0104
11285TIP3    H255271   1.877   1.433   6.036 -0.0642  0.0957 -1.0058
11286TIP3   OH255272   1.963   0.101   3.764 -0.8160 -0.2695 -0.1092
11286TIP3    H155273   1.899   0.101   3.836  0.4244  0.3124  1.0263
11286TIP3    H255274   2.048   0.101   3.807 -0.0239 -1.2906 -1.6004
11287TIP3   OH255275   3.241   3.799  13.453  0.0122  0.2065 -0.0345
11287TIP3    H155276   3.260   3.712  13.486 -0.8240 -0.1181 -0.3856
11287TIP3    H255277   3.164   3.828  13.503  0.5099  0.9014  0.3522
11288TIP3   OH255278   1.422   4.558   0.426  0.1477  0.2167  1.0026
11288TIP3    H155279   1.339   4.593   0.395 -0.4776 -2.1879 -0.3364
11288TIP3    H255280   1.452   4.620   0.493 -0.7086  3.2425 -1.2390
11289TIP3   OH255281   1.099   3.062   0.862  0.0346  0.1853 -0.1981
11289TIP3    H155282   1.100   2.990   0.799  2.2601  0.0565 -0.1045
11289TIP3    H255283   1.011   3.097   0.857 -1.4981 -3.1370  0.4717
11290TIP3   OH255284   5.839   2.989   2.055  0.0080 -0.0382  0.6421
11290TIP3    H155285   5.786   2.912   2.034 -1.4823  0.5882  1.8888
11290TIP3    H255286   5.814   3.012   2.144 -0.3929  2.4732 -0.0208
11291TIP3   OH255287   1.457   1.751  15.592  0.3809 -0.8915 -0.6688
11291TIP3    H155288   1.470   1.807  15.669  0.6364 -0.1476 -1.2535
11291TIP3    H255289   1.524   1.779  15.530  0.0517 -1.3574 -1.2467
11292TIP3   OH255290   4.485   6.698  11.356  0.0716  0.1095  0.0398
11292TIP3    H155291   4.486   6.728  11.265 -1.7625  0.1756 -0.0028
11292TIP3    H255292   4.564   6.644  11.364  0.5930  0.5901 -1.4089
11293TIP3   OH255293   3.549   3.545   3.365  0.0736  0.0613 -0.6779
11293TIP3    H155294   3.568   3.488   3.440 -0.4867  1.2562  0.4147
11293TIP3    H255295   3.512   3.485   3.299 -0.4821 -0.8606  0.4199
11294TIP3   OH255296   1.776   3.229  14.798  0.6096  0.9168 -0.2288
11294TIP3    H155297   1.713   3.271  14.740  0.4947 -0.2917 -1.0248
11294TIP3    H255298   1.845   3.294  14.811  0.1918  1.5260 -0.9987
11295TIP3   OH255299   0.680   3.508   5.955  0.3978 -0.1349 -0.3624
11295TIP3    H155300   0.623   3.432   5.971 -0.8884  1.2284  2.0970
11295TIP3    H255301   0.740   3.509   6.030  1.8693  0.0682 -1.4959
11296TIP3   OH255302   5.381   1.223  12.798 -0.7475  0.5403 -0.0361
11296TIP3    H155303   5.317   1.294  12.801  0.9925  2.1746  0.3737
11296TIP3    H255304   5.393   1.198  12.890 -0.0912  0.9337 -0.0076
11297TIP3   OH255305   6.517   0.729   3.142 -0.4361  0.4754 -0.4047
11297TIP3    H155306   6.493   0.717   3.050 -0.5212  0.3398 -0.3641
11297TIP3    H255307   6.470   0.661   3.189 -0.4748  0.6096 -0.2467
11298TIP3   OH255308   0.710   3.995   5.467 -0.3230 -0.1436 -0.2295
11298TIP3    H155309   0.696   3.904   5.444 -0.3258 -0.3302  0.4732
11298TIP3    H255310   0.678   4.002   5.557 -2.6746  1.1367 -1.0806
11299TIP3   OH255311   4.970   3.665   1.463  0.1544 -0.3840 -0.5059
11299TIP3    H155312   5.035   3.672   1.533  0.6773  0.4338 -1.0613
11299TIP3    H255313   4.977   3.747   1.415 -1.9491  0.1400 -0.0306
11300TIP3   OH255314   4.652   1.252  13.203 -0.4697 -0.3364 -0.0802
11300TIP3    H155315   4.635   1.159  13.214 -1.2089 -0.3219 -0.9598
11300TIP3    H255316   4.711   1.258  13.128  1.7371 -0.2265  1.5425
11301TIP3   OH255317   2.488   4.645  12.201  0.0433 -0.2038  0.2816
11301TIP3    H155318   2.497   4.723  12.256  0.0350 -1.8351  2.7423
11301TIP3    H255319   2.579   4.621  12.180  0.0505  0.3437 -0.3668
11302TIP3   OH255320   0.090   0.572  13.005  0.3919 -0.0434 -0.3238
11302TIP3    H155321   0.139   0.506  13.054  0.9726  1.2138  0.8516
11302TIP3    H255322   0.033   0.613  13.070 -0.3867  0.2213 -1.1537
11303TIP3   OH255323   5.617   0.935  11.096 -0.0961  0.2357  0.4781
11303TIP3    H155324   5.663   0.961  11.176  0.6640 -0.4209  0.2634
11303TIP3    H255325   5.685   0.897  11.040 -0.4588  1.3708 -0.8020
11304TIP3   OH255326   2.164   4.899   1.742 -0.5255  0.4526 -0.1961
11304TIP3    H155327   2.095   4.908   1.807 -1.8183  0.2802 -1.5055
11304TIP3    H255328   2.126   4.931   1.660  1.4542  1.8197 -0.6669
11305TIP3   OH255329   4.516   6.455  17.171 -0.3134 -0.1305  0.0430
11305TIP3    H155330   4.489   6.547  17.181  0.6688  0.5910 -2.8955
11305TIP3    H255331   4.434   6.409  17.150 -0.7732  0.0848  1.2807
11306TIP3   OH255332   6.791   1.633  13.874 -0.2691 -0.0121 -0.5143
11306TIP3    H155333   6.736   1.574  13.925  1.0540  0.2566  1.3488
11306TIP3    H255334   6.799   1.590  13.788  0.1260 -2.2315  0.5502
11307TIP3   OH255335   2.734   0.541   6.106 -0.0284  0.5632  0.2438
11307TIP3    H155336   2.711   0.602   6.176  1.5896  0.9857  0.4616
11307TIP3    H255337   2.650   0.510   6.072 -0.8576  1.2611  1.5674
11308TIP3   OH255338   5.614   2.177  14.556  0.3407 -0.1494 -0.4657
11308TIP3    H155339   5.692   2.225  14.583  0.8980 -0.4757 -1.4833
11308TIP3    H255340   5.643   2.087  14.542 -0.2827 -0.3500 -0.5346
11309TIP3   OH255341   0.438   4.097   4.341  0.3253  0.4856  0.0012
11309TIP3    H155342   0.481   4.168   4.390 -0.4080  0.7095  0.3298
11309TIP3    H255343   0.437   4.128   4.251  1.4157  0.2015 -0.1288
11310TIP3   OH255344   2.698   4.349  14.850  0.1900 -0.7698 -0.6841
11310TIP3    H155345   2.730   4.330  14.938 -0.8021  0.0613 -0.1214
11310TIP3    H255346   2.766   4.405  14.812  0.6351 -1.1543 -0.4545
11311TIP3   OH255347   5.900   5.766  12.223  0.2929 -0.4714 -0.2833
11311TIP3    H155348   5.834   5.832  12.246 -1.0944 -1.2365 -1.8966
11311TIP3    H255349   5.889   5.698  12.289 -0.9664 -0.8561 -0.8665
11312TIP3   OH255350   0.003   6.762  11.046  0.1474 -0.0463  0.5715
11312TIP3    H155351  -0.001   6.810  11.128  3.7602  0.7685  0.4319
11312TIP3    H255352  -0.040   6.678  11.064  1.0244  0.0280  3.3472
11313TIP3   OH255353   1.399   4.711  16.623  0.3166 -0.9757 -0.5219
11313TIP3    H155354   1.317   4.694  16.670  0.3645 -0.2110 -0.1375
11313TIP3    H255355   1.378   4.785  16.566  0.4005 -1.5823 -1.3540
11314TIP3   OH255356   4.386   1.421  13.716  0.1215  0.7039 -0.6891
11314TIP3    H155357   4.474   1.438  13.684  1.3522 -0.8421  1.6217
11314TIP3    H255358   4.389   1.446  13.808 -1.8005  0.3935 -0.5085
11315TIP3   OH255359   6.458   6.438   1.727 -0.4087  0.3076 -0.5685
11315TIP3    H155360   6.522   6.425   1.797 -1.7954  0.2917  0.7374
11315TIP3    H255361   6.435   6.350   1.698  1.8652  0.2942 -2.7599
11316TIP3   OH255362   2.796   5.485  10.361 -0.6140 -0.0780  0.7010
11316TIP3    H155363   2.828   5.546  10.295 -0.1513 -0.0087  0.9905
11316TIP3    H255364   2.828   5.399  10.331  0.5493  0.0929  1.4230
11317TIP3   OH255365   1.298   2.232   1.983  0.3926  0.6154  0.0443
11317TIP3    H155366   1.291   2.304   2.046 -0.3001  1.3008 -0.7921
11317TIP3    H255367   1.219   2.180   1.998 -0.1111  1.1467 -0.6772
11318TIP3   OH255368   0.150   6.209  11.804 -0.5968 -0.2087  0.5388
11318TIP3    H155369   0.163   6.304  11.795 -0.2001 -0.3236 -0.1940
11318TIP3    H255370   0.060   6.200  11.835 -1.2589  0.3427 -1.1341
11319TIP3   OH255371   3.836   3.830  13.753  0.4294 -0.4525 -0.2017
11319TIP3    H155372   3.837   3.877  13.836  1.0160  0.0357 -0.4762
11319TIP3    H255373   3.863   3.741  13.775  0.8694 -0.2475  0.0838
11320TIP3   OH255374   3.500   4.293   3.326  0.0560  0.1386 -0.5048
11320TIP3    H155375   3.456   4.368   3.365  0.0104  0.2166 -0.7057
11320TIP3    H255376   3.450   4.217   3.355  1.2790  0.0066  1.3797
11321TIP3   OH255377   3.159   6.760  15.042 -0.2258  0.3837 -0.0801
11321TIP3    H155378   3.255   6.765  15.038 -0.0171 -0.5743  2.2919
11321TIP3    H255379   3.135   6.816  15.115 -1.3393 -0.6036  0.3347
11322TIP3   OH255380   2.310   5.145  16.757  0.2201  0.0118 -0.1502
11322TIP3    H155381   2.275   5.062  16.727  0.5370 -0.0990 -0.2146
11322TIP3    H255382   2.396   5.152  16.715  0.8164 -0.2959  0.9536
11323TIP3   OH255383   5.674   1.907  15.358 -0.6485 -0.7334 -0.3112
11323TIP3    H155384   5.588   1.930  15.393 -1.1867 -1.1795 -1.2968
11323TIP3    H255385   5.724   1.879  15.435 -0.9863  0.6342  0.4420
11324TIP3   OH255386   1.293   0.252   0.183  0.4111 -0.5069  0.4887
11324TIP3    H155387   1.316   0.334   0.139 -0.7189  0.1821  1.1271
11324TIP3    H255388   1.372   0.198   0.176  0.3486 -0.4089 -2.2588
11325TIP3   OH255389   6.142   2.851   0.502  0.1947 -0.0601 -0.0465
11325TIP3    H155390   6.088   2.783   0.542 -1.4218 -0.7044 -3.0454
11325TIP3    H255391   6.079   2.917   0.472  1.1298 -0.1027 -2.3065
11326TIP3   OH255392   4.449   5.530   1.515  0.5499 -0.5949  0.4867
11326TIP3    H155393   4.485   5.618   1.504 -0.6211 -0.1931 -0.3985
11326TIP3    H255394   4.514   5.473   1.474  1.5762 -0.2272  1.5269
11327TIP3   OH255395   5.577   0.567   3.180 -1.4227  0.6479 -0.0262
11327TIP3    H155396   5.509   0.580   3.246 -0.0683  2.3667  1.1432
11327TIP3    H255397   5.582   0.651   3.134 -0.5336  0.3486 -0.5002
11328TIP3   OH255398   2.104   3.483  12.678  0.0756 -0.1064 -0.4807
11328TIP3    H155399   2.141   3.527  12.754 -0.6411 -1.0770  0.4636
11328TIP3    H255400   2.019   3.524  12.665 -0.3617 -0.8035  0.0701
11329TIP3   OH255401   5.864   3.788  11.608 -0.4750 -0.5155 -0.5259
11329TIP3    H155402   5.784   3.836  11.630 -1.1783 -1.3517 -1.1776
11329TIP3    H255403   5.863   3.712  11.666  0.0508 -0.3259 -0.2673
11330TIP3   OH255404   1.001   0.511  12.339  0.2653  0.3828  0.0538
11330TIP3    H155405   0.910   0.491  12.359  0.6197 -1.2547  0.1368
11330TIP3    H255406   0.997   0.561  12.257 -0.6424 -0.5929 -0.5152
11331TIP3   OH255407   6.099   6.011  13.722  0.2632  0.1150 -0.3796
11331TIP3    H155408   6.189   5.992  13.747 -0.0009  0.4566  0.9224
11331TIP3    H255409   6.087   6.104  13.741 -0.5399 -0.0640  0.0702
11332TIP3   OH255410   4.027   0.567   0.946 -0.0360 -0.0151  0.0936
11332TIP3    H155411   4.023   0.542   1.039 -0.0072 -0.0620  0.0828
11332TIP3    H255412   4.050   0.660   0.947  2.0780 -0.4854  0.1202
11333TIP3   OH255413   0.618   4.485   0.189  0.2580  0.4169 -0.0591
11333TIP3    H155414   0.573   4.487   0.104  1.9717 -1.0386 -1.0816
11333TIP3    H255415   0.642   4.393   0.201  1.0571  0.7983  1.4663
11334TIP3   OH255416   6.484   0.263   4.942  0.5960  0.2863  0.3669
11334TIP3    H155417   6.511   0.172   4.959  0.3118  0.0447 -0.4169
11334TIP3    H255418   6.531   0.315   5.007 -0.1077 -0.5362  1.5737
11335TIP3   OH255419   1.477   5.319   0.024 -0.5196  0.0010 -0.2577
11335TIP3    H155420   1.506   5.321  -0.067 -2.8902  0.4441 -1.0881
11335TIP3    H255421   1.552   5.349   0.074  1.2898 -1.5187 -1.8989
11336TIP3   OH255422   1.278   4.012  16.968 -0.0245 -0.3128 -0.4204
11336TIP3    H155423   1.363   3.971  16.987 -0.4306 -0.4018  1.4429
11336TIP3    H255424   1.221   3.938  16.946  0.1213 -0.3632 -0.6364
11337TIP3   OH255425   1.259   2.046  15.081 -0.4842  0.2376  0.5826
11337TIP3    H155426   1.255   2.096  15.163 -1.5900 -2.5918  2.4036
11337TIP3    H255427   1.170   2.014  15.067 -0.3413  0.7089 -1.8502
11338TIP3   OH255428   4.923   5.815  12.290  0.0154 -0.2750  0.0763
11338TIP3    H155429   4.850   5.877  12.292 -0.1010 -0.4166  0.2486
11338TIP3    H255430   4.933   5.792  12.198  0.2885  0.2724 -0.0332
11339TIP3   OH255431   4.697   0.487  16.600 -0.0020  0.1819 -0.3678
11339TIP3    H155432   4.606   0.477  16.574  0.4859 -1.5150 -1.5986
11339TIP3    H255433   4.734   0.547  16.534  0.3895 -1.3532 -1.6238
11340TIP3   OH255434   5.380   0.172   4.219 -0.3798  0.1222  0.4271
11340TIP3    H155435   5.435   0.114   4.167  0.3178  0.8003  0.3909
11340TIP3    H255436   5.436   0.248   4.237 -1.2288  0.7152  0.5963
11341TIP3   OH255437   6.010   2.076   1.594 -0.4239  0.1936  0.0466
11341TIP3    H155438   6.098   2.112   1.584 -0.1554  0.2087  2.1615
11341TIP3    H255439   5.964   2.139   1.649 -1.1004 -0.8678  0.7212
11342TIP3   OH255440   2.539   4.437   2.917 -0.2663  0.1511  0.0749
11342TIP3    H155441   2.487   4.476   2.987 -2.1758  0.5502 -1.4537
11342TIP3    H255442   2.593   4.371   2.960 -0.1767  1.4681  2.1102
11343TIP3   OH255443   2.078   1.367   5.676  0.4052 -0.3883 -0.2877
11343TIP3    H155444   2.093   1.459   5.652  0.2411  0.3367  2.1399
11343TIP3    H255445   2.124   1.356   5.759 -1.1532 -1.9543  0.4288
11344TIP3   OH255446   4.771   6.402   1.268  1.0336 -0.1117 -0.1884
11344TIP3    H155447   4.837   6.417   1.335  0.6980  0.5792 -0.0030
11344TIP3    H255448   4.793   6.463   1.198  0.3799  0.3984  0.0379
11345TIP3   OH255449   5.182   5.780  16.425  0.0887  0.3978 -0.1694
11345TIP3    H155450   5.255   5.739  16.471 -1.1267 -0.4069  1.0976
11345TIP3    H255451   5.139   5.708  16.379  0.7902  1.0577 -1.9786
11346TIP3   OH255452   6.637   3.890  15.343  0.1600  0.3304  0.4438
11346TIP3    H155453   6.655   3.808  15.390 -0.3893 -0.0831 -0.0537
11346TIP3    H255454   6.703   3.951  15.376  0.7454 -0.3829  0.6236
11347TIP3   OH255455   4.212   1.883  11.300  0.0147  0.5024  0.0259
11347TIP3    H155456   4.147   1.819  11.330  1.0798 -0.2622  0.8082
11347TIP3    H255457   4.197   1.891  11.206 -0.0870 -1.0122 -0.1107
11348TIP3   OH255458   4.217   6.794  14.156  0.5405  0.1917 -0.0801
11348TIP3    H155459   4.132   6.766  14.123  0.6159  1.7571 -1.7230
11348TIP3    H255460   4.197   6.870  14.211  0.8957  0.6679 -0.6092
11349TIP3   OH255461   3.817   5.660   0.304 -0.1924  0.3222  0.2709
11349TIP3    H155462   3.820   5.680   0.398  1.8310 -0.4854  0.4330
11349TIP3    H255463   3.905   5.628   0.284 -1.4702 -2.6505 -1.1810
11350TIP3   OH255464   2.106   3.338  12.421 -0.4733 -0.2323 -0.3999
11350TIP3    H155465   2.092   3.324  12.515 -0.2384 -0.9514 -0.4623
11350TIP3    H255466   2.043   3.279  12.379  1.1887 -1.9047 -0.6815
11351TIP3   OH255467   5.410   1.853   5.560 -0.4220  0.3015 -1.1825
11351TIP3    H155468   5.494   1.897   5.546  0.9798 -1.7729  0.1625
11351TIP3    H255469   5.360   1.913   5.614  2.0410 -0.2137  1.9592
11352TIP3   OH255470   3.340   0.188  16.495 -0.1116 -0.5882  0.0828
11352TIP3    H155471   3.374   0.266  16.452  0.8687 -1.2719 -0.4446
11352TIP3    H255472   3.258   0.168  16.449  0.4629 -0.7888 -0.8805
11353TIP3   OH255473   1.511   5.454  13.038  0.5907  0.3641  0.1463
11353TIP3    H155474   1.474   5.394  13.102  2.9963 -1.0120  0.3650
11353TIP3    H255475   1.467   5.434  12.956  0.0266 -0.3648  0.6231
11354TIP3   OH255476   1.087   3.635  12.193  0.2167 -0.4108 -0.3225
11354TIP3    H155477   1.001   3.677  12.182 -0.2165 -1.0657  0.4142
11354TIP3    H255478   1.066   3.545  12.219  1.0214  0.3896  3.8383
11355TIP3   OH255479   5.773   1.104  17.069  0.3831  0.5142  0.4859
11355TIP3    H155480   5.832   1.165  17.024  1.7786 -0.8875  0.3448
11355TIP3    H255481   5.830   1.056  17.129 -0.1389 -2.3886 -1.1676
11356TIP3   OH255482   5.394   2.909   5.496 -0.0904  0.2494 -0.3463
11356TIP3    H155483   5.435   2.847   5.557  0.0144 -0.1680 -0.8371
11356TIP3    H255484   5.438   2.894   5.413 -0.4742  0.5768 -0.6108
11357TIP3   OH255485   0.037   5.601   4.187 -0.2685  0.0726 -0.1069
11357TIP3    H155486   0.000   5.663   4.124 -0.7058  0.6055  0.6632
11357TIP3    H255487   0.125   5.633   4.205 -0.5736  0.6077  0.4601
11358TIP3   OH255488   1.453   6.045  11.218 -0.2439 -0.0190 -0.0967
11358TIP3    H155489   1.389   6.079  11.155 -0.0301  1.0881  0.2682
11358TIP3    H255490   1.404   5.980  11.269 -1.1032  0.8593  0.2162
11359TIP3   OH255491   4.251   2.028   2.978 -0.0061  0.3021  0.1906
11359TIP3    H155492   4.221   1.939   2.960  0.4056 -0.0310  1.0792
11359TIP3    H255493   4.171   2.082   2.973 -0.5601 -0.3829  1.3324
11360TIP3   OH255494   0.253   1.258  14.584  0.1550 -0.0467 -0.0564
11360TIP3    H155495   0.289   1.172  14.606  0.7316  0.3965  0.8004
11360TIP3    H255496   0.286   1.275  14.496 -0.7434 -1.0969 -0.6222
11361TIP3   OH255497   5.390   0.078   4.991 -0.2060  0.0494  0.0416
11361TIP3    H155498   5.374   0.097   5.083  0.8008 -0.5436  0.3512
11361TIP3    H255499   5.329   0.136   4.944 -0.7831  0.3022  1.0638
11362TIP3   OH255500   2.638   2.954   2.956 -0.4366  0.4901 -0.3107
11362TIP3    H155501   2.616   2.971   2.864 -1.7648  0.8854  0.0584
11362TIP3    H255502   2.589   2.875   2.978  0.7773 -0.2765 -0.2338
11363TIP3   OH255503   2.185   4.192   0.881  0.4066 -0.3620  0.0215
11363TIP3    H155504   2.251   4.124   0.868  0.4769 -0.3127  0.1138
11363TIP3    H255505   2.112   4.167   0.825  1.3853  0.8113 -1.8911
11364TIP3   OH255506   0.254   4.429   4.817 -0.4351 -0.2334 -0.2795
11364TIP3    H155507   0.301   4.352   4.850  1.0190  0.6870 -0.0931
11364TIP3    H255508   0.259   4.493   4.889 -2.8343 -0.3906  0.1261
11365TIP3   OH255509   2.824   5.656  14.726 -0.3502 -0.6250 -0.1280
11365TIP3    H155510   2.887   5.686  14.791 -1.4920 -0.7320  1.0666
11365TIP3    H255511   2.749   5.714  14.737 -1.1444 -1.5921 -0.3144
11366TIP3   OH255512   6.645   4.022   2.400  0.6097 -0.3667 -0.0048
11366TIP3    H155513   6.561   4.032   2.446  1.3254  1.1763  1.0361
11366TIP3    H255514   6.620   4.011   2.308 -0.7813 -1.5373  0.4629
11367TIP3   OH255515   2.525   5.130  11.357 -0.0656 -0.1297  0.0804
11367TIP3    H155516   2.618   5.141  11.340 -0.0529 -1.1841 -0.6398
11367TIP3    H255517   2.503   5.201  11.417  0.9705  0.7517 -0.5487
11368TIP3   OH255518   5.733   3.548   0.309 -0.3812  0.3732  0.2712
11368TIP3    H155519   5.798   3.480   0.327 -2.8781 -2.7536 -1.5462
11368TIP3    H255520   5.676   3.548   0.386 -0.6201  0.1042  0.0947
11369TIP3   OH255521   3.940   6.499   5.619  0.0388  0.8656  0.1020
11369TIP3    H155522   3.893   6.473   5.698 -0.1521 -2.2635 -0.8820
11369TIP3    H255523   3.875   6.496   5.550  0.6625  1.2937 -0.5167
11370TIP3   OH255524   6.275   2.960   4.234  0.1350 -0.7915  0.5579
11370TIP3    H155525   6.235   3.013   4.304  1.3228  1.8717 -0.6298
11370TIP3    H255526   6.367   2.952   4.261  0.2631 -1.0574  0.0425
11371TIP3   OH255527   2.434   5.671  16.324 -0.1160 -0.0218 -0.1150
11371TIP3    H155528   2.517   5.717  16.340 -0.7098  0.8325  0.6274
11371TIP3    H255529   2.455   5.607  16.256  1.5321 -0.9409  1.2033
11372TIP3   OH255530   6.657   6.212  13.177 -0.1082  0.1422  0.0623
11372TIP3    H155531   6.578   6.205  13.123 -0.6257 -3.0833  1.0079
11372TIP3    H255532   6.729   6.191  13.118 -0.2932  0.0433 -0.1285
11373TIP3   OH255533   4.377   3.451  15.320 -0.0108 -0.4523  0.2573
11373TIP3    H155534   4.467   3.421  15.332  0.2389  0.9503  2.1759
11373TIP3    H255535   4.381   3.511  15.245  0.2714 -1.7258 -0.7984
11374TIP3   OH255536   6.172   6.508  12.243 -0.4173  0.1489  0.0726
11374TIP3    H155537   6.256   6.484  12.205 -0.7418 -0.4082 -0.3033
11374TIP3    H255538   6.181   6.489  12.336 -0.1083  0.1523  0.0431
11375TIP3   OH255539   4.908   6.663   4.240 -0.4148 -0.1611  0.0578
11375TIP3    H155540   4.822   6.701   4.256 -0.3909 -0.2303  0.3511
11375TIP3    H255541   4.936   6.630   4.325 -0.9537 -1.9362 -0.3908
11376TIP3   OH255542   1.260   2.338  12.862 -0.0778 -0.2692 -0.2734
11376TIP3    H155543   1.237   2.265  12.919  0.9339 -0.1436  0.3236
11376TIP3    H255544   1.253   2.415  12.918 -0.1095 -0.0206 -0.6168
11377TIP3   OH255545   5.724   0.169  11.618  0.0841 -0.0079 -0.2494
11377TIP3    H155546   5.746   0.177  11.525 -0.3600 -1.5486 -0.5193
11377TIP3    H255547   5.630   0.186  11.622  0.3882  1.7273  0.1882
11378TIP3   OH255548   4.772   2.921   5.034 -0.0039  0.0833 -0.0460
11378TIP3    H155549   4.683   2.904   5.004  0.7081 -1.7023 -1.2811
11378TIP3    H255550   4.828   2.880   4.969  1.7909  2.2032  0.0497
11379TIP3   OH255551   3.773   6.194  11.779 -0.1154  0.3721  0.1256
11379TIP3    H155552   3.769   6.189  11.875 -0.2075 -1.4079  0.0691
11379TIP3    H255553   3.760   6.287  11.759 -1.2646  0.6225  1.7952
11380TIP3   OH255554   1.020   2.475   2.147 -0.0210 -0.1019  0.5534
11380TIP3    H155555   1.018   2.434   2.234  1.0996 -0.3205  0.4916
11380TIP3    H255556   1.109   2.461   2.116  0.1344  1.5679  0.1329
11381TIP3   OH255557   5.297   1.476  16.667  0.1645  0.7309  0.1516
11381TIP3    H155558   5.370   1.522  16.708  1.7726 -2.5636  1.2918
11381TIP3    H255559   5.241   1.450  16.740  1.2074 -2.1305  0.0404
11382TIP3   OH255560   4.747   0.608  11.848 -0.0527 -0.2099  0.4162
11382TIP3    H155561   4.841   0.598  11.862 -0.2578 -0.6088  1.6597
11382TIP3    H255562   4.737   0.699  11.820  0.7723 -0.3964 -0.5558
11383TIP3   OH255563   4.792   5.889  16.322  0.3164  0.0817 -0.2748
11383TIP3    H155564   4.722   5.933  16.370  0.4596  0.5944 -0.5277
11383TIP3    H255565   4.793   5.799  16.357 -0.5591  0.0277 -0.3846
11384TIP3   OH255566   0.130   6.695   3.145 -0.6990 -0.5428  0.6204
11384TIP3    H155567   0.106   6.618   3.092 -0.7247 -0.2719  0.2351
11384TIP3    H255568   0.203   6.664   3.199 -0.2732 -0.6547 -0.0061
11385TIP3   OH255569   2.965   2.742  12.698 -0.4315  0.1273  0.2597
11385TIP3    H155570   2.978   2.718  12.606  0.7626 -0.0057  0.4470
11385TIP3    H255571   2.905   2.816  12.695  0.1800  0.6093 -0.6829
11386TIP3   OH255572   2.497   1.840   2.323 -0.4337 -0.0068 -0.2609
11386TIP3    H155573   2.574   1.892   2.345 -0.5000 -0.1377  0.3119
11386TIP3    H255574   2.456   1.822   2.408 -1.1814  0.2006 -0.5765
11387TIP3   OH255575   6.445   3.434   3.513 -0.1370  0.2891 -0.4287
11387TIP3    H155576   6.447   3.349   3.469  1.3319 -0.4836  1.0237
11387TIP3    H255577   6.388   3.420   3.589  0.9099  0.2738  0.3768
11388TIP3   OH255578   2.028   4.718   5.479 -0.1161 -0.4816 -0.0004
11388TIP3    H155579   2.061   4.741   5.567  0.7737  0.6544 -0.5907
11388TIP3    H255580   1.938   4.751   5.478  0.1739  0.3567  0.1890
11389TIP3   OH255581   1.572   2.521  13.456  0.1128 -0.3051  0.3706
11389TIP3    H155582   1.481   2.494  13.472 -0.5440  2.4269  1.8106
11389TIP3    H255583   1.619   2.493  13.535  0.0795  0.0108  0.5047
11390TIP3   OH255584   2.309   2.640   2.711 -0.5877  0.0303  0.2017
11390TIP3    H155585   2.269   2.684   2.636  0.7977  0.9160 -0.0368
11390TIP3    H255586   2.295   2.546   2.694  1.0854  0.1018 -2.0036
11391TIP3   OH255587   5.796   0.623  16.194  0.3426  0.0246 -0.2475
11391TIP3    H155588   5.723   0.566  16.172 -0.8977  1.6066 -0.4292
11391TIP3    H255589   5.781   0.647  16.286  0.4720  0.5484 -0.3569
11392TIP3   OH255590   6.499   5.520   4.195 -0.5399  0.5082 -0.2689
11392TIP3    H155591   6.506   5.430   4.166 -0.5775  0.5096 -0.2823
11392TIP3    H255592   6.548   5.571   4.130  0.5501  0.3603  0.4191
11393TIP3   OH255593   3.343   3.119   5.509 -0.3274 -0.3158 -0.5096
11393TIP3    H155594   3.309   3.206   5.487  0.8086  0.5905  1.0619
11393TIP3    H255595   3.337   3.115   5.605  1.3398 -1.2067 -0.4048
11394TIP3   OH255596   1.071   3.437   1.774  0.1667 -0.1568 -0.7472
11394TIP3    H155597   1.164   3.438   1.798 -0.0814  0.6863  0.2167
11394TIP3    H255598   1.054   3.524   1.739  0.0811 -0.7850 -2.4049
11395TIP3   OH255599   3.197   1.092  13.451 -0.5103  0.4599 -0.4352
11395TIP3    H155600   3.119   1.054  13.411 -0.1983 -2.4241  1.4639
11395TIP3    H255601   3.186   1.078  13.545  1.5875  1.4068  0.0099
11396TIP3   OH255602   5.918   6.464  13.621 -0.3408  0.6041 -0.2963
11396TIP3    H155603   5.880   6.466  13.708 -1.9932  0.9661 -0.9967
11396TIP3    H255604   5.985   6.532  13.623 -2.0497  2.3499 -0.0217
11397TIP3   OH255605   6.007   2.053  14.762  0.3540  0.2721  0.4539
11397TIP3    H155606   5.927   2.047  14.813  0.7208  0.0229  1.0081
11397TIP3    H255607   6.041   1.963  14.760 -1.2503 -0.4328 -2.8564
11398TIP3   OH255608   2.311   6.362   5.203  0.3377 -0.1136 -0.4048
11398TIP3    H155609   2.306   6.340   5.296  0.9524  1.2677 -0.0218
11398TIP3    H255610   2.292   6.455   5.199  0.2847 -0.1533 -1.6882
11399TIP3   OH255611   5.398   0.308  13.294  0.0197  0.2189 -0.1157
11399TIP3    H155612   5.416   0.398  13.322 -3.1212  1.1961 -0.8580
11399TIP3    H255613   5.403   0.257  13.375  2.6786  0.8153  0.1976
11400TIP3   OH255614   5.817   1.116  15.630  0.3315  0.1188  0.6289
11400TIP3    H155615   5.817   1.075  15.543  1.2503  1.1263  0.1446
11400TIP3    H255616   5.778   1.049  15.687 -0.7633 -0.3717 -0.6336
11401TIP3   OH255617   6.373   1.742   4.434  0.7389 -0.5950  0.4145
11401TIP3    H155618   6.298   1.744   4.374 -0.6982  1.8463  2.0989
11401TIP3    H255619   6.386   1.649   4.452 -2.1238 -1.1197  0.2552
11402TIP3   OH255620   5.033   1.758   4.778 -0.6327 -0.0331  0.3726
11402TIP3    H155621   4.942   1.789   4.777 -0.4590  0.7758  2.6756
11402TIP3    H255622   5.071   1.799   4.856  1.7300 -0.3474 -0.5310
11403TIP3   OH255623   2.002   0.515  10.731  0.1806  0.8470 -0.1641
11403TIP3    H155624   1.937   0.584  10.713  0.0457  1.0569  1.0834
11403TIP3    H255625   2.067   0.526  10.661 -0.8946  0.9034 -1.1883
11404TIP3   OH255626   2.539   4.724   4.265  0.2513  0.1598 -0.2885
11404TIP3    H155627   2.529   4.651   4.203  0.4197  0.2963 -0.4765
11404TIP3    H255628   2.591   4.688   4.336 -1.1430 -0.4299  0.4855
11405TIP3   OH255629   2.468   5.497   2.062  0.2444  0.1157 -0.1210
11405TIP3    H155630   2.380   5.516   2.095  0.5177 -0.1114  0.7623
11405TIP3    H255631   2.453   5.442   1.985 -0.3874  0.0749  0.0254
11406TIP3   OH255632   3.621   1.570   2.026  0.2755  0.0051  0.2092
11406TIP3    H155633   3.532   1.552   2.057  0.6308 -0.3014  1.0712
11406TIP3    H255634   3.657   1.484   2.005  0.1425  0.1820 -0.8199
11407TIP3   OH255635   1.426   6.067  12.309  0.5620  0.2964  0.0666
11407TIP3    H155636   1.358   6.085  12.375  0.4421  0.7119 -0.1655
11407TIP3    H255637   1.379   6.021  12.239  0.5202  0.5747 -0.0892
11408TIP3   OH255638   5.822   2.031  12.336  0.0266 -0.1321  0.0450
11408TIP3    H155639   5.884   2.036  12.264  0.2020 -1.7245  0.0476
11408TIP3    H255640   5.828   2.116  12.380  0.4082  0.6028 -1.3978
11409TIP3   OH255641   2.939   3.314   5.302  0.2700  0.3802  0.0652
11409TIP3    H155642   2.955   3.324   5.208 -0.4502  1.9708  0.0823
11409TIP3    H255643   2.845   3.302   5.309  0.4429 -0.8580  0.5298
11410TIP3   OH255644   5.541   3.696  14.960 -0.2313  0.9348 -0.1898
11410TIP3    H155645   5.467   3.651  15.001 -0.1913 -0.1300 -1.2340
11410TIP3    H255646   5.596   3.723  15.034 -1.9150  2.2789  0.6563
11411TIP3   OH255647   3.784   1.163   0.118 -0.2684  0.3622 -0.9901
11411TIP3    H155648   3.832   1.125   0.192  1.3451  0.7762 -1.7829
11411TIP3    H255649   3.753   1.088   0.068 -2.2165  0.0510  0.5633
11412TIP3   OH255650   6.080   6.103  15.089  0.3104 -0.0704 -0.3442
11412TIP3    H155651   6.070   6.016  15.126 -0.1359 -1.0149 -2.5320
11412TIP3    H255652   6.148   6.094  15.022 -0.4863  0.9645 -1.3584
11413TIP3   OH255653   4.481   4.882   2.749  0.3075 -0.1829  0.1811
11413TIP3    H155654   4.521   4.800   2.719  1.1609 -0.1520  1.1967
11413TIP3    H255655   4.435   4.858   2.830 -1.9495 -0.2576 -1.0339
11414TIP3   OH255656   1.336   0.214   2.665 -0.0974  0.1527  0.4063
11414TIP3    H155657   1.379   0.133   2.637  0.3750  0.1127  1.2172
11414TIP3    H255658   1.351   0.218   2.759 -3.9205 -1.1439  1.2813
11415TIP3   OH255659   1.998   0.864  14.189  0.1031  0.2651  0.0926
11415TIP3    H155660   1.997   0.911  14.273  0.6349  0.7707 -0.1835
11415TIP3    H255661   2.085   0.825  14.185  0.2721  0.7028 -0.4829
11416TIP3   OH255662   0.342   1.194  11.635 -0.4948  0.1095 -0.1578
11416TIP3    H155663   0.403   1.174  11.565 -1.4078  1.9438 -1.5551
11416TIP3    H255664   0.289   1.114  11.645  1.6694 -1.3174  0.7222
11417TIP3   OH255665   5.329   1.867   1.957  0.3850  0.0450 -0.1768
11417TIP3    H155666   5.240   1.861   1.991 -0.5667 -3.5861 -2.7381
11417TIP3    H255667   5.384   1.831   2.027 -0.3484  0.5114  0.6649
11418TIP3   OH255668   4.278   3.303  17.035 -0.3068  0.0674 -0.0806
11418TIP3    H155669   4.358   3.270  16.995  0.2548  0.5891  0.5826
11418TIP3    H255670   4.229   3.225  17.059 -0.4373 -0.2548 -1.3215
11419TIP3   OH255671   0.823   6.621   2.054  0.3387 -0.2145 -0.0499
11419TIP3    H155672   0.876   6.605   1.977  0.3499  0.3836 -0.1721
11419TIP3    H255673   0.867   6.573   2.124  1.9185  1.4695  0.1803
11420TIP3   OH255674   2.566   1.386  11.558  0.0601 -0.1747  0.0144
11420TIP3    H155675   2.562   1.455  11.491  1.6430  0.6985  0.7579
11420TIP3    H255676   2.564   1.433  11.641  0.8963 -1.0446  0.5415
11421TIP3   OH255677   1.371   2.573  11.295 -0.1886  1.0386 -0.4845
11421TIP3    H155678   1.343   2.573  11.387  1.3213  2.0161  0.0102
11421TIP3    H255679   1.309   2.631  11.252  0.2409  2.1520  0.3350
11422TIP3   OH255680   4.615   2.741  13.880 -0.5871  0.0492 -0.2324
11422TIP3    H155681   4.620   2.784  13.966 -0.4444 -0.2378 -0.0931
11422TIP3    H255682   4.686   2.677  13.882 -1.4074 -0.8820 -0.0521
11423TIP3   OH255683   2.742   0.733  16.075 -0.2902 -0.3274 -1.0784
11423TIP3    H155684   2.802   0.660  16.094 -0.3734 -0.5405 -1.6165
11423TIP3    H255685   2.657   0.691  16.061 -0.5183 -0.0460 -0.5516
11424TIP3   OH255686   3.672   6.348  11.294 -0.0088  0.2145  0.3165
11424TIP3    H155687   3.717   6.269  11.264 -1.9997 -0.8045 -0.1526
11424TIP3    H255688   3.731   6.386  11.359  2.2303 -0.1426 -1.3929
11425TIP3   OH255689   4.459   3.566  16.855  0.2340  0.5296  0.2035
11425TIP3    H155690   4.469   3.579  16.760 -2.1476  0.1741 -0.1479
11425TIP3    H255691   4.380   3.615  16.878  0.0213 -0.4860  1.7692
11426TIP3   OH255692   4.037   3.418   1.303 -0.5299 -0.2578  0.2467
11426TIP3    H155693   4.064   3.398   1.213  0.8787  0.0320  0.5821
11426TIP3    H255694   4.029   3.514   1.304 -1.4774 -0.3302  0.1897
11427TIP3   OH255695   5.157   4.277  11.640 -0.0902 -0.0169 -0.1148
11427TIP3    H155696   5.078   4.243  11.681  0.1362  0.3263  0.6276
11427TIP3    H255697   5.155   4.371  11.658 -0.5100  0.3273 -1.7937
11428TIP3   OH255698   6.013   2.074   2.363  0.1785 -0.1271 -0.0984
11428TIP3    H155699   6.033   2.156   2.408  2.0095 -0.9701  0.7034
11428TIP3    H255700   5.970   2.102   2.282 -0.3297  1.5524  0.6928
11429TIP3   OH255701   5.322   5.893  11.020 -0.1589 -0.3061  0.1038
11429TIP3    H155702   5.233   5.883  11.054 -0.6829  0.3641 -0.9789
11429TIP3    H255703   5.359   5.966  11.070 -0.9749  0.7789 -0.7901
11430TIP3   OH255704   1.000   0.341  13.935  0.0805 -0.4896 -0.4776
11430TIP3    H155705   1.020   0.280  14.005  1.9741 -0.7783 -1.2189
11430TIP3    H255706   0.928   0.394  13.969 -1.0260 -2.5218  0.5191
11431TIP3   OH255707   3.553   6.083  12.905 -0.2656  0.0872  0.0972
11431TIP3    H155708   3.458   6.074  12.917 -0.1504 -1.2152  0.1718
11431TIP3    H255709   3.591   6.041  12.981  0.3885  0.1261 -0.2009
11432TIP3   OH255710   3.254   5.160  10.340 -0.1884  0.3787  0.2750
11432TIP3    H155711   3.221   5.193  10.256 -0.3726 -0.3525  0.0459
11432TIP3    H255712   3.187   5.185  10.404 -0.6395 -0.1039  0.0010
11433TIP3   OH255713   3.573   6.359  17.163 -0.0304 -0.5424  0.8219
11433TIP3    H155714   3.612   6.435  17.119 -0.3626 -1.8074 -1.8395
11433TIP3    H255715   3.481   6.382  17.172  0.3155  0.3793  2.4645
11434TIP3   OH255716   4.621   6.008   4.844  0.5985 -0.0633 -0.1080
11434TIP3    H155717   4.690   6.073   4.858  0.4716 -0.1480  1.0067
11434TIP3    H255718   4.542   6.060   4.832  0.4804  0.0029  0.8804
11435TIP3   OH255719   3.516   2.479   5.127  0.2544  0.1599 -0.1810
11435TIP3    H155720   3.479   2.419   5.193  0.8275  0.4677  0.4284
11435TIP3    H255721   3.602   2.501   5.161  0.2666  0.8970 -0.6832
11436TIP3   OH255722   1.332   5.515  14.387  0.0002  0.3538 -0.3298
11436TIP3    H155723   1.416   5.476  14.362  1.1918  2.3294  0.3791
11436TIP3    H255724   1.282   5.519  14.305  1.3644  0.8747 -1.1729
11437TIP3   OH255725   2.462   2.705   2.371  0.4046 -0.1146  0.4627
11437TIP3    H155726   2.401   2.778   2.359 -0.1195 -0.6788 -0.4319
11437TIP3    H255727   2.546   2.739   2.340  0.1210  0.0540 -0.1319
11438TIP3   OH255728   6.284   0.450   3.680 -0.2099  0.6396  0.0752
11438TIP3    H155729   6.194   0.426   3.654  0.2290 -1.1453  0.0395
11438TIP3    H255730   6.339   0.401   3.618  0.7946  1.0374  0.6496
11439TIP3   OH255731   3.756   2.716   0.624 -0.4048  0.0449 -0.5821
11439TIP3    H155732   3.846   2.737   0.651 -0.5109 -0.4598  0.1873
11439TIP3    H255733   3.712   2.691   0.706 -2.2501  3.6551 -0.2782
11440TIP3   OH255734   6.757   5.274  10.857  0.5568 -0.8471 -0.4263
11440TIP3    H155735   6.736   5.328  10.781  2.0333 -0.0221 -0.2719
11440TIP3    H255736   6.726   5.325  10.932 -0.5414 -1.4861 -0.4152
11441TIP3   OH255737   4.591   1.593  14.139  0.0093 -0.0995 -0.0414
11441TIP3    H155738   4.593   1.502  14.108  2.7433 -1.0206  2.4123
11441TIP3    H255739   4.605   1.586  14.233 -1.9159  2.8342  0.5781
11442TIP3   OH255740   2.888   6.114   2.733  0.5565  0.3907  0.0140
11442TIP3    H155741   2.908   6.206   2.716 -0.5440  0.5027 -0.7762
11442TIP3    H255742   2.966   6.067   2.703  1.1197  1.0530  0.4169
11443TIP3   OH255743   1.867   0.573  12.701 -0.1429  0.2046 -0.3178
11443TIP3    H155744   1.922   0.536  12.633 -0.2109  1.3664 -1.0358
11443TIP3    H255745   1.870   0.668  12.685 -2.1450  0.3233 -0.2235
11444TIP3   OH255746   4.976   3.002   4.112  0.1907 -0.4955  0.3255
11444TIP3    H155747   5.029   2.982   4.035  0.5621  0.9080  0.1895
11444TIP3    H255748   5.007   3.088   4.141 -0.1686 -0.8506  1.8536
11445TIP3   OH255749   2.923   6.364   0.508 -0.3402  0.4402 -0.3128
11445TIP3    H155750   2.925   6.383   0.414  3.1445  2.3299 -0.0072
11445TIP3    H255751   2.883   6.442   0.547 -2.0773 -0.4732 -0.1605
11446TIP3   OH255752   1.756   4.480  16.983 -0.2878 -0.5772  0.0965
11446TIP3    H155753   1.837   4.506  16.939 -1.3040  0.5174 -1.1970
11446TIP3    H255754   1.730   4.399  16.939 -0.3955 -0.4100 -0.1494
11447TIP3   OH255755   5.300   3.902   5.393  0.3006 -0.4114  0.3147
11447TIP3    H155756   5.385   3.942   5.415  0.1547  0.8283 -1.2172
11447TIP3    H255757   5.320   3.846   5.319 -0.0765 -0.7723  0.4896
11448TIP3   OH255758   5.971   1.823   0.572  0.3557 -0.2382 -0.3803
11448TIP3    H155759   5.883   1.861   0.572  0.5582  0.2810  1.1793
11448TIP3    H255760   6.006   1.845   0.485 -1.7413 -2.2416 -1.8731
11449TIP3   OH255761   5.061   4.868  13.313 -0.4267  0.1280  0.1131
11449TIP3    H155762   5.144   4.900  13.276 -1.3138  0.5324 -1.6336
11449TIP3    H255763   5.056   4.777  13.285  0.4784 -0.5987  2.1788
11450TIP3   OH255764   6.564   1.125   4.312  0.2716  0.0499  0.7606
11450TIP3    H155765   6.570   1.078   4.395  3.2159 -1.5451 -0.2136
11450TIP3    H255766   6.576   1.057   4.245 -0.6842  1.4825 -0.9511
11451TIP3   OH255767   0.214   6.118   1.527  0.4632 -0.2195  1.1813
11451TIP3    H155768   0.161   6.186   1.487  0.2631 -0.8475  0.3229
11451TIP3    H255769   0.304   6.149   1.516  0.3574  0.0668  1.1093
11452TIP3   OH255770   2.349   4.069  14.271  0.3011 -0.7229  0.6322
11452TIP3    H155771   2.411   3.998  14.254  0.1144 -0.3717 -1.8984
11452TIP3    H255772   2.267   4.039  14.232  0.0397  0.5712  0.1406
11453TIP3   OH255773   0.818   1.238  12.092  0.0709 -0.2475  0.3209
11453TIP3    H155774   0.906   1.275  12.101  0.5844 -1.7502  2.2533
11453TIP3    H255775   0.760   1.302  12.134  0.3572  0.3233 -0.1444
11454TIP3   OH255776   3.149   4.753   2.694 -0.2354  0.6240 -0.5088
11454TIP3    H155777   3.227   4.719   2.651  0.3068  1.5162 -0.2655
11454TIP3    H255778   3.078   4.741   2.631 -0.3319 -1.9749 -0.0098
11455TIP3   OH255779   2.546   4.940  15.021 -0.3511  0.2622  0.2820
11455TIP3    H155780   2.562   4.981  14.936  0.3815  0.6119  0.5853
11455TIP3    H255781   2.463   4.894  15.010  0.0123 -0.1526 -0.7932
11456TIP3   OH255782   4.153   0.999  13.069  0.2221  0.0559  0.2266
11456TIP3    H155783   4.225   0.966  13.123 -1.1650 -2.6436  0.5695
11456TIP3    H255784   4.082   1.016  13.131 -0.1434  0.6429 -0.3412
11457TIP3   OH255785   1.699   4.796  14.769  0.1958 -0.1666  0.7253
11457TIP3    H155786   1.711   4.796  14.674 -0.0466 -2.1831  0.6630
11457TIP3    H255787   1.773   4.848  14.802 -0.6260  1.9778 -0.6155
11458TIP3   OH255788   2.375   5.933  11.563  0.1536  0.4091  0.4141
11458TIP3    H155789   2.463   5.897  11.556 -1.4764 -3.9122 -1.6359
11458TIP3    H255790   2.334   5.882  11.634 -1.2561  0.7979 -0.0842
11459TIP3   OH255791   6.142   2.608   5.611 -0.3872  0.3399 -0.1609
11459TIP3    H155792   6.100   2.598   5.526 -0.6704  0.4704 -0.0410
11459TIP3    H255793   6.129   2.524   5.655  0.0134  0.1751 -0.3559
11460TIP3   OH255794   3.865   1.244  13.595  1.0730  0.0732  0.2611
11460TIP3    H155795   3.959   1.245  13.579  0.8963  0.5096 -0.9243
11460TIP3    H255796   3.846   1.156  13.627  1.4829 -1.0957 -2.3915
11461TIP3   OH255797   1.698   3.181  12.249 -0.8763  0.4597 -0.4664
11461TIP3    H155798   1.640   3.108  12.227 -0.9398  0.1330  0.7157
11461TIP3    H255799   1.696   3.238  12.171 -1.2495 -0.5168 -1.1888
11462TIP3   OH255800   2.355   6.166   5.026  0.9755  0.3395  0.2479
11462TIP3    H155801   2.423   6.135   5.086  1.8095  2.2559  0.3623
11462TIP3    H255802   2.318   6.243   5.070  0.5380  0.8606 -1.0030
11463TIP3   OH255803   4.002   0.318  16.526 -0.6305  0.2872 -0.1164
11463TIP3    H155804   4.079   0.366  16.498 -0.5840  0.6163  0.5445
11463TIP3    H255805   4.015   0.230  16.493  0.7085 -0.0327  1.1424
11464TIP3   OH255806   5.221   5.837   4.639 -0.0950  0.0991  0.4948
11464TIP3    H155807   5.242   5.859   4.730  2.2458  0.5309 -0.0845
11464TIP3    H255808   5.217   5.921   4.595  0.0177 -0.1751 -0.0418
11465TIP3   OH255809   6.722   1.006  11.985  0.1827 -0.1277 -0.2395
11465TIP3    H155810   6.795   0.949  12.009 -1.2761 -2.2008 -0.4939
11465TIP3    H255811   6.735   1.025  11.892  0.0643 -1.0254 -0.4428
11466TIP3   OH255812   5.545   2.339   0.976  0.0275  0.1760  0.2981
11466TIP3    H155813   5.545   2.267   1.040 -0.5226  0.5829  0.7665
11466TIP3    H255814   5.496   2.409   1.019  0.0798  0.6351 -0.3783
11467TIP3   OH255815   1.570   4.392  12.090  0.6942  0.7049 -0.2813
11467TIP3    H155816   1.605   4.405  12.178  0.1848  1.6214 -0.2041
11467TIP3    H255817   1.646   4.364  12.038  1.0439  0.3893  0.3911
11468TIP3   OH255818   0.482   3.818   5.291  0.3489 -0.0876 -0.2758
11468TIP3    H155819   0.460   3.778   5.375  1.2182 -2.7272 -1.2224
11468TIP3    H255820   0.414   3.786   5.231  1.8651 -1.4227 -1.3636
11469TIP3   OH255821   1.025   2.558  14.153 -0.1469 -0.1137  0.0595
11469TIP3    H155822   0.989   2.546  14.065  0.7438 -0.2608 -0.2959
11469TIP3    H255823   1.048   2.470  14.181 -4.3272 -0.7649  2.2357
11470TIP3   OH255824   4.663   1.423  11.083 -0.6186  0.2589 -0.1216
11470TIP3    H155825   4.578   1.467  11.089 -0.7969 -0.0928 -0.0449
11470TIP3    H255826   4.643   1.337  11.046 -0.6063 -0.6838  1.9358
11471TIP3   OH255827   1.254   1.506   4.882 -0.4176 -0.3202  0.5262
11471TIP3    H155828   1.244   1.496   4.977  0.1385 -0.0720  0.6120
11471TIP3    H255829   1.314   1.435   4.858  0.4232  0.3755  0.5481
11472TIP3   OH255830   3.317   0.444  11.816 -0.5187  0.4882  0.0074
11472TIP3    H155831   3.261   0.496  11.875  0.3847  0.3722  0.9932
11472TIP3    H255832   3.335   0.364  11.865 -1.1575 -0.3883 -1.1451
11473TIP3   OH255833   3.015   1.944   6.702  0.0882  0.1140 -0.7656
11473TIP3    H155834   3.044   1.933   6.793  2.3999  0.8813 -1.3351
11473TIP3    H255835   2.977   1.859   6.679 -0.8934  0.0211  1.0019
11474TIP3   OH255836   4.968   4.214  12.514 -0.7555 -0.3768 -0.0228
11474TIP3    H155837   4.879   4.227  12.483 -0.2041  1.6972 -0.9438
11474TIP3    H255838   4.987   4.292  12.567  0.3535 -1.0038  0.5472
11475TIP3   OH255839   4.862   2.192   5.918 -0.1991  0.2499  0.0626
11475TIP3    H155840   4.793   2.131   5.889 -0.4371  1.1204 -1.3334
11475TIP3    H255841   4.898   2.152   5.996 -0.8522 -1.3146 -0.3883
11476TIP3   OH255842   2.630   4.349   4.400  0.2383 -0.5553 -0.2783
11476TIP3    H155843   2.618   4.302   4.317 -0.2795 -1.3204  0.2148
11476TIP3    H255844   2.725   4.357   4.409  0.3007  1.2522 -1.8666
11477TIP3   OH255845   4.808   3.556  14.364 -0.0950 -0.4346 -0.0286
11477TIP3    H155846   4.842   3.467  14.376 -0.0501 -0.6502 -1.5213
11477TIP3    H255847   4.855   3.589  14.288  0.3207  1.1157  0.8645
11478TIP3   OH255848   1.327   4.701  11.444  0.3634 -0.4695  0.6826
11478TIP3    H155849   1.405   4.709  11.389 -0.1300 -0.7505 -0.0860
11478TIP3    H255850   1.333   4.614  11.483  0.7338 -0.2562  1.1006
11479TIP3   OH255851   3.097   4.430   2.607  0.3995 -0.3512  0.0574
11479TIP3    H155852   3.117   4.412   2.699  0.0825 -0.3808  0.1216
11479TIP3    H255853   3.076   4.344   2.571 -1.4611 -0.0971  0.4469
11480TIP3   OH255854   6.765   6.712  12.851 -0.0676 -0.0136 -0.3905
11480TIP3    H155855   6.756   6.625  12.890  1.6608  0.9657  2.4933
11480TIP3    H255856   6.842   6.704  12.794 -1.1142 -0.8211 -1.7566
11481TIP3   OH255857   1.826   4.445  11.497  0.6597  0.1844  0.3825
11481TIP3    H155858   1.853   4.404  11.579 -0.0240  0.2228  0.6251
11481TIP3    H255859   1.844   4.378  11.430 -1.7018 -1.0789  0.9170
11482TIP3   OH255860   0.296   2.442  13.260  0.2289 -0.6285  0.3496
11482TIP3    H155861   0.271   2.494  13.183  1.1003 -1.6330 -0.6307
11482TIP3    H255862   0.359   2.497  13.306 -0.1606 -0.0937  0.2600
11483TIP3   OH255863   1.033   3.618  15.477  0.1661 -0.6092 -0.0310
11483TIP3    H155864   1.118   3.579  15.495  0.3701  0.0632  0.5104
11483TIP3    H255865   1.001   3.646  15.563  1.4332  3.2760 -0.6286
11484TIP3   OH255866   3.497   2.361   5.425 -0.4895  0.3269 -0.7390
11484TIP3    H155867   3.495   2.456   5.435 -0.0478  0.2035  0.8051
11484TIP3    H255868   3.578   2.334   5.467 -0.9361 -0.7884 -0.5474
11485TIP3   OH255869   5.423   2.704   2.682  0.6959  0.5157 -0.4823
11485TIP3    H155870   5.500   2.715   2.738  0.1014  0.1553  0.4372
11485TIP3    H255871   5.451   2.642   2.615  0.7771 -0.8112  0.7276
11486TIP3   OH255872   0.601   4.509  16.871 -0.0489 -0.2903 -0.0624
11486TIP3    H155873   0.549   4.488  16.794  0.5903  0.7718 -0.8189
11486TIP3    H255874   0.551   4.474  16.944 -1.2576 -0.3012 -0.8627
11487TIP3   OH255875   1.775   1.434   5.890  0.5813 -0.1616  0.3305
11487TIP3    H155876   1.683   1.407   5.885  0.3837  0.2793  1.4433
11487TIP3    H255877   1.772   1.524   5.922  1.2704  1.0437 -2.6780
11488TIP3   OH255878   5.031   0.155  13.692 -0.4777 -0.4094  0.3019
11488TIP3    H155879   5.121   0.176  13.718 -0.0929  0.2478 -1.3837
11488TIP3    H255880   4.978   0.225  13.730  0.0741  0.5678 -0.6547
11489TIP3   OH255881   1.666   1.736   5.698  0.5668 -0.0364 -0.5757
11489TIP3    H155882   1.574   1.732   5.672  0.2891  1.4150  0.0937
11489TIP3    H255883   1.667   1.707   5.789  0.4339  1.9723  0.0978
11490TIP3   OH255884   4.569   1.752  17.083  0.0240 -0.6306 -0.4706
11490TIP3    H155885   4.629   1.823  17.061  0.2375 -0.7267 -0.1976
11490TIP3    H255886   4.487   1.776  17.040  0.3259 -0.6258 -1.0567
11491TIP3   OH255887   0.624   2.388   4.674  0.5297  0.0764  0.2333
11491TIP3    H155888   0.690   2.396   4.606 -0.9236 -0.5545 -1.3318
11491TIP3    H255889   0.561   2.325   4.639  0.2458 -1.1144  2.6294
11492TIP3   OH255890   0.341   2.396  14.911  0.5410  0.2717 -0.0081
11492TIP3    H155891   0.316   2.455  14.840  1.7641  0.8326  0.0184
11492TIP3    H255892   0.286   2.318  14.897 -1.2811  1.4819  0.1072
11493TIP3   OH255893   0.786   4.624   1.950 -0.1487 -0.0862  0.1871
11493TIP3    H155894   0.827   4.628   2.036  1.2758 -1.0709 -0.4135
11493TIP3    H255895   0.787   4.531   1.927  2.5912  0.4311 -2.3005
11494TIP3   OH255896   1.865   1.367  15.495 -0.6266 -0.5153 -0.1199
11494TIP3    H155897   1.867   1.306  15.422  0.2234 -1.4958  0.6867
11494TIP3    H255898   1.839   1.314  15.570  1.9577 -0.3825  0.9816
11495TIP3   OH255899   5.495   2.663   0.805 -0.3935 -0.4633  0.2551
11495TIP3    H155900   5.498   2.736   0.867  0.0942  1.1740 -1.6062
11495TIP3    H255901   5.587   2.636   0.796 -0.5523 -1.2222  0.8050
11496TIP3   OH255902   6.372   4.100   2.926 -0.8560 -0.4763  0.5161
11496TIP3    H155903   6.449   4.156   2.915 -0.9282  0.3405  3.2984
11496TIP3    H255904   6.400   4.014   2.895  0.1382  0.4450 -1.3384
11497TIP3   OH255905   4.398   3.530   0.631 -0.5705  0.1166  0.9083
11497TIP3    H155906   4.367   3.465   0.694  0.8028 -0.2162  1.2849
11497TIP3    H255907   4.431   3.479   0.557 -3.2562  0.5210 -0.7081
11498TIP3   OH255908   6.247   0.548   2.491  0.0972  0.2338 -0.7085
11498TIP3    H155909   6.252   0.605   2.568 -2.3124  1.7795 -1.5967
11498TIP3    H255910   6.278   0.603   2.419  1.5757 -0.9482 -1.0363
11499TIP3   OH255911   5.381   6.736  16.008  0.7353  0.1924 -0.0665
11499TIP3    H155912   5.340   6.660  16.050  0.9646 -0.5879 -1.2161
11499TIP3    H255913   5.448   6.699  15.951  0.6240  1.2440 -0.9112
11500TIP3   OH255914   1.146   5.949  16.658 -0.8174  0.1120  0.8443
11500TIP3    H155915   1.191   5.985  16.582 -1.8635 -1.3010 -0.4857
11500TIP3    H255916   1.204   5.970  16.732  1.4702 -0.6578 -0.6338
11501TIP3   OH255917   6.384   1.846  12.239  0.3892 -0.3553  0.7101
11501TIP3    H155918   6.444   1.851  12.164  0.0417 -1.5760  0.3287
11501TIP3    H255919   6.302   1.813  12.203  0.1340 -0.7246  1.5950
11502TIP3   OH255920   3.353   6.341  11.001 -0.3087 -0.1438 -0.3966
11502TIP3    H155921   3.385   6.430  11.015  1.6344 -1.0384  1.4133
11502TIP3    H255922   3.422   6.298  10.950 -2.1431 -0.1284 -3.0372
11503TIP3   OH255923   5.577   3.113  12.591 -0.4026  0.1738 -0.1472
11503TIP3    H155924   5.552   3.205  12.597  0.5949  0.4651 -0.3725
11503TIP3    H255925   5.664   3.114  12.552  0.0824 -0.8098  0.8632
11504TIP3   OH255926   3.316   2.088   0.931 -0.2079 -0.0979  0.7636
11504TIP3    H155927   3.240   2.061   0.983 -0.7520  1.7547  1.0028
11504TIP3    H255928   3.307   2.041   0.849 -0.3157 -1.7056  1.6449
11505TIP3   OH255929   0.574   3.013   1.995  0.4016 -0.4561  0.2107
11505TIP3    H155930   0.481   3.029   2.012  0.5924 -0.3276  1.2042
11505TIP3    H255931   0.588   3.043   1.905 -0.5518 -0.6307 -0.0069
11506TIP3   OH255932   5.576   5.646   2.192 -0.8407 -0.0143  0.0231
11506TIP3    H155933   5.604   5.555   2.188 -1.4705 -0.1935 -0.5928
11506TIP3    H255934   5.595   5.681   2.104 -2.3693 -0.1122 -0.3827
11507TIP3   OH255935   3.743   1.666   3.189 -0.0196 -0.1386 -0.1160
11507TIP3    H155936   3.809   1.736   3.184  0.3309 -0.2036  2.3045
11507TIP3    H255937   3.794   1.585   3.185 -0.1781 -0.2195 -0.4879
11508TIP3   OH255938   1.123   4.705   3.871  0.3443  0.2663 -0.2934
11508TIP3    H155939   1.043   4.733   3.915  0.6558 -0.7609  0.9945
11508TIP3    H255940   1.140   4.773   3.806 -1.4109  0.6373 -0.4036
11509TIP3   OH255941   6.688   3.796  13.789  0.0112 -0.2169  0.3156
11509TIP3    H155942   6.763   3.845  13.756  0.7755 -1.2247  0.4954
11509TIP3    H255943   6.674   3.727  13.724 -0.5270 -0.2757  0.4821
11510TIP3   OH255944   1.363   1.643   0.299  0.2651 -0.0360 -0.2695
11510TIP3    H155945   1.319   1.566   0.263 -0.0971  0.0649 -0.0463
11510TIP3    H255946   1.449   1.611   0.326 -0.2737 -0.6268  0.8252
11511TIP3   OH255947   5.009   5.898   5.625  0.2851  0.0422  0.7170
11511TIP3    H155948   4.982   5.858   5.543  0.1018  0.9721  0.3113
11511TIP3    H255949   4.952   5.859   5.691  1.9272 -2.4478  0.8109
11512TIP3   OH255950   6.226   1.519  13.739  0.2200 -0.0146 -0.6207
11512TIP3    H155951   6.152   1.550  13.793 -0.3445 -1.4816 -0.5098
11512TIP3    H255952   6.232   1.583  13.668 -0.1035  1.0281  0.2529
11513TIP3   OH255953   3.886   0.015   4.132 -0.1783 -0.0757 -0.3133
11513TIP3    H155954   3.931   0.032   4.049 -0.6035  0.8522 -0.3740
11513TIP3    H255955   3.889   0.099   4.178 -1.7308 -0.0052 -0.2892
11514TIP3   OH255956   6.021   2.040   2.825 -0.6588 -0.3003  0.0131
11514TIP3    H155957   5.944   1.985   2.808 -0.8414  0.0852 -0.4264
11514TIP3    H255958   6.087   1.979   2.858  0.1158 -1.3536 -3.1260
11515TIP3   OH255959   2.456   4.042  11.332  0.1918  0.6441 -0.7237
11515TIP3    H155960   2.510   4.002  11.264 -1.4691 -0.7633 -1.2870
11515TIP3    H255961   2.418   4.119  11.290  2.1130  1.9817 -0.1464
11516TIP3   OH255962   3.992   2.009  12.571  0.0260 -0.2098 -0.7349
11516TIP3    H155963   3.999   1.927  12.522  1.8268 -1.1781  0.9976
11516TIP3    H255964   4.074   2.015  12.620 -0.8612  1.6770  0.6367
11517TIP3   OH255965   2.586   6.587  16.353  0.1775 -0.2149  0.0458
11517TIP3    H155966   2.626   6.538  16.281  0.9415  0.1034  0.2465
11517TIP3    H255967   2.643   6.663  16.365 -1.2379  0.9887 -0.5710
11518TIP3   OH255968   4.350   4.252   4.226  0.6783  0.5519  0.2275
11518TIP3    H155969   4.392   4.172   4.258  0.4503 -0.0597 -0.9414
11518TIP3    H255970   4.417   4.320   4.236  1.9645 -0.3821 -1.5080
11519TIP3   OH255971   1.167   1.614  13.839 -0.1774  0.5457 -0.0505
11519TIP3    H155972   1.252   1.656  13.845 -0.0194  0.1845  0.3012
11519TIP3    H255973   1.183   1.531  13.794  0.1990 -0.8726  2.5108
11520TIP3   OH255974   3.945   1.215  11.199 -0.2486 -0.3275  0.2622
11520TIP3    H155975   3.885   1.144  11.178 -1.9378  1.0213  0.2696
11520TIP3    H255976   4.011   1.175  11.256  0.0431 -2.2995 -1.3628
11521TIP3   OH255977   4.365   6.022  14.031 -0.1354 -0.1626  0.6758
11521TIP3    H155978   4.419   5.946  14.053 -0.0125  0.3464  2.2067
11521TIP3    H255979   4.382   6.085  14.100  2.2180  2.5961 -2.1237
11522TIP3   OH255980   1.165   3.366  16.502  0.1365 -0.4985 -0.3617
11522TIP3    H155981   1.134   3.406  16.421  0.5803  0.4006 -0.0995
11522TIP3    H255982   1.214   3.289  16.473 -1.0412 -1.0822 -0.8547
11523TIP3   OH255983   6.537   1.887   4.270 -0.0855 -0.5549 -0.0366
11523TIP3    H155984   6.482   1.823   4.315  0.2306 -2.0128 -1.5944
11523TIP3    H255985   6.622   1.882   4.312 -0.5653  0.2572  1.0782
11524TIP3   OH255986   2.208   3.317  13.774 -0.5681  0.1889  0.0313
11524TIP3    H155987   2.244   3.343  13.858 -2.2058 -0.2980  0.9232
11524TIP3    H255988   2.113   3.314  13.788 -0.7080 -4.7619 -0.3385
11525TIP3   OH255989   6.177   0.184  17.158 -0.1817  0.5662  0.0112
11525TIP3    H155990   6.163   0.193  17.252 -1.7479  0.3872 -0.1733
11525TIP3    H255991   6.129   0.257  17.119 -2.2193 -1.0881 -0.7815
11526TIP3   OH255992   5.020   5.136  13.883 -0.1040 -0.0814  0.5142
11526TIP3    H155993   5.000   5.138  13.790 -0.4757 -2.7180  0.4536
11526TIP3    H255994   4.945   5.177  13.925 -1.0792 -1.0211 -0.2513
11527TIP3   OH255995   4.634   6.464  16.692  0.4863 -0.3868 -0.4915
11527TIP3    H155996   4.704   6.400  16.689  0.2868 -0.5914 -0.8817
11527TIP3    H255997   4.619   6.488  16.601  0.5857  0.2443 -0.3462
11528TIP3   OH255998   3.441   3.989   0.586 -0.0915 -0.5537 -0.2273
11528TIP3    H155999   3.396   3.946   0.513 -0.4682 -1.4363  0.5048
11528TIP3    H256000   3.505   3.925   0.615  1.2167  0.4396 -0.8249
11529TIP3   OH256001   4.813   5.325  16.343  0.7484 -0.5931 -0.0888
11529TIP3    H156002   4.767   5.370  16.272  0.0338  0.3039  0.9054
11529TIP3    H256003   4.746   5.272  16.386  0.4793  0.9711  1.5702
11530TIP3   OH256004   4.058   1.845  15.135  0.1447 -0.7620  0.0548
11530TIP3    H156005   4.003   1.921  15.116 -0.2113 -1.0606 -0.1110
11530TIP3    H256006   4.075   1.851  15.229 -1.4995 -1.5381  0.4352
11531TIP3   OH256007   3.613   5.979   1.675 -0.1082  0.1158 -0.0052
11531TIP3    H156008   3.589   5.912   1.610 -0.3396  0.9803 -0.8374
11531TIP3    H256009   3.531   6.000   1.719  0.1095 -0.7199  0.8340
11532TIP3   OH256010   6.244   2.745  12.286  0.1962  0.0947  0.4849
11532TIP3    H156011   6.152   2.721  12.295 -0.0139  1.1722  1.6764
11532TIP3    H256012   6.281   2.730  12.373  0.3857  2.4797  0.8966
11533TIP3   OH256013   0.063   6.200  13.896 -0.5214  0.4141  0.4997
11533TIP3    H156014   0.094   6.282  13.857 -0.3050  0.1709  0.1577
11533TIP3    H256015   0.084   6.133  13.831 -0.8836  0.1130  0.6895
11534TIP3   OH256016   6.034   5.046   0.072  0.2814 -0.5264  0.6849
11534TIP3    H156017   5.993   5.126   0.039  0.4975 -0.4893  0.5033
11534TIP3    H256018   6.127   5.058   0.056  0.2537 -1.0986  0.0364
11535TIP3   OH256019   3.654   1.124   2.251  0.6136 -0.0557 -0.1557
11535TIP3    H156020   3.662   1.089   2.340 -0.8724  0.0128  0.0313
11535TIP3    H256021   3.663   1.047   2.194  0.0981 -0.3360  0.1308
11536TIP3   OH256022   1.986   3.995  14.574  0.4652  0.3857 -0.4893
11536TIP3    H156023   1.981   4.059  14.504 -0.5243  0.5983 -0.2520
11536TIP3    H256024   2.027   3.918  14.535  0.6437  0.7758 -1.0748
11537TIP3   OH256025   1.536   0.742  10.322  0.3615 -0.2454  0.0248
11537TIP3    H156026   1.475   0.679  10.284 -1.5034  1.9299 -0.7887
11537TIP3    H256027   1.589   0.772  10.248 -0.5463  1.0291 -0.1385
11538TIP3   OH256028   0.696   0.600   2.189  0.3337  0.2205 -0.2618
11538TIP3    H156029   0.674   0.562   2.104  1.1208  2.0145 -1.3486
11538TIP3    H256030   0.763   0.542   2.225 -1.0691 -1.3945 -0.1203
11539TIP3   OH256031   3.002   2.264  13.316 -0.2596 -0.3261 -0.3379
11539TIP3    H156032   2.967   2.187  13.270 -0.1036 -0.6565  0.0824
11539TIP3    H256033   3.080   2.231  13.361 -0.2251  0.0660 -0.1051
11540TIP3   OH256034   0.812   3.406   1.991  0.2706  0.3608  0.7704
11540TIP3    H156035   0.749   3.414   1.920 -0.7596  1.7430  1.7810
11540TIP3    H256036   0.863   3.487   1.988 -0.1945  0.7207  1.9483
11541TIP3   OH256037   0.857   6.489  11.570  0.3170  0.5364  0.0671
11541TIP3    H156038   0.770   6.476  11.610  1.0639 -1.5391  1.1576
11541TIP3    H256039   0.877   6.581  11.587 -2.2245  1.4858 -1.4740
11542TIP3   OH256040   2.366   1.483  13.469 -0.2586  0.2947  0.4442
11542TIP3    H156041   2.415   1.427  13.528  3.3005  1.7735 -0.8217
11542TIP3    H256042   2.353   1.564  13.517  1.1591  0.9041 -0.1458
11543TIP3   OH256043   3.715   4.054  16.280 -0.0600 -0.1588  0.4321
11543TIP3    H156044   3.785   4.014  16.228 -0.1847 -0.8416  0.7890
11543TIP3    H256045   3.751   4.138  16.307  0.4194 -0.2706  0.1578
11544TIP3   OH256046   3.566   3.723   1.805  0.6039  0.1250 -0.0889
11544TIP3    H156047   3.570   3.698   1.897 -3.0806  1.2147  0.4949
11544TIP3    H256048   3.535   3.644   1.760  2.3751 -0.3981 -0.4746
11545TIP3   OH256049   3.240   3.244  15.737  0.1573  0.4991 -0.2803
11545TIP3    H156050   3.310   3.192  15.777 -0.1186 -0.8753 -1.4865
11545TIP3    H256051   3.252   3.332  15.772  0.8595 -0.2830  1.5864
11546TIP3   OH256052   4.141   3.790  11.951  0.0299 -0.0849 -0.2495
11546TIP3    H156053   4.140   3.872  11.902  1.6547 -0.1966 -0.5186
11546TIP3    H256054   4.127   3.815  12.042 -1.3425  0.2839 -0.5316
11547TIP3   OH256055   3.484   4.916   2.380 -0.0071  0.4873  0.2374
11547TIP3    H156056   3.503   5.002   2.416 -1.9678  1.0448  0.0617
11547TIP3    H256057   3.394   4.922   2.350 -0.0627 -1.5162 -0.1484
11548TIP3   OH256058   3.152   4.191  12.198  0.3894  0.1114 -0.3867
11548TIP3    H156059   3.145   4.285  12.179  0.0770  0.0387 -0.6482
11548TIP3    H256060   3.217   4.159  12.135 -1.4681 -0.3411 -2.2037
11549TIP3   OH256061   1.807   0.198  11.061  0.4613  0.4361 -0.0386
11549TIP3    H156062   1.865   0.219  11.135 -0.0673  0.3957  0.3942
11549TIP3    H256063   1.788   0.104  11.072  1.3023  0.1437 -0.8915
11550TIP3   OH256064   5.822   0.524   3.290  0.8209  0.4634  0.3511
11550TIP3    H156065   5.845   0.611   3.321 -1.2226  1.8569 -1.6313
11550TIP3    H256066   5.765   0.540   3.214  0.4299 -2.6063 -0.1576
11551TIP3   OH256067   3.390   1.362   4.290 -0.2595  0.2341 -0.0538
11551TIP3    H156068   3.344   1.299   4.346  0.0817 -1.1138 -1.2216
11551TIP3    H256069   3.479   1.364   4.325  0.3973 -1.8286 -1.4254
11552TIP3   OH256070   1.601   4.515   1.071 -0.0412 -0.7410  0.0154
11552TIP3    H156071   1.653   4.591   1.097  0.3739  0.1063 -2.9945
11552TIP3    H256072   1.511   4.545   1.072  0.1524 -0.0508 -1.5338
11553TIP3   OH256073   0.421   0.132   4.121 -0.4247 -0.2174  0.3692
11553TIP3    H156074   0.406   0.185   4.199 -1.8077 -1.9260  1.3662
11553TIP3    H256075   0.368   0.173   4.053 -1.6120 -0.3753  1.1670
11554TIP3   OH256076   2.212   2.166  13.097  0.1682  0.7750 -0.7601
11554TIP3    H156077   2.250   2.098  13.041 -0.3161 -1.0050  0.9507
11554TIP3    H256078   2.199   2.241  13.039 -0.2966 -0.9468 -3.0203
11555TIP3   OH256079   1.445   6.119  11.653  0.2919  0.0772 -0.1082
11555TIP3    H156080   1.354   6.115  11.623  0.7624  2.3009 -2.1887
11555TIP3    H256081   1.484   6.037  11.623 -0.7874 -0.4775 -0.0568
11556TIP3   OH256082   1.607   0.079   3.130 -0.3197  0.8882  0.3002
11556TIP3    H156083   1.547   0.014   3.168  1.7164 -0.8598  0.6909
11556TIP3    H256084   1.580   0.162   3.171 -3.1695  0.4407 -0.4182
11557TIP3   OH256085   4.111   3.950  15.993  0.1701  0.5766  0.2677
11557TIP3    H156086   4.166   3.910  16.060 -0.9562  0.2435  1.0363
11557TIP3    H256087   4.154   4.032  15.971 -0.5413  1.8101  3.0753
11558TIP3   OH256088   4.393   1.472   6.080  0.2077  0.7313 -0.3352
11558TIP3    H156089   4.396   1.503   6.170  2.4742  1.9879 -0.7531
11558TIP3    H256090   4.341   1.538   6.034  0.4242  0.9625 -0.2471
11559TIP3   OH256091   4.392   1.822   1.717  0.0145  0.2579  0.2077
11559TIP3    H156092   4.432   1.739   1.743  0.4992  0.5396  0.3705
11559TIP3    H256093   4.407   1.881   1.791 -0.4393  0.4573  0.1441
11560TIP3   OH256094   2.131   2.499  17.063  0.1130 -0.0821 -0.1302
11560TIP3    H156095   2.041   2.480  17.035  0.2560 -1.1749  0.1200
11560TIP3    H256096   2.174   2.414  17.066  0.7981  0.2856  1.0017
11561TIP3   OH256097   3.229   5.224   3.172 -0.0167 -0.3315 -0.1101
11561TIP3    H156098   3.165   5.228   3.101  1.1752  0.1117 -1.1827
11561TIP3    H256099   3.242   5.316   3.198 -1.0074 -0.5371  1.2285
11562TIP3   OH256100   5.580   5.451  15.812 -0.4016  0.5834 -0.0855
11562TIP3    H156101   5.650   5.515  15.824 -1.1805  1.6078 -0.8520
11562TIP3    H256102   5.514   5.496  15.759 -1.3052 -0.6109 -0.0322
11563TIP3   OH256103   4.842   0.879   0.696  0.2806  0.4020  0.0655
11563TIP3    H156104   4.906   0.812   0.718 -0.2046 -0.3857 -0.8795
11563TIP3    H256105   4.766   0.831   0.666 -0.5226  1.3503  0.5167
11564TIP3   OH256106   5.548   1.340   3.558 -0.8345 -0.1707  0.6553
11564TIP3    H156107   5.531   1.430   3.528  0.5969 -0.1711 -0.2066
11564TIP3    H256108   5.476   1.289   3.520 -0.5841  0.2906 -0.4916
11565TIP3   OH256109   1.917   0.959  11.607  0.4189  0.3814  0.4908
11565TIP3    H156110   1.971   0.966  11.528  0.4102 -2.5544  0.1410
11565TIP3    H256111   1.976   0.986  11.678  1.9104 -1.2373 -0.0603
11566TIP3   OH256112   0.938   6.308   2.751 -0.1340  1.1728 -0.1201
11566TIP3    H156113   0.864   6.368   2.761  0.3602  2.2418 -2.3703
11566TIP3    H256114   0.981   6.335   2.670  0.0395 -2.2778 -1.3763
11567TIP3   OH256115   5.769   1.078   4.385 -0.1959 -0.4256  0.3861
11567TIP3    H156116   5.741   1.025   4.460 -0.5535 -0.3925  0.2746
11567TIP3    H256117   5.836   1.024   4.342  0.6193 -0.0868  1.2017
11568TIP3   OH256118   5.119   2.456   2.234  0.1221 -0.6316  0.6838
11568TIP3    H156119   5.141   2.412   2.316  0.0590 -2.3891 -0.1929
11568TIP3    H256120   5.199   2.502   2.209  0.1505 -0.0968  1.6875
11569TIP3   OH256121   0.624   0.932   1.982 -0.7126 -0.3481  0.7885
11569TIP3    H156122   0.712   0.914   2.017 -0.5348 -0.1477  0.4495
11569TIP3    H256123   0.640   0.962   1.893 -1.1558 -0.6855  0.5967
11570TIP3   OH256124   0.064   4.164   1.193 -0.0923 -0.1157  0.1137
11570TIP3    H156125   0.047   4.081   1.239 -0.6463  0.5859  1.2300
11570TIP3    H256126   0.148   4.194   1.229 -0.3624  0.2681  0.4389
11571TIP3   OH256127   2.157   5.912   3.101 -0.0356  0.1802  0.5400
11571TIP3    H156128   2.072   5.873   3.120 -0.2500  0.9578  1.2355
11571TIP3    H256129   2.219   5.839   3.105 -0.8671 -0.7508 -1.7870
11572TIP3   OH256130   4.602   5.599   4.503  0.4944  0.3312 -0.3258
11572TIP3    H156131   4.523   5.549   4.525  0.4477  0.9327  0.9829
11572TIP3    H256132   4.620   5.651   4.581  2.0823  0.3616 -0.6758
11573TIP3   OH256133   5.142   4.029  12.603  0.4535  0.4204 -0.2535
11573TIP3    H156134   5.214   4.061  12.548 -0.4897  0.0493 -1.7798
11573TIP3    H256135   5.063   4.053  12.554 -0.3658 -2.4153 -0.5042
11574TIP3   OH256136   3.732   3.476  14.977 -1.0417  0.0049  0.3205
11574TIP3    H156137   3.736   3.532  15.054 -1.0780  0.5706 -0.0871
11574TIP3    H256138   3.650   3.428  14.986  0.0315 -1.6476  1.8074
11575TIP3   OH256139   3.571   1.233  11.116 -0.0108  0.0248 -0.0190
11575TIP3    H156140   3.550   1.316  11.073  0.7933  0.0924 -0.2970
11575TIP3    H256141   3.559   1.250  11.209 -0.4465  0.2753 -0.1234
11576TIP3   OH256142   4.582   1.661   2.921 -0.0331  0.1535  0.4409
11576TIP3    H156143   4.649   1.607   2.879  1.0254 -0.7661  3.0858
11576TIP3    H256144   4.603   1.750   2.895 -0.7983 -0.4186 -2.6606
11577TIP3   OH256145   0.857   2.404   6.441 -0.6443 -0.1715  0.2673
11577TIP3    H156146   0.784   2.345   6.424  0.9312 -2.0341 -0.2869
11577TIP3    H256147   0.923   2.382   6.376  0.0518  2.2074  0.0514
11578TIP3   OH256148   3.122   4.869  10.381 -0.2231  0.1225  0.3900
11578TIP3    H156149   3.201   4.818  10.367 -1.2012 -1.1094 -0.9014
11578TIP3    H256150   3.090   4.840  10.467 -1.0046 -1.8632 -0.5036
11579TIP3   OH256151   5.540   2.097   1.083  0.2509 -0.0872  0.3340
11579TIP3    H156152   5.544   2.040   1.006 -0.5652 -0.0980  0.2863
11579TIP3    H256153   5.630   2.105   1.112  0.2105 -3.5622  1.9197
11580TIP3   OH256154   5.092   5.275  11.659  0.1353  0.0689  0.0888
11580TIP3    H156155   5.175   5.297  11.702  0.3824 -0.6746  0.0080
11580TIP3    H256156   5.030   5.262  11.732  0.7133 -1.8451  0.3133
11581TIP3   OH256157   0.953   5.502  16.563 -0.1197  0.0332  0.0185
11581TIP3    H156158   0.868   5.496  16.519 -0.6738 -0.4115  1.0933
11581TIP3    H256159   1.003   5.565  16.511 -0.9959  0.0754 -0.8084
11582TIP3   OH256160   5.686   4.425  15.143 -0.4260 -0.2361  0.2099
11582TIP3    H156161   5.594   4.433  15.120 -0.7071 -0.1222  1.3251
11582TIP3    H256162   5.732   4.477  15.077 -1.2528  0.6706  0.3297
11583TIP3   OH256163   2.981   2.337  15.466  0.7568 -0.5314  0.5413
11583TIP3    H156164   2.958   2.419  15.424 -0.1148 -1.5174 -0.9890
11583TIP3    H256165   2.910   2.322  15.529 -0.4269 -1.2679 -0.8973
11584TIP3   OH256166   0.343   6.015   2.625 -0.0979 -0.3813  0.3390
11584TIP3    H156167   0.398   5.968   2.687  0.4968 -0.9110 -0.5645
11584TIP3    H256168   0.323   5.951   2.556  0.0668  0.4523 -0.5093
11585TIP3   OH256169   0.021   2.134   0.550 -0.0040  0.0261  0.2319
11585TIP3    H156170   0.067   2.199   0.603 -1.8005  1.8451 -0.2977
11585TIP3    H256171  -0.028   2.082   0.614  0.7046 -0.1847  0.6056
11586TIP3   OH256172   5.145   5.975  16.607  0.4796  0.0231 -0.3347
11586TIP3    H156173   5.069   5.918  16.618  1.9433 -1.9547  0.1650
11586TIP3    H256174   5.191   5.939  16.531  1.7519  0.1195  0.3550
11587TIP3   OH256175   6.318   4.799  13.807 -0.1043  0.2158  0.1645
11587TIP3    H156176   6.350   4.716  13.840  1.9178  1.0039  0.3130
11587TIP3    H256177   6.329   4.793  13.712 -1.7836 -0.3751 -0.0302
11588TIP3   OH256178   2.164   6.739  13.745 -0.7613 -0.2881 -0.6404
11588TIP3    H156179   2.190   6.657  13.703  0.6997 -0.0631 -0.2079
11588TIP3    H256180   2.209   6.807  13.695  0.0445  0.0672  0.5535
11589TIP3   OH256181   3.529   2.692   0.860  0.2087  0.2603 -0.5003
11589TIP3    H156182   3.510   2.779   0.825 -0.7019 -0.0711 -0.8681
11589TIP3    H256183   3.503   2.632   0.790  0.9579 -0.3059 -0.3075
11590TIP3   OH256184   2.899   5.857   2.493  0.6532  0.4296  0.1180
11590TIP3    H156185   2.984   5.901   2.497  0.3912  1.0384 -0.6836
11590TIP3    H256186   2.837   5.926   2.469  0.5349 -0.7131 -3.4316
11591TIP3   OH256187   5.455   5.321   3.887  0.3299  0.0630  0.3813
11591TIP3    H156188   5.422   5.345   3.974 -0.9715 -2.3121  0.6346
11591TIP3    H256189   5.418   5.388   3.829  0.8366  1.4265  1.5592
11592TIP3   OH256190   3.969   4.199   4.640 -0.1891  0.3063  0.1542
11592TIP3    H156191   3.958   4.211   4.546  0.6826 -0.6392 -0.0822
11592TIP3    H256192   4.040   4.135   4.649 -0.0034  0.6495  1.4597
11593TIP3   OH256193   3.351   0.624   5.709  0.3998 -0.1772 -0.1619
11593TIP3    H156194   3.269   0.578   5.690  0.9334 -1.5401  0.7113
11593TIP3    H256195   3.389   0.576   5.782  0.7044  2.0299  1.2279
11594TIP3   OH256196   0.969   2.765   1.373 -0.1675 -0.0890 -0.5322
11594TIP3    H156197   1.057   2.795   1.393 -0.4681  1.9658 -1.9044
11594TIP3    H256198   0.913   2.819   1.429 -0.5872 -1.8919  0.8837
11595TIP3   OH256199   4.898   4.368  16.452 -0.6493  0.0560  0.1885
11595TIP3    H156200   4.888   4.463  16.458  0.6039  0.2788 -0.9140
11595TIP3    H256201   4.877   4.336  16.540  0.2073  1.4792  0.9431
11596TIP3   OH256202   1.245   6.437   1.962 -0.7243  0.3974  0.0234
11596TIP3    H156203   1.150   6.448   1.964 -0.5228  2.5706 -0.2627
11596TIP3    H256204   1.270   6.455   1.871 -0.0548 -0.3566  0.0475
11597TIP3   OH256205   6.563   5.259   0.807 -0.1722 -0.2940  0.1918
11597TIP3    H156206   6.530   5.235   0.720 -1.3403 -2.4980  1.1730
11597TIP3    H256207   6.484   5.277   0.858  0.4262 -0.4396  1.1893
11598TIP3   OH256208   0.283   5.825  16.421  0.0343  0.0216 -0.4117
11598TIP3    H156209   0.195   5.857  16.401 -0.4229 -1.6182 -1.1789
11598TIP3    H256210   0.273   5.730  16.428  1.7592 -0.1974 -0.5565
11599TIP3   OH256211   2.778   2.562  15.206  0.6738  0.2397 -0.2051
11599TIP3    H156212   2.704   2.509  15.233  1.4842  0.3364  2.5268
11599TIP3    H256213   2.849   2.499  15.194  0.6286  0.3309 -0.9961
11600TIP3   OH256214   4.213   0.229   6.454 -0.0818  0.4937 -0.1114
11600TIP3    H156215   4.262   0.173   6.514  1.4089  0.8430 -0.9580
11600TIP3    H256216   4.236   0.318   6.479 -1.1109  0.7121  0.1304
11601TIP3   OH256217   2.555   4.480  13.457  0.3582  0.3461 -0.5062
11601TIP3    H156218   2.618   4.408  13.456 -2.2552 -2.3657  2.6613
11601TIP3    H256219   2.496   4.460  13.384 -0.9480 -1.5159  0.9619
11602TIP3   OH256220   0.788   5.367  16.334 -0.6387  0.4055 -0.4882
11602TIP3    H156221   0.739   5.294  16.373 -0.2654  1.1415  1.4469
11602TIP3    H256222   0.721   5.432  16.314 -0.6120  0.9719  1.1513
11603TIP3   OH256223   3.856   3.654   5.153 -0.2868  0.4521  0.0415
11603TIP3    H156224   3.776   3.706   5.159 -1.3309 -1.0288 -0.6427
11603TIP3    H256225   3.837   3.575   5.204  0.3422 -0.3982 -1.0188
11604TIP3   OH256226   1.682   2.522   0.615  0.8562 -0.2528 -0.2651
11604TIP3    H156227   1.705   2.481   0.698  2.0117 -0.3807 -0.6304
11604TIP3    H256228   1.586   2.527   0.616  0.8640 -0.1649  1.1060
11605TIP3   OH256229   2.431   5.309   6.001  0.5167 -0.7649 -0.6041
11605TIP3    H156230   2.365   5.240   6.007 -0.5775  0.3033  0.0511
11605TIP3    H256231   2.409   5.370   6.071  2.8651 -0.9004  0.3510
11606TIP3   OH256232   5.478   2.866  14.441 -0.4231 -0.4596 -0.6146
11606TIP3    H156233   5.393   2.860  14.398 -0.9798  0.7889  0.2607
11606TIP3    H256234   5.527   2.929  14.389 -1.0684  0.9897  0.4584
11607TIP3   OH256235   3.297   2.617   0.161 -0.0222 -0.0721 -0.6068
11607TIP3    H156236   3.255   2.688   0.113  0.2682  0.9831  0.6373
11607TIP3    H256237   3.225   2.570   0.203 -0.1780 -0.2539 -1.0628
11608TIP3   OH256238   6.426   6.429  12.180  0.3345  0.4302  0.1056
11608TIP3    H156239   6.463   6.373  12.248 -1.6257  0.5906  1.4009
11608TIP3    H256240   6.498   6.486  12.153  1.5733 -0.7062  0.8911
11609TIP3   OH256241   3.482   0.461  14.697 -0.3532  0.4290 -0.7044
11609TIP3    H156242   3.562   0.423  14.734 -1.1757  0.4774  1.2817
11609TIP3    H256243   3.444   0.390  14.645  1.3221  0.6495 -2.3133
11610TIP3   OH256244   4.595   4.744  16.109  0.3681 -0.1501 -0.4164
11610TIP3    H156245   4.608   4.816  16.047 -0.8597  1.1777  0.7810
11610TIP3    H256246   4.505   4.754  16.139  0.8598 -0.8470  1.4484
11611TIP3   OH256247   4.190   1.412   5.811 -0.4949  0.1171  0.2173
11611TIP3    H156248   4.155   1.449   5.892 -0.8799  0.3197 -0.0421
11611TIP3    H256249   4.253   1.477   5.780  1.2152 -0.8710  1.4322
11612TIP3   OH256250   1.220   0.455  16.131  0.0686 -0.2854 -0.1978
11612TIP3    H156251   1.268   0.376  16.154 -1.7488 -1.4427 -0.2220
11612TIP3    H256252   1.230   0.462  16.036 -0.7359 -1.1631 -0.3582
11613TIP3   OH256253   1.183   5.219  14.937 -0.3182 -0.1475  0.0076
11613TIP3    H156254   1.195   5.244  15.028 -1.0085 -1.3176  0.4442
11613TIP3    H256255   1.269   5.230  14.897  0.6269 -1.9219  1.4031
11614TIP3   OH256256   3.463   0.116  16.710 -0.0165  0.6554  0.0338
11614TIP3    H156257   3.550   0.088  16.680 -1.0527 -1.2826 -1.3518
11614TIP3    H256258   3.417   0.141  16.630 -0.1570  3.6858  0.9427
11615TIP3   OH256259   4.704   2.426  15.738  0.5129 -1.0511  0.2901
11615TIP3    H156260   4.790   2.468  15.728  0.8736 -0.6594  3.6883
11615TIP3    H256261   4.641   2.498  15.729  0.6960 -0.9459 -0.1553
11616TIP3   OH256262   0.148   2.634  11.907 -0.1758  0.0031  0.5709
11616TIP3    H156263   0.055   2.640  11.924 -0.4170 -0.2330 -0.5644
11616TIP3    H256264   0.185   2.712  11.948 -0.8609  0.0871  1.0466
11617TIP3   OH256265   4.714   5.817  10.682 -0.3063 -0.3898  0.3561
11617TIP3    H156266   4.738   5.764  10.606 -0.5018  1.6124 -1.1960
11617TIP3    H256267   4.673   5.895  10.645 -1.8748 -0.0474  2.6147
11618TIP3   OH256268   3.463   3.995  16.166 -0.2985  0.7317  0.1936
11618TIP3    H156269   3.430   4.067  16.113 -1.2915  1.6015  1.9340
11618TIP3    H256270   3.548   4.026  16.199 -1.5211  1.9490  2.4234
11619TIP3   OH256271   1.017   5.936   1.684 -0.3556 -0.3360  0.2844
11619TIP3    H156272   0.955   5.955   1.614 -1.3064  1.0792  1.4489
11619TIP3    H256273   1.008   5.842   1.699 -2.0238 -0.2140  0.2226
11620TIP3   OH256274   5.156   1.935  14.052  0.5808  0.0715 -0.4755
11620TIP3    H156275   5.126   1.958  14.139  0.3642  1.0930 -0.8048
11620TIP3    H256276   5.094   1.869  14.021 -0.3855  0.9618 -0.5119
11621TIP3   OH256277   0.215   0.965   0.882 -0.5423 -0.2558  0.4786
11621TIP3    H156278   0.136   0.912   0.896 -1.3575  0.7609 -0.1158
11621TIP3    H256279   0.231   1.005   0.967 -0.1429 -1.1502  0.8324
11622TIP3   OH256280   0.148   4.460  16.229 -0.3895  0.0463 -0.1007
11622TIP3    H156281   0.206   4.534  16.214 -1.0534  0.5543 -0.2063
11622TIP3    H256282   0.111   4.475  16.316  0.1245 -0.6120  0.2384
11623TIP3   OH256283   1.088   3.719  14.200  0.9923 -0.5122  0.6537
11623TIP3    H156284   1.161   3.697  14.142  0.0743 -0.7634 -0.4531
11623TIP3    H256285   1.086   3.815  14.201 -0.5527 -0.4153 -1.9072
11624TIP3   OH256286   4.487   4.205  14.363  0.3456  0.0798 -0.5857
11624TIP3    H156287   4.483   4.298  14.340  0.8221  0.4249  0.6290
11624TIP3    H256288   4.578   4.192  14.390 -0.0976 -0.3514  0.7500
11625TIP3   OH256289   5.662   5.721   4.893  0.0405  0.5661 -0.3073
11625TIP3    H156290   5.749   5.716   4.854  0.0308  0.7662 -0.3544
11625TIP3    H256291   5.603   5.686   4.825 -0.0139  1.2030 -0.5942
11626TIP3   OH256292   2.562   3.723   1.705 -0.2217 -0.4835  0.0371
11626TIP3    H156293   2.555   3.645   1.760  1.2947  0.2466  1.3704
11626TIP3    H256294   2.617   3.696   1.632 -0.6103 -0.9553 -0.0798
11627TIP3   OH256295   1.078   5.500  11.467 -0.0646  0.5818  0.5645
11627TIP3    H156296   1.062   5.578  11.521 -0.0158  1.6184 -0.8708
11627TIP3    H256297   1.152   5.524  11.411 -0.1844 -0.4207 -0.0514
11628TIP3   OH256298   6.533   6.045   5.546  0.3745 -0.5558  0.0882
11628TIP3    H156299   6.471   6.116   5.562 -2.0371 -2.5420  0.1387
11628TIP3    H256300   6.487   5.985   5.487  2.6713 -1.6702 -0.7246
11629TIP3   OH256301   1.941   2.201   2.478 -0.3225 -0.4070  0.1689
11629TIP3    H156302   1.958   2.291   2.449 -0.5858 -0.5401 -0.4097
11629TIP3    H256303   1.952   2.148   2.399  1.2549 -1.0735  0.7757
11630TIP3   OH256304   3.230   4.315   1.236 -0.7632 -0.0856  0.1146
11630TIP3    H156305   3.300   4.322   1.172  0.3311 -0.8985  1.1724
11630TIP3    H256306   3.151   4.339   1.188  0.1356  0.1700 -1.2941
11631TIP3   OH256307   1.359   4.016  15.577 -0.7779 -0.8420  0.6108
11631TIP3    H156308   1.337   3.929  15.610 -3.9681 -0.2191  0.4664
11631TIP3    H256309   1.352   4.073  15.654 -2.3982 -0.2301  0.0417
11632TIP3   OH256310   3.837   0.652  17.172 -0.1928 -0.2590 -0.3988
11632TIP3    H156311   3.843   0.677  17.079 -0.3284  1.0283 -0.0859
11632TIP3    H256312   3.920   0.681  17.210  0.6278 -2.3860 -0.4369
11633TIP3   OH256313   2.649   4.715   1.032  0.2154 -0.2639  0.1151
11633TIP3    H156314   2.569   4.767   1.034  1.2150  1.3916 -1.1796
11633TIP3    H256315   2.689   4.734   0.948  1.4951 -1.8434  0.3117
11634TIP3   OH256316   1.376   3.844   6.270  0.0058 -0.3328  0.1681
11634TIP3    H156317   1.384   3.863   6.177 -0.2133  0.8868  0.3697
11634TIP3    H256318   1.286   3.814   6.281 -0.0764 -0.1381  0.0335
11635TIP3   OH256319   4.889   0.109   4.852 -0.1361  0.7533  0.2115
11635TIP3    H156320   4.832   0.166   4.800 -0.8835 -1.2433 -1.2862
11635TIP3    H256321   4.943   0.064   4.787 -1.6697 -2.4702  0.9484
11636TIP3   OH256322   0.523   3.035  14.536  0.1472 -0.9861 -0.1508
11636TIP3    H156323   0.578   3.104  14.498 -0.7135 -0.0203  0.3075
11636TIP3    H256324   0.584   2.982  14.587  0.5931  0.4533  0.8992
11637TIP3   OH256325   4.960   4.645   5.975  0.3390 -0.5597  0.0258
11637TIP3    H156326   5.008   4.672   6.053 -1.8335  1.9263  0.6392
11637TIP3    H256327   5.015   4.578   5.935  1.3386 -2.3336  3.8992
11638TIP3   OH256328   4.799   5.806  12.809  0.2828 -0.0661 -0.5713
11638TIP3    H156329   4.855   5.742  12.764 -0.8208 -0.5143 -1.3338
11638TIP3    H256330   4.850   5.831  12.886 -0.0404 -3.4812  0.9514
11639TIP3   OH256331   2.744   2.326   3.284  0.3773 -0.0469 -0.5190
11639TIP3    H156332   2.701   2.264   3.342 -0.1850 -1.2616 -2.1543
11639TIP3    H256333   2.711   2.304   3.197  1.9478  1.0309 -1.4349
11640TIP3   OH256334   0.259   3.663   3.805  0.5338 -0.1502  0.0822
11640TIP3    H156335   0.199   3.644   3.877  0.0009  1.8567  0.2387
11640TIP3    H256336   0.215   3.733   3.756  2.0789  0.3222 -0.6699
11641TIP3   OH256337   2.963   1.671  14.995  0.1249  0.0416 -0.5101
11641TIP3    H156338   3.003   1.601  15.046  0.5441  0.0529 -0.8110
11641TIP3    H256339   2.891   1.703  15.049 -0.7176 -1.2969 -0.8099
11642TIP3   OH256340   6.439   5.373  11.110  0.5778 -0.0049 -0.2054
11642TIP3    H156341   6.361   5.428  11.098  0.4123 -0.7667 -3.6644
11642TIP3    H256342   6.508   5.419  11.062  1.5969 -0.6493  0.6115
11643TIP3   OH256343   0.912   6.694   1.356 -0.5029  0.5321 -0.0743
11643TIP3    H156344   0.863   6.615   1.332  0.3014 -0.0820  0.2407
11643TIP3    H256345   0.998   6.661   1.383  0.3616  1.6454 -1.3464
11644TIP3   OH256346   0.184   1.048   5.371  0.0856  0.9187 -0.5501
11644TIP3    H156347   0.228   0.964   5.357  0.6119  1.5015 -2.8001
11644TIP3    H256348   0.237   1.091   5.438 -1.2523 -1.1983  2.0285
11645TIP3   OH256349   0.854   2.910   0.345 -0.3552  0.2508 -0.6657
11645TIP3    H156350   0.936   2.878   0.382 -0.3784 -0.8024 -1.4747
11645TIP3    H256351   0.798   2.833   0.341 -1.5418  1.0389  0.2398
11646TIP3   OH256352   3.913   5.136  16.217 -0.5555  0.4624  0.5333
11646TIP3    H156353   3.968   5.211  16.196 -0.5767  0.6578  1.1567
11646TIP3    H256354   3.835   5.147  16.162  0.6106 -0.5834 -1.4443
11647TIP3   OH256355   6.124   2.369   4.157  0.0270  0.2022  0.3880
11647TIP3    H156356   6.176   2.440   4.195  0.4599  0.2848 -0.3390
11647TIP3    H256357   6.171   2.344   4.077  0.4085 -1.5399  1.1027
11648TIP3   OH256358   1.705   0.905   1.577 -0.9121 -0.3383  0.2065
11648TIP3    H156359   1.782   0.879   1.628 -0.0083  0.0548 -0.9291
11648TIP3    H256360   1.665   0.975   1.628  0.1971  0.3135  0.2053
11649TIP3   OH256361   4.355   5.379   1.093 -0.0557  0.1939 -0.1123
11649TIP3    H156362   4.319   5.426   1.168  0.8091 -2.1535  1.9084
11649TIP3    H256363   4.440   5.420   1.078  1.0754 -1.1313  2.1767
11650TIP3   OH256364   0.614   3.133  16.371  0.1760 -0.3857 -0.0381
11650TIP3    H156365   0.574   3.204  16.420  0.9398  0.2298 -0.2754
11650TIP3    H256366   0.699   3.120  16.412  0.3370 -0.6697 -0.4487
11651TIP3   OH256367   0.269   2.787  14.925  0.3902 -0.2852  0.2783
11651TIP3    H156368   0.221   2.761  15.003 -0.5347  0.9115  0.1277
11651TIP3    H256369   0.310   2.870  14.948 -0.6338  0.5535 -0.7611
11652TIP3   OH256370   0.980   3.028  11.638  0.5672  0.3722 -0.1067
11652TIP3    H156371   0.923   3.049  11.565 -0.4517 -0.2220  0.4961
11652TIP3    H256372   1.027   2.949  11.611  0.6723  0.5247 -0.3686
11653TIP3   OH256373   1.398   6.515  16.825 -0.0981  0.3446  0.6344
11653TIP3    H156374   1.401   6.605  16.856  0.6603 -0.0348  1.7070
11653TIP3    H256375   1.478   6.475  16.858  0.9786 -0.0026 -2.1998
11654TIP3   OH256376   1.019   0.267  14.791 -0.1425 -0.2276 -0.5613
11654TIP3    H156377   0.931   0.285  14.823 -0.4256 -0.3825 -1.2442
11654TIP3    H256378   1.058   0.353  14.777  0.9471 -0.0365  2.6653
11655TIP3   OH256379   6.350   3.796  13.415 -0.8245  0.6845 -0.1310
11655TIP3    H156380   6.316   3.707  13.415  0.9343 -0.0343  0.0709
11655TIP3    H256381   6.342   3.824  13.506 -0.5509  0.3680 -0.0036
11656TIP3   OH256382   6.478   2.963   3.987 -0.1563  0.3876  0.2511
11656TIP3    H156383   6.468   2.958   4.083  1.9995  0.8040  0.5462
11656TIP3    H256384   6.516   2.879   3.963 -0.4793  0.3750 -0.2115
11657TIP3   OH256385   3.006   0.677   3.016  0.1673  0.3827  0.0053
11657TIP3    H156386   2.910   0.680   3.015  0.1589  0.5664 -1.4315
11657TIP3    H256387   3.030   0.696   3.106 -1.1946 -1.5360  0.8447
11658TIP3   OH256388   6.771   2.778   0.171  0.3815  0.1651  0.2188
11658TIP3    H156389   6.792   2.706   0.231 -3.1180 -1.0096  0.2633
11658TIP3    H256390   6.732   2.845   0.227 -2.5250 -0.7613 -0.5522
11659TIP3   OH256391   6.467   1.885   0.949  0.0784 -0.4012  0.0177
11659TIP3    H156392   6.380   1.852   0.974 -0.1209 -0.2405 -0.4635
11659TIP3    H256393   6.457   1.980   0.946  0.3765 -0.3556  0.3360
11660TIP3   OH256394   0.748   3.655  15.046 -0.1640  0.6198 -0.0890
11660TIP3    H156395   0.840   3.637  15.067 -0.2978 -0.4372 -0.3462
11660TIP3    H256396   0.707   3.568  15.042 -0.8157  0.9788 -1.6657
11661TIP3   OH256397   2.975   4.454  15.880  0.1529 -0.4707  0.2816
11661TIP3    H156398   2.958   4.458  15.974 -0.4678 -0.3090  0.1662
11661TIP3    H256399   3.071   4.455  15.873  0.2141 -1.0008  0.9298
11662TIP3   OH256400   0.924   2.146   4.690 -0.3319  0.2134  0.5769
11662TIP3    H156401   0.836   2.111   4.677  0.9289 -3.5533  0.7971
11662TIP3    H256402   0.964   2.144   4.603  0.6178 -1.7227  1.0093
11663TIP3   OH256403   0.669   4.771  11.826  0.0702 -0.1734  0.1895
11663TIP3    H156404   0.711   4.853  11.852  1.0499 -0.8239  0.7363
11663TIP3    H256405   0.741   4.709  11.817 -0.7964 -1.4762  1.6814
11664TIP3   OH256406   4.540   4.782  16.559 -0.0082 -0.2409 -0.2830
11664TIP3    H156407   4.596   4.723  16.609  1.4865  0.5248 -0.9857
11664TIP3    H256408   4.599   4.824  16.495 -1.2696  1.0001 -0.7011
11665TIP3   OH256409   4.481   3.302   4.313 -0.0771  0.0986 -0.3105
11665TIP3    H156410   4.499   3.387   4.352  0.8983  0.1238 -0.7808
11665TIP3    H256411   4.562   3.252   4.327 -0.5052 -0.6293 -0.3638
11666TIP3   OH256412   5.676   0.040   5.193 -0.6067  0.2539  0.1466
11666TIP3    H156413   5.631   0.087   5.263  1.1161  0.0317  1.4690
11666TIP3    H256414   5.680  -0.050   5.224 -0.5088 -0.0051 -0.6128
11667TIP3   OH256415   2.557   0.373  11.213 -0.1123  0.3210 -0.1351
11667TIP3    H156416   2.645   0.348  11.242  0.3109 -0.3892 -1.8749
11667TIP3    H256417   2.500   0.306  11.250  0.2476  0.1255  0.0667
11668TIP3   OH256418   0.735   4.396  13.999  0.0892 -0.1814  1.0304
11668TIP3    H156419   0.752   4.316  13.950 -0.5355 -0.4085  1.1635
11668TIP3    H256420   0.776   4.466  13.948  0.0520 -0.5032  0.5601
11669TIP3   OH256421   4.016   1.811   4.332 -0.2565 -0.0293 -0.1668
11669TIP3    H156422   4.019   1.715   4.337 -1.0114 -0.0734 -0.4030
11669TIP3    H256423   4.107   1.839   4.345  0.0207 -0.7951 -0.4188
11670TIP3   OH256424   2.445   2.666  13.878  0.1305 -0.0969 -1.1100
11670TIP3    H156425   2.494   2.600  13.927  0.7468  2.3718  1.8781
11670TIP3    H256426   2.502   2.687  13.804  1.1536 -0.9704 -0.6107
11671TIP3   OH256427   3.140   5.054   2.544 -0.4296  0.2654 -0.2758
11671TIP3    H156428   3.177   5.105   2.472 -0.6532  2.9368  1.3320
11671TIP3    H256429   3.082   5.115   2.589 -1.7520 -1.8565  1.0950
11672TIP3   OH256430   5.633   4.763   3.293  0.3209  0.8737 -0.3581
11672TIP3    H156431   5.577   4.833   3.258 -0.3933  0.4995  0.0058
11672TIP3    H256432   5.679   4.804   3.366 -0.0484  0.9912 -0.1858
11673TIP3   OH256433   6.201   5.093   1.326  0.5562 -0.2096  0.6331
11673TIP3    H156434   6.162   5.138   1.251  0.2537 -1.1389  0.2205
11673TIP3    H256435   6.169   5.143   1.402  1.6664  1.3373  0.1306
11674TIP3   OH256436   5.945   2.452   5.248  0.3462  0.1070  0.5124
11674TIP3    H156437   5.865   2.399   5.244  1.6311 -1.9936  1.1091
11674TIP3    H256438   5.983   2.445   5.161  1.2236 -1.1737  0.9722
11675TIP3   OH256439   6.209   5.465   5.397 -0.0048 -0.2520 -0.0648
11675TIP3    H156440   6.156   5.423   5.329  1.1530 -1.1796 -0.4439
11675TIP3    H256441   6.147   5.520   5.446 -1.5248 -2.0536  0.1586
11676TIP3   OH256442   2.477   3.855  14.168  0.3261  0.3150 -0.4968
11676TIP3    H156443   2.528   3.791  14.217  0.1210 -0.2412 -0.9934
11676TIP3    H256444   2.419   3.802  14.113  1.4018  0.8621 -2.2555
11677TIP3   OH256445   1.076   1.687  10.608 -0.4676  0.2659  0.3232
11677TIP3    H156446   1.142   1.753  10.633 -1.0786  0.3935  1.6723
11677TIP3    H256447   1.127   1.608  10.592  0.2536  0.9615 -1.0493
11678TIP3   OH256448   6.779   6.651   1.640 -0.3139 -0.0352  0.3841
11678TIP3    H156449   6.735   6.679   1.720  0.0778 -0.4523  0.7454
11678TIP3    H256450   6.792   6.557   1.651 -0.3239 -0.1090 -0.2014
11679TIP3   OH256451   4.918   4.837   1.586 -0.2615  0.3206  0.0605
11679TIP3    H156452   4.946   4.862   1.497  0.6625 -2.1035 -0.4067
11679TIP3    H256453   4.836   4.789   1.572  0.3375 -0.8252  0.3910
11680TIP3   OH256454   6.071   5.833   5.057  0.2910  0.6011 -0.3466
11680TIP3    H156455   6.146   5.800   5.009 -0.2428 -0.2440 -0.6243
11680TIP3    H256456   6.108   5.877   5.134  1.0723  0.5895 -0.7125
11681TIP3   OH256457   0.837   0.188  10.832  0.0685  0.0963  0.2174
11681TIP3    H156458   0.749   0.200  10.794 -0.5853 -1.9270  0.9561
11681TIP3    H256459   0.893   0.247  10.782 -1.3927  0.0755 -1.5523
11682TIP3   OH256460   3.510   2.116   2.675 -0.4624  0.5689  0.0810
11682TIP3    H156461   3.423   2.077   2.672 -0.4056 -0.0985 -5.7329
11682TIP3    H256462   3.494   2.210   2.679 -1.3805  0.4083  0.3693
11683TIP3   OH256463   2.115   0.409   1.055 -0.3938 -0.1779  0.3526
11683TIP3    H156464   2.125   0.411   0.960  0.0709 -1.6176  0.3431
11683TIP3    H256465   2.176   0.341   1.084 -1.8095 -1.0378  1.4900
11684TIP3   OH256466   1.667   3.711   0.603  0.3446  0.2004 -0.1902
11684TIP3    H156467   1.719   3.631   0.611 -2.2491 -1.5811  0.1470
11684TIP3    H256468   1.682   3.759   0.684  1.3209 -0.3439 -0.0418
11685TIP3   OH256469   0.257   5.185   3.612  0.2366  0.4954 -0.4317
11685TIP3    H156470   0.181   5.139   3.649  1.9479 -0.2806  2.3846
11685TIP3    H256471   0.303   5.221   3.687  3.3190 -0.0798 -1.8692
11686TIP3   OH256472   0.049   1.554  15.503  0.2436  0.0836 -0.0960
11686TIP3    H156473   0.092   1.481  15.546 -0.4564 -0.1999  0.1385
11686TIP3    H256474  -0.044   1.530  15.502 -0.0091  1.0067  0.0800
11687TIP3   OH256475   3.543   5.156   2.914 -0.0951 -0.2966  0.7790
11687TIP3    H156476   3.566   5.112   2.996 -0.4601  0.3635  1.2459
11687TIP3    H256477   3.462   5.114   2.886 -1.0576  0.7795  1.8089
11688TIP3   OH256478   2.186   4.813  15.816 -0.2385 -0.4168 -0.1869
11688TIP3    H156479   2.154   4.882  15.758 -3.1289 -1.0854  0.4365
11688TIP3    H256480   2.207   4.740  15.758 -0.8557 -0.2946 -0.5630
11689TIP3   OH256481   1.323   3.283  14.160 -0.5542 -0.7937  0.2760
11689TIP3    H156482   1.240   3.310  14.200 -0.3425 -0.2381  0.3589
11689TIP3    H256483   1.368   3.233  14.228 -0.5071 -0.4655  0.4891
11690TIP3   OH256484   3.774   2.758  14.124  0.0356  0.1761 -0.2135
11690TIP3    H156485   3.852   2.739  14.177 -0.4276 -3.0294 -0.4969
11690TIP3    H256486   3.717   2.808  14.182  1.3705  0.6768  0.7237
11691TIP3   OH256487   2.165   2.826  16.938  0.2636 -0.1893 -0.4983
11691TIP3    H156488   2.199   2.809  17.026  0.3952  0.5441 -0.3996
11691TIP3    H256489   2.080   2.867  16.952 -0.8089 -2.2309 -0.7503
11692TIP3   OH256490   6.384   2.991  12.119  0.4443  0.1868  0.0068
11692TIP3    H156491   6.450   3.053  12.153 -0.1024  0.2803  0.9333
11692TIP3    H256492   6.420   2.905  12.140  0.6075  0.2204 -0.1322
11693TIP3   OH256493   3.979   5.112  13.275  0.5110 -0.7904  0.2125
11693TIP3    H156494   3.968   5.190  13.221  0.1509 -0.6355  0.5015
11693TIP3    H256495   4.059   5.071  13.243  0.3155 -0.6905 -0.4239
11694TIP3   OH256496   2.518   2.283  12.895  0.3316  0.3119  0.1077
11694TIP3    H156497   2.444   2.339  12.921  1.2379  0.6774  2.0787
11694TIP3    H256498   2.530   2.302  12.802  0.2003  2.9761  0.5499
11695TIP3   OH256499   5.473   5.238   5.327 -0.4437  0.2051 -0.5355
11695TIP3    H156500   5.481   5.334   5.334 -1.0804  0.2234  0.0089
11695TIP3    H256501   5.433   5.224   5.241  0.4744  0.3685 -1.0122
11696TIP3   OH256502   0.816   2.289  16.015  0.1025 -0.5796 -0.1315
11696TIP3    H156503   0.865   2.316  15.937  0.0995  0.6853  0.2829
11696TIP3    H256504   0.877   2.232  16.062  0.7970  0.1279 -0.1447
11697TIP3   OH256505   0.492   1.536   4.324 -0.2253  0.0125  0.3651
11697TIP3    H156506   0.564   1.569   4.271  0.3316 -1.0096  0.4750
11697TIP3    H256507   0.432   1.496   4.262  0.0483 -0.4899  0.4193
11698TIP3   OH256508   4.786   1.405   4.945  0.9334  0.1490 -0.2849
11698TIP3    H156509   4.766   1.498   4.932 -0.3980  0.1993  1.7418
11698TIP3    H256510   4.859   1.404   5.007  1.5887 -0.1699 -1.0447
11699TIP3   OH256511   3.958   3.376  13.158  0.3152  0.4393  0.1183
11699TIP3    H156512   4.032   3.358  13.099 -1.5413 -1.7085 -1.7256
11699TIP3    H256513   3.967   3.312  13.228 -0.2117 -0.3378 -0.5197
11700TIP3   OH256514   6.697   1.798  15.347  0.3840 -0.3798 -0.6574
11700TIP3    H156515   6.745   1.717  15.362 -0.9112 -0.8584  1.3968
11700TIP3    H256516   6.726   1.828  15.261  1.5901 -2.5133 -1.0687
11701TIP3   OH256517   4.863   5.380  12.426  0.1676 -0.3540  0.1063
11701TIP3    H156518   4.783   5.412  12.468  1.2307 -2.0208  3.7709
11701TIP3    H256519   4.920   5.458  12.420 -0.3088  0.0835  1.1073
11702TIP3   OH256520   5.520   4.033   5.489  0.3212  0.0219  0.2276
11702TIP3    H156521   5.602   4.006   5.530  0.9681  0.9347 -0.4269
11702TIP3    H256522   5.517   4.128   5.500  0.1092  0.1902 -1.0980
11703TIP3   OH256523   4.893   2.379  12.397 -0.2494 -0.2806 -0.1082
11703TIP3    H156524   4.829   2.310  12.381  0.7073 -1.2458  0.0783
11703TIP3    H256525   4.948   2.379  12.319 -0.0710  0.0646  0.0158
11704TIP3   OH256526   5.974   5.551  10.709 -0.2810 -0.0554 -0.5288
11704TIP3    H156527   5.937   5.496  10.778  0.2701 -1.1389 -1.0757
11704TIP3    H256528   5.927   5.634  10.717  0.9698  0.5198  2.3313
11705TIP3   OH256529   0.462   4.241  12.056 -0.6682 -0.1726 -0.6217
11705TIP3    H156530   0.491   4.229  12.146 -0.0387  0.7619 -0.6797
11705TIP3    H256531   0.432   4.155  12.028  0.7818 -0.8760 -0.0953
11706TIP3   OH256532   6.302   0.565  12.997 -0.3767 -0.3798 -0.0861
11706TIP3    H156533   6.329   0.559  12.906 -1.0262 -0.2104 -0.2949
11706TIP3    H256534   6.365   0.511  13.044 -0.8865 -1.6770 -0.8267
11707TIP3   OH256535   0.720   2.653  12.525 -0.0990 -0.4692 -0.1477
11707TIP3    H156536   0.634   2.690  12.544 -0.6306 -1.6989 -0.0916
11707TIP3    H256537   0.772   2.729  12.498 -1.5138  0.1495 -1.3263
11708TIP3   OH256538   3.917   1.740  13.293 -0.0687 -0.2401  0.2189
11708TIP3    H156539   3.939   1.788  13.213  0.7221 -0.0292  0.5548
11708TIP3    H256540   3.939   1.649  13.274  0.2603 -0.1670  0.2420
11709TIP3   OH256541   1.037   5.135   4.958  0.0483  0.0861 -0.2315
11709TIP3    H156542   1.107   5.127   4.892  0.0834  0.9482 -0.3201
11709TIP3    H256543   1.025   5.230   4.967  2.1960  0.2189  3.2799
11710TIP3   OH256544   4.852   3.659  12.917 -0.7625  0.4272 -0.2669
11710TIP3    H156545   4.943   3.637  12.897 -0.6149 -2.9745  3.0116
11710TIP3    H256546   4.811   3.671  12.832  1.8811 -1.9836 -2.0881
11711TIP3   OH256547   5.889   5.596  12.420 -0.3823  0.4262  0.1638
11711TIP3    H156548   5.984   5.587  12.430 -0.5426 -0.8075  0.7409
11711TIP3    H256549   5.861   5.512  12.383 -1.4414  0.1609  1.5217
11712TIP3   OH256550   4.892   4.691   4.597 -0.5859 -0.5109 -0.3311
11712TIP3    H156551   4.977   4.649   4.609 -0.7846 -0.7600  0.2370
11712TIP3    H256552   4.891   4.717   4.505  0.8030  1.0410  0.0442
11713TIP3   OH256553   0.711   4.647  16.489 -0.0189 -0.4859 -0.1076
11713TIP3    H156554   0.714   4.596  16.570 -0.9276 -2.5379 -1.2769
11713TIP3    H256555   0.787   4.617  16.440  1.9588  2.4959  0.8354
11714TIP3   OH256556   3.442   1.380   2.697  0.0118  0.1723 -0.3518
11714TIP3    H156557   3.517   1.371   2.638  0.0292 -1.6474 -0.1028
11714TIP3    H256558   3.366   1.359   2.643 -0.0906 -0.2789 -0.0343
11715TIP3   OH256559   1.629   1.223  14.911  0.1640 -0.0051 -0.2359
11715TIP3    H156560   1.560   1.160  14.892 -1.1617  0.5308  2.3305
11715TIP3    H256561   1.710   1.176  14.890 -0.8781 -1.4086 -1.3299
11716TIP3   OH256562   0.791   1.933  11.645 -0.5483 -0.3668 -0.1377
11716TIP3    H156563   0.763   1.917  11.735 -1.8543  0.6511 -0.3221
11716TIP3    H256564   0.711   1.962  11.601  0.2143 -0.2130 -1.4598
11717TIP3   OH256565   5.662   1.690   1.631 -0.0081 -0.1724 -0.1759
11717TIP3    H156566   5.678   1.784   1.641 -1.0627 -0.1528  1.7459
11717TIP3    H256567   5.592   1.685   1.566  0.7589  0.2890 -1.0652
11718TIP3   OH256568   6.136   3.566  16.796 -0.1839  0.2860  0.3668
11718TIP3    H156569   6.095   3.539  16.878 -0.1934  0.7857  0.5249
11718TIP3    H256570   6.193   3.638  16.819  0.2580  0.0542  0.0258
11719TIP3   OH256571   4.884   6.693  16.331 -0.1395  0.6732 -0.4453
11719TIP3    H156572   4.890   6.648  16.246 -2.3447 -0.3355 -0.1364
11719TIP3    H256573   4.879   6.786  16.309  0.7036  0.5311 -1.3171
11720TIP3   OH256574   3.262   3.896  17.072  0.6218 -0.3048 -0.0298
11720TIP3    H156575   3.216   3.926  16.994  0.4323 -2.2293 -0.7097
11720TIP3    H256576   3.219   3.942  17.144 -0.7504 -0.2188 -0.8681
11721TIP3   OH256577   0.768   3.916  13.649  0.0001 -0.2399  0.1867
11721TIP3    H156578   0.812   3.977  13.706  1.4478 -2.0767  1.1481
11721TIP3    H256579   0.838   3.870  13.603 -1.0578 -0.5581 -1.2024
11722TIP3   OH256580   0.461   4.470  15.327  0.0940  0.1471 -0.0739
11722TIP3    H156581   0.510   4.471  15.409  1.7616 -0.9327 -1.0066
11722TIP3    H256582   0.499   4.398  15.277  0.4861  1.9809 -2.5856
11723TIP3   OH256583   6.633   0.017  12.492 -0.4469 -0.7766  0.4649
11723TIP3    H156584   6.554  -0.034  12.476 -0.4715 -0.6928  0.3134
11723TIP3    H256585   6.690  -0.005  12.419 -1.5390  1.5762 -1.2269
11724TIP3   OH256586   5.689   0.111  15.797 -0.1053  0.2248  0.3662
11724TIP3    H156587   5.595   0.111  15.776  0.3134 -2.7135 -2.3241
11724TIP3    H256588   5.727   0.177  15.738 -0.1883 -0.7757 -0.8610
11725TIP3   OH256589   2.453   2.037  13.519 -0.1795  0.2958  0.1392
11725TIP3    H156590   2.456   2.085  13.601  0.7438 -1.6101  1.2925
11725TIP3    H256591   2.360   2.023  13.502 -0.4403  1.8307  0.1146
11726TIP3   OH256592   2.495   5.798  11.076 -0.5847  0.6528  0.2453
11726TIP3    H156593   2.487   5.869  11.140  0.5099  0.8476  0.1884
11726TIP3    H256594   2.537   5.839  11.000  0.6184 -0.1548  0.4377
11727TIP3   OH256595   4.766   0.274   5.690  0.4247  0.2084 -0.7630
11727TIP3    H156596   4.732   0.196   5.735  0.2260  0.8718  0.2633
11727TIP3    H256597   4.703   0.289   5.619 -2.4473  2.2279  1.9024
11728TIP3   OH256598   5.039   1.938  12.179 -0.2582 -0.3066 -0.2519
11728TIP3    H156599   4.957   1.963  12.222  0.0371  0.9867 -0.4015
11728TIP3    H256600   5.088   2.019  12.172  0.8751 -0.9940 -0.5404
11729TIP3   OH256601   2.273   1.200  15.796 -0.2827  0.1836  0.0384
11729TIP3    H156602   2.185   1.184  15.762  0.5904 -1.1817 -1.7896
11729TIP3    H256603   2.283   1.136  15.867 -1.0808  1.0334  0.9497
11730TIP3   OH256604   0.650   1.387   1.689  0.0176  0.1446 -0.6016
11730TIP3    H156605   0.719   1.388   1.756  1.7770 -0.0848 -2.3150
11730TIP3    H256606   0.588   1.454   1.717  0.1689 -0.6096  1.7447
11731TIP3   OH256607   2.020   4.656   1.608 -0.2142  0.3893  0.3074
11731TIP3    H156608   2.018   4.586   1.673 -0.5606  0.1066 -0.0096
11731TIP3    H256609   2.087   4.717   1.641 -0.5805  0.3918  1.0801
11732TIP3   OH256610   5.661   2.434  11.316  0.0958 -0.2093 -0.2396
11732TIP3    H156611   5.749   2.402  11.336  0.7918  1.5002 -0.4674
11732TIP3    H256612   5.629   2.374  11.248  2.2328  0.8068 -2.2821
11733TIP3   OH256613   5.435   1.915  15.812  0.2023 -0.7192 -0.4149
11733TIP3    H156614   5.441   1.998  15.858  0.4463 -1.1888  0.4233
11733TIP3    H256615   5.510   1.864  15.844  0.0819 -1.2463 -0.9475
11734TIP3   OH256616   6.308   0.017   5.474 -0.1874  0.3234 -0.1307
11734TIP3    H156617   6.322   0.061   5.390 -1.5861 -0.6516 -0.9246
11734TIP3    H256618   6.248   0.074   5.522  1.1314  1.2139  0.5258
11735TIP3   OH256619   4.463   6.384   0.386  0.4084  0.2115 -0.2198
11735TIP3    H156620   4.387   6.417   0.336  0.7416  1.7002  0.1986
11735TIP3    H256621   4.522   6.350   0.319  1.1344  2.7593 -0.9890
11736TIP3   OH256622   5.889   2.706  15.427  0.2917 -0.1473 -0.1537
11736TIP3    H156623   5.837   2.783  15.449 -1.2567 -1.5919  1.5982
11736TIP3    H256624   5.877   2.695  15.333 -3.4329 -0.8768  0.2526
11737TIP3   OH256625   2.105   1.960   0.921 -0.0878  0.1070  0.1284
11737TIP3    H156626   2.138   1.879   0.883  0.3838  0.3164  0.0798
11737TIP3    H256627   2.148   1.966   1.006  0.3169  0.5891 -0.1060
11738TIP3   OH256628   4.228   6.144   4.188  0.3864  0.1814 -0.2406
11738TIP3    H156629   4.232   6.140   4.092 -2.1177 -0.4979 -0.3898
11738TIP3    H256630   4.225   6.052   4.216 -0.1970  0.3879  0.3993
11739TIP3   OH256631   2.572   6.100   3.046  0.1442  0.0812  0.0425
11739TIP3    H156632   2.520   6.120   3.124  0.8526  0.1048  0.5148
11739TIP3    H256633   2.640   6.041   3.077 -0.9612 -1.8593 -1.0208
11740TIP3   OH256634   4.928   2.620   6.061 -0.2354  0.2295 -0.1304
11740TIP3    H156635   4.879   2.702   6.057  1.8079  1.4380 -2.3228
11740TIP3    H256636   4.896   2.569   5.987  1.0062  0.5892 -0.9409
11741TIP3   OH256637   1.082   0.350  14.359 -0.0768 -0.2533 -0.1952
11741TIP3    H156638   0.992   0.348  14.391  0.1700 -0.4499  0.4905
11741TIP3    H256639   1.129   0.287  14.414  0.6237  0.3223 -0.1206
11742TIP3   OH256640   2.781   4.028   2.817 -0.5375 -0.4473 -0.1789
11742TIP3    H156641   2.751   4.111   2.854 -1.9203  0.3220 -2.7727
11742TIP3    H256642   2.703   3.972   2.816 -0.5393 -0.4722 -1.6773
11743TIP3   OH256643   6.005   6.237  10.635 -0.1564  0.5381 -0.1961
11743TIP3    H156644   6.015   6.159  10.581 -2.2441 -0.9683  1.4294
11743TIP3    H256645   5.954   6.298  10.582 -0.4642 -0.1048 -0.6450
11744TIP3   OH256646   6.221   4.154  14.000 -0.1101  0.4691  0.0290
11744TIP3    H156647   6.169   4.227  14.033  1.3513  2.1160 -1.1076
11744TIP3    H256648   6.244   4.103  14.078 -1.9389  0.6751  0.7366
11745TIP3   OH256649   0.530   6.197   1.085  0.8842 -0.2500 -0.5449
11745TIP3    H156650   0.541   6.133   1.014  2.0610 -0.7738  0.0823
11745TIP3    H256651   0.613   6.245   1.086  1.0076 -0.4552  0.6591
11746TIP3   OH256652   4.802   3.529  15.237  0.1363  0.1706 -0.2108
11746TIP3    H156653   4.896   3.537  15.250 -0.2194  2.2812  1.7851
11746TIP3    H256654   4.779   3.608  15.187 -0.6765  0.1680  0.1490
11747TIP3   OH256655   0.265   6.004   3.914  0.1741  0.1943 -0.6760
11747TIP3    H156656   0.182   6.002   3.962 -0.3246  0.4276 -1.5144
11747TIP3    H256657   0.275   6.096   3.888  0.4000  0.0544 -1.0800
11748TIP3   OH256658   5.821   1.006   1.517 -0.6231 -0.2895  0.4623
11748TIP3    H156659   5.891   0.961   1.566  0.3624  1.4141  0.6904
11748TIP3    H256660   5.856   1.093   1.500 -1.8024 -0.1295 -1.4376
11749TIP3   OH256661   1.731   2.959   5.985  0.5779  0.2463  0.2192
11749TIP3    H156662   1.793   3.028   6.010 -0.7862  1.4452  0.4463
11749TIP3    H256663   1.649   2.985   6.027 -0.6992  0.0186 -2.0005
11750TIP3   OH256664   2.550   1.921   1.250 -0.1365 -0.2007  0.9045
11750TIP3    H156665   2.596   1.968   1.320  0.3582 -0.0586  0.4895
11750TIP3    H256666   2.619   1.890   1.192 -0.5253 -0.5745  0.6297
11751TIP3   OH256667   2.674   3.599   2.479 -0.1352 -0.5375 -0.1977
11751TIP3    H156668   2.687   3.666   2.547  1.1029  0.4560 -1.3513
11751TIP3    H256669   2.750   3.609   2.421 -1.2620 -1.2037 -1.8583
11752TIP3   OH256670   0.536   0.446  14.356  0.3112 -0.1879 -0.0709
11752TIP3    H156671   0.609   0.392  14.386 -0.6682 -2.1759 -1.0755
11752TIP3    H256672   0.577   0.526  14.323  1.9784 -1.0155 -0.1050
11753TIP3   OH256673   3.640   3.353   6.346  0.3150  0.4877  0.0224
11753TIP3    H156674   3.614   3.390   6.430  0.0902  0.6554 -0.1192
11753TIP3    H256675   3.572   3.383   6.285  0.0345 -0.3139 -0.0610
11754TIP3   OH256676   2.925   5.678   1.653 -0.5019  0.1972 -0.0167
11754TIP3    H156677   2.994   5.668   1.718 -0.8678  0.2485  0.3803
11754TIP3    H256678   2.853   5.624   1.685 -0.5596 -0.0602 -0.5586
11755TIP3   OH256679   2.888   0.836   5.183  0.7680 -0.8869  0.5143
11755TIP3    H156680   2.946   0.794   5.246  0.1697 -0.8151  1.1247
11755TIP3    H256681   2.802   0.797   5.200  0.3437  0.0774  0.6160
11756TIP3   OH256682   6.035   3.298   4.081  0.2312  0.6002  0.8072
11756TIP3    H156683   5.957   3.271   4.033  1.0757  0.9275 -0.8248
11756TIP3    H256684   6.061   3.381   4.040  0.5899  1.2785  2.3353
11757TIP3   OH256685   0.077   2.822  13.243 -0.9659  0.1604  0.4557
11757TIP3    H156686   0.145   2.778  13.293 -0.0931  0.7706 -0.1594
11757TIP3    H256687   0.084   2.785  13.155  0.1892  1.9079 -0.2306
11758TIP3   OH256688   0.877   2.397   0.350  0.3056  0.2663 -0.0091
11758TIP3    H156689   0.864   2.312   0.308 -0.1239 -0.3755  1.3737
11758TIP3    H256690   0.960   2.389   0.395 -0.5173 -0.0442  1.5190
11759TIP3   OH256691   6.571   6.681  15.103  0.1155  0.4734  0.1039
11759TIP3    H156692   6.649   6.626  15.110 -0.4898 -0.5779 -0.9762
11759TIP3    H256693   6.559   6.717  15.191  1.2882 -0.0576  0.5062
11760TIP3   OH256694   2.509   3.074  16.318 -0.4991  0.1201 -0.5449
11760TIP3    H156695   2.430   3.055  16.368  0.2699  1.0502  1.1178
11760TIP3    H256696   2.572   3.008  16.347  0.3397  1.4349  0.7326
11761TIP3   OH256697   2.055   2.632   2.207  0.1587 -0.1602  0.1601
11761TIP3    H156698   2.047   2.626   2.112  2.9531 -0.8244 -0.1276
11761TIP3    H256699   2.075   2.543   2.235  1.9392  0.4604  1.0062
11762TIP3   OH256700   3.282   0.050   4.346  0.3341  0.2499 -0.1328
11762TIP3    H156701   3.287  -0.026   4.404  1.8035  0.2200 -0.2766
11762TIP3    H256702   3.257   0.014   4.261 -1.1426  0.2154  0.2802
11763TIP3   OH256703   6.403   5.908  15.650  0.2205  0.2725  0.6505
11763TIP3    H156704   6.315   5.933  15.677 -0.6549  0.8520 -2.3329
11763TIP3    H256705   6.395   5.816  15.623  0.6905  0.1214  1.0171
11764TIP3   OH256706   2.850   5.542   3.661  0.2130 -0.5799  0.1360
11764TIP3    H156707   2.925   5.497   3.699  1.1771  1.6691  1.0252
11764TIP3    H256708   2.775   5.489   3.687  1.4427 -3.2627 -1.3153
11765TIP3   OH256709   3.029   6.228   6.364 -0.0117 -0.1043  0.3189
11765TIP3    H156710   2.994   6.148   6.324 -0.0332  0.8293 -1.6461
11765TIP3    H256711   3.096   6.197   6.425 -1.2642 -1.6945  0.9436
11766TIP3   OH256712   5.879   5.407  16.044 -0.0402 -0.2147  0.2583
11766TIP3    H156713   5.844   5.386  16.131 -0.7368  1.0940  0.3196
11766TIP3    H256714   5.828   5.483  16.016 -1.2515 -1.7921 -2.1707
11767TIP3   OH256715   3.213   5.223   1.601  0.0029 -0.3497  0.2392
11767TIP3    H156716   3.298   5.233   1.643 -0.5134 -0.6486  1.4166
11767TIP3    H256717   3.150   5.238   1.671 -0.9001 -1.4220 -0.2987
11768TIP3   OH256718   6.568   0.649  14.965 -0.0967  0.0128 -0.2022
11768TIP3    H156719   6.627   0.722  14.948 -0.5214  0.3478 -0.2402
11768TIP3    H256720   6.627   0.576  14.988  0.3312  0.3269 -0.2832
11769TIP3   OH256721   5.649   2.771   4.046  0.4502 -0.5778 -0.0032
11769TIP3    H156722   5.668   2.682   4.017 -1.6194 -1.8636  2.1727
11769TIP3    H256723   5.554   2.778   4.041  0.5746  1.5154 -0.0937
11770TIP3   OH256724   0.318   5.500   1.831 -0.1992  0.2196 -0.4854
11770TIP3    H156725   0.226   5.493   1.805 -0.3438 -2.2561  0.4153
11770TIP3    H256726   0.328   5.591   1.860 -2.3921  0.5245 -0.5186
11771TIP3   OH256727   5.189   4.754  12.324  0.0783  0.4979 -0.2478
11771TIP3    H156728   5.232   4.746  12.239 -0.6820  1.7278 -0.7652
11771TIP3    H256729   5.198   4.667  12.363  0.8948  0.0602 -1.3576
11772TIP3   OH256730   5.408   2.716   4.334  0.0911 -0.3917  0.0558
11772TIP3    H156731   5.464   2.642   4.310  1.6510  0.8750 -0.3940
11772TIP3    H256732   5.330   2.705   4.281  0.9076 -0.9526 -1.0813
11773TIP3   OH256733   3.823   2.938   2.288  0.1073  0.0449  0.4460
11773TIP3    H156734   3.802   2.959   2.380 -0.9386 -0.6216  0.3744
11773TIP3    H256735   3.750   2.974   2.238  1.4871  1.9247 -0.3415
11774TIP3   OH256736   5.915   4.773   5.290 -0.1679  0.3920  0.0262
11774TIP3    H156737   5.911   4.828   5.211 -0.1301 -0.0669 -0.2980
11774TIP3    H256738   5.846   4.808   5.347  1.1731  2.0829  0.6937
11775TIP3   OH256739   3.805   4.630   1.299 -0.5528  0.3592  0.1708
11775TIP3    H156740   3.840   4.670   1.378  0.9035  0.1921 -0.3686
11775TIP3    H256741   3.882   4.607   1.247 -1.4865  0.8010 -1.4706
11776TIP3   OH256742   1.160   0.802  12.008  0.4971 -0.2905 -0.0577
11776TIP3    H156743   1.231   0.832  12.064  1.0362  0.2967 -1.0209
11776TIP3    H256744   1.102   0.877  12.000 -0.8177 -1.0694  1.5500
11777TIP3   OH256745   6.498   3.982  13.732  0.7315  0.2813 -0.3034
11777TIP3    H156746   6.566   3.935  13.781  1.3442  0.3547 -1.0669
11777TIP3    H256747   6.424   3.921  13.731  0.9987 -0.0564 -0.0019
11778TIP3   OH256748   4.036   3.839  17.111 -0.4199 -0.2030  0.1314
11778TIP3    H156749   4.037   3.766  17.050  0.3619 -0.2944  0.2482
11778TIP3    H256750   3.949   3.834  17.152 -0.7822 -0.4037 -0.6392
11779TIP3   OH256751   1.628   0.446  16.214 -0.5975 -0.2069  0.2270
11779TIP3    H156752   1.681   0.461  16.136  1.1000  0.4837  1.4497
11779TIP3    H256753   1.573   0.371  16.192  1.5462 -1.5746 -0.8239
11780TIP3   OH256754   6.067   6.713   3.443 -0.0614 -0.2287  0.2573
11780TIP3    H156755   6.075   6.762   3.361  1.8751 -0.8763  0.0094
11780TIP3    H256756   6.113   6.767   3.507  1.9211 -1.5638  0.0229
11781TIP3   OH256757   1.942   4.384   2.502  0.4273 -0.3436  0.1663
11781TIP3    H156758   1.973   4.324   2.434 -0.2458 -1.0506  0.4753
11781TIP3    H256759   1.944   4.333   2.582 -2.0897 -0.6222  0.1164
11782TIP3   OH256760   3.753   2.392   5.774 -0.1617 -0.3735 -0.2018
11782TIP3    H156761   3.843   2.361   5.767 -0.3016 -0.7677 -0.2945
11782TIP3    H256762   3.721   2.355   5.856 -0.9615 -2.1686 -1.2495
11783TIP3   OH256763   3.445   3.155   2.441 -0.4976 -0.0604 -0.3427
11783TIP3    H156764   3.448   3.098   2.518  2.1465 -0.1502 -0.4080
11783TIP3    H256765   3.440   3.244   2.477 -0.5574 -0.1579 -0.1119
11784TIP3   OH256766   0.711   0.618   3.350  0.0453  0.2801  0.4936
11784TIP3    H156767   0.767   0.630   3.273  1.7751 -0.9778  1.4688
11784TIP3    H256768   0.639   0.679   3.337  0.3279  0.1852 -2.0555
11785TIP3   OH256769   3.856   5.800   2.534 -0.6461 -0.4364  0.3595
11785TIP3    H156770   3.865   5.789   2.629 -1.4807 -0.4811  0.4420
11785TIP3    H256771   3.789   5.737   2.508 -0.8077 -0.0599 -0.1729
11786TIP3   OH256772   5.384   3.708   5.224 -0.4582 -0.9112 -0.1127
11786TIP3    H156773   5.430   3.722   5.141 -1.9476 -2.5639 -1.2939
11786TIP3    H256774   5.434   3.639   5.268  0.3695  0.0111  0.4549
11787TIP3   OH256775   2.307   4.592   1.445 -0.2575 -0.0734 -0.0614
11787TIP3    H156776   2.397   4.561   1.433 -0.0162  0.7220 -0.4021
11787TIP3    H256777   2.294   4.654   1.373 -1.4535 -0.9726 -0.6472
11788TIP3   OH256778   1.756   2.431  12.460  0.0681 -0.7734  0.3197
11788TIP3    H156779   1.743   2.375  12.537  1.1937 -0.4075  0.8008
11788TIP3    H256780   1.782   2.371  12.390  1.8565 -0.8453  0.9809
11789TIP3   OH256781   1.986   2.299  16.261  0.3696 -0.1658 -0.4668
11789TIP3    H156782   1.991   2.228  16.324  2.8755  0.3397  0.0159
11789TIP3    H256783   1.924   2.268  16.195  0.3242 -2.1823  0.4520
11790TIP3   OH256784   0.396   4.614   0.027 -0.5491  0.3484  0.1621
11790TIP3    H156785   0.310   4.592   0.064 -1.6122  3.1291 -0.3730
11790TIP3    H256786   0.400   4.564  -0.055 -2.7241  1.7518 -0.9159
11791TIP3   OH256787   5.795   1.155  11.826  0.5147 -0.1717  0.0881
11791TIP3    H156788   5.744   1.199  11.894  1.0746 -0.5424  0.7687
11791TIP3    H256789   5.802   1.064  11.857 -1.1377 -0.9411 -1.5721
11792TIP3   OH256790   5.826   0.413   2.342 -0.5499  0.2143  0.1705
11792TIP3    H156791   5.837   0.365   2.260  1.0938 -0.0992  0.5441
11792TIP3    H256792   5.852   0.351   2.410  2.3738  1.7896  0.6251
11793TIP3   OH256793   6.255   5.112  16.606  0.0161 -0.4982 -0.5462
11793TIP3    H156794   6.245   5.129  16.699  1.0502  1.7082 -0.7701
11793TIP3    H256795   6.219   5.189  16.563  0.2784 -1.1111 -1.9537
11794TIP3   OH256796   4.959   3.540  15.645 -0.4386  0.3400  0.0484
11794TIP3    H156797   5.053   3.547  15.662 -0.3603 -1.0777  0.3086
11794TIP3    H256798   4.919   3.602  15.705  0.4112  2.3305 -1.3277
11795TIP3   OH256799   0.451   6.478  15.579  0.0492 -0.2140 -0.1045
11795TIP3    H156800   0.476   6.486  15.487 -0.9167  1.9886 -0.2432
11795TIP3    H256801   0.420   6.565  15.603  0.4123 -0.6919  2.3764
11796TIP3   OH256802   3.979   1.807  12.405  0.0580  0.2243  0.5014
11796TIP3    H156803   4.019   1.720  12.406 -0.7886 -0.1717  0.5839
11796TIP3    H256804   3.895   1.794  12.361 -0.8629  0.6420  2.0550
11797TIP3   OH256805   4.889   5.360  14.686  0.0072  0.1292  0.6163
11797TIP3    H156806   4.800   5.378  14.658 -0.2585 -1.1057  0.6212
11797TIP3    H256807   4.880   5.300  14.760  0.8584 -0.7185  0.0560
11798TIP3   OH256808   5.665   4.931  10.972  0.1095 -0.1472 -0.2465
11798TIP3    H156809   5.697   5.021  10.979  1.5827 -0.7107  1.3397
11798TIP3    H256810   5.599   4.924  11.041 -1.0168  0.0714 -1.2791
11799TIP3   OH256811   4.026   5.750  14.452 -0.2172  0.3816  0.1725
11799TIP3    H156812   4.000   5.739  14.543 -1.2813 -0.4345 -0.2097
11799TIP3    H256813   3.951   5.794  14.411  0.4233  1.1294 -0.2250
11800TIP3   OH256814   1.730   3.451  15.844 -0.0349  0.0394  0.4026
11800TIP3    H156815   1.765   3.415  15.925  0.3614  1.9543  1.1171
11800TIP3    H256816   1.750   3.544  15.847 -2.8040  0.7568 -0.4044
11801TIP3   OH256817   0.248   6.411   3.513  0.3352  0.1666  0.0191
11801TIP3    H156818   0.271   6.503   3.524 -2.0336  0.9612 -1.0468
11801TIP3    H256819   0.320   6.374   3.462  1.3021  1.4386  0.4300
11802TIP3   OH256820   5.202   4.605   0.114 -0.3253 -0.1307  0.1741
11802TIP3    H156821   5.263   4.652   0.170 -0.2255 -1.7767  1.5453
11802TIP3    H256822   5.167   4.535   0.170 -2.1441 -0.3077 -1.0973
11803TIP3   OH256823   4.134   5.354   5.219 -0.0904  0.2241 -0.6051
11803TIP3    H156824   4.129   5.401   5.301 -1.3160 -1.1655  0.1582
11803TIP3    H256825   4.078   5.404   5.159  0.5003  1.0262 -0.5051
11804TIP3   OH256826   4.476   6.250   1.913  0.1173 -0.7057  0.0892
11804TIP3    H156827   4.498   6.158   1.900  0.8967 -0.5510  0.2568
11804TIP3    H256828   4.531   6.297   1.851 -0.2536 -0.3481  0.0250
11805TIP3   OH256829   0.457   4.513   5.511 -0.1942  0.1498  0.6323
11805TIP3    H156830   0.393   4.486   5.577 -0.6108  1.4595  0.7957
11805TIP3    H256831   0.422   4.594   5.475  0.6455  0.1059 -0.3399
11806TIP3   OH256832   4.209   3.419  12.735 -0.5584  0.7968  0.2335
11806TIP3    H156833   4.290   3.444  12.690 -1.1313  0.4810 -0.9885
11806TIP3    H256834   4.143   3.479  12.702 -1.0390  0.4138  0.4814
11807TIP3   OH256835   1.945   2.370  12.865 -0.1010  0.2179 -0.4679
11807TIP3    H156836   2.012   2.422  12.821 -1.1979  1.3014 -0.9141
11807TIP3    H256837   1.934   2.413  12.950  0.3008 -0.4218 -0.0835
11808TIP3   OH256838   3.213   6.768   2.593 -0.5762  0.1681  0.6016
11808TIP3    H156839   3.136   6.719   2.621  0.2638 -1.9596 -0.6012
11808TIP3    H256840   3.259   6.788   2.675 -0.3436 -2.1610  1.1184
11809TIP3   OH256841   1.989   2.991   4.251 -0.2905 -0.2639 -0.0686
11809TIP3    H156842   1.904   3.034   4.247 -0.8054 -1.1433  0.9018
11809TIP3    H256843   2.028   3.005   4.165 -0.9756  1.0284 -0.1789
11810TIP3   OH256844   6.377   5.281  15.038  0.4333 -0.5327  0.1694
11810TIP3    H156845   6.357   5.324  14.955  2.7433 -0.9997 -0.7107
11810TIP3    H256846   6.454   5.327  15.072  0.2442 -1.1102  1.4739
11811TIP3   OH256847   1.078   5.255   5.733 -0.1117 -0.0643  0.0060
11811TIP3    H156848   1.075   5.266   5.638  0.5520  0.7727  0.0707
11811TIP3    H256849   1.088   5.344   5.767  0.2878 -0.4148  0.8232
11812TIP3   OH256850   5.610   3.106   5.569  0.4851  0.0418  0.0267
11812TIP3    H156851   5.579   3.184   5.615  0.3914  0.3850 -0.6033
11812TIP3    H256852   5.530   3.059   5.545  0.5523 -0.4932  0.7967
11813TIP3   OH256853   1.166   1.814   0.977  0.9659  0.3140 -0.0375
11813TIP3    H156854   1.232   1.826   0.908  2.5007 -0.3004  1.2357
11813TIP3    H256855   1.083   1.834   0.935  1.8662  0.1993 -1.9938
11814TIP3   OH256856   6.376   6.729  13.476 -0.1691  0.4735  0.1425
11814TIP3    H156857   6.449   6.742  13.537 -1.0024  0.5139  1.1647
11814TIP3    H256858   6.334   6.815  13.470  0.2395  0.6168 -0.9642
11815TIP3   OH256859   6.355   1.918   3.547 -0.0659  1.1251  0.0250
11815TIP3    H156860   6.390   1.879   3.627  0.0325 -2.4028 -1.5440
11815TIP3    H256861   6.261   1.926   3.563 -0.4388 -1.7861 -0.1696
11816TIP3   OH256862   3.146   5.402  10.949  0.0190  0.6340 -0.2668
11816TIP3    H156863   3.194   5.320  10.936 -0.9902 -0.0925  0.4334
11816TIP3    H256864   3.081   5.403  10.878  0.7204  1.3758 -0.9218
11817TIP3   OH256865   1.325   2.560   2.520 -0.0239 -0.0877 -0.4435
11817TIP3    H156866   1.276   2.623   2.467 -2.0595 -0.2694  1.1244
11817TIP3    H256867   1.313   2.588   2.610 -0.5994 -2.4274  0.2807
11818TIP3   OH256868   5.077   5.351   2.525  0.3482  0.4160  0.5520
11818TIP3    H156869   5.159   5.308   2.549  0.7088  0.7183 -0.1128
11818TIP3    H256870   5.025   5.283   2.482  0.1160  0.1460  1.2344
11819TIP3   OH256871   3.847   4.441  16.530 -0.3201  0.3593 -0.5007
11819TIP3    H156872   3.862   4.483  16.615  0.8542  0.1413 -0.5803
11819TIP3    H256873   3.766   4.391  16.542  0.3030 -0.3969  0.8001
11820TIP3   OH256874   0.343   2.253  15.135 -0.6133  0.4013 -0.2645
11820TIP3    H156875   0.396   2.326  15.105 -1.4136  1.2666  0.3466
11820TIP3    H256876   0.331   2.198  15.057  0.4413  0.6361 -0.6032
11821TIP3   OH256877   1.508   6.501  12.692 -0.5373 -0.6142  0.1585
11821TIP3    H156878   1.436   6.484  12.753 -2.7242  2.6074 -1.2387
11821TIP3    H256879   1.470   6.559  12.626  2.5940 -1.2353 -2.4363
11822TIP3   OH256880   5.449   6.770  11.202  0.7715 -0.4145  0.4513
11822TIP3    H156881   5.387   6.815  11.259  0.0575  1.2013 -1.4793
11822TIP3    H256882   5.462   6.830  11.128  1.7043 -2.3470 -1.0466
11823TIP3   OH256883   2.635   5.917   0.279 -0.8391  0.2322  0.3855
11823TIP3    H156884   2.650   5.980   0.350 -0.7338  0.5839  0.0535
11823TIP3    H256885   2.721   5.907   0.237 -1.2673  1.4492 -0.8618
11824TIP3   OH256886   5.384   4.892  16.116  0.1474  0.0923  0.2664
11824TIP3    H156887   5.451   4.906  16.049  0.5774 -0.6983  0.5240
11824TIP3    H256888   5.316   4.841  16.072  0.1106  0.1630  0.2417
11825TIP3   OH256889   5.848   3.106   3.976  0.8876 -0.2851 -0.2416
11825TIP3    H156890   5.905   3.029   3.967 -1.5901 -2.2954 -0.0596
11825TIP3    H256891   5.786   3.081   4.045 -2.0460  0.4600 -2.4193
11826TIP3   OH256892   2.118   6.187  15.445 -0.0502 -0.0835  0.4812
11826TIP3    H156893   2.161   6.271  15.459 -0.2727  0.1803 -0.3597
11826TIP3    H256894   2.045   6.186  15.507 -0.3520  0.5580  0.1416
11827TIP3   OH256895   5.064   6.077  14.715  0.4015 -0.6770  0.0859
11827TIP3    H156896   5.102   5.990  14.703  2.0867  0.0945 -0.4438
11827TIP3    H256897   4.985   6.076  14.661  0.6743 -1.7091 -0.3233
11828TIP3   OH256898   0.036   1.959   5.929  0.3432 -0.3918  0.9635
11828TIP3    H156899   0.085   2.020   5.874  1.6933 -1.6976  0.6646
11828TIP3    H256900  -0.025   2.015   5.978 -0.8089  0.8714 -1.6597
11829TIP3   OH256901   0.016   4.851  11.594  0.1278 -0.1576 -0.2864
11829TIP3    H156902   0.012   4.938  11.553 -0.3352 -0.7899 -1.6572
11829TIP3    H256903  -0.075   4.826  11.606  0.2551 -0.6103 -0.2446
11830TIP3   OH256904   0.841   5.499   5.287 -0.2449  0.5595 -0.2714
11830TIP3    H156905   0.829   5.404   5.280 -1.0182  0.4310  1.9687
11830TIP3    H256906   0.921   5.509   5.339 -1.6742  1.0164  1.9741
11831TIP3   OH256907   6.372   4.833   3.430  0.0535  0.0797  0.1101
11831TIP3    H156908   6.301   4.794   3.378  0.5519 -0.5158 -0.1310
11831TIP3    H256909   6.395   4.765   3.493 -1.1880  1.1284  1.7710
11832TIP3   OH256910   6.769   0.891   4.858 -0.4744  0.6442  0.6896
11832TIP3    H156911   6.689   0.854   4.821 -0.7987  1.0714  0.9451
11832TIP3    H256912   6.742   0.977   4.890  0.4001  1.3825 -0.4743
11833TIP3   OH256913   3.557   2.059   3.922 -0.4931  0.5902 -0.2341
11833TIP3    H156914   3.577   2.151   3.903 -1.4770  0.6198 -1.1949
11833TIP3    H256915   3.463   2.051   3.904 -0.8693 -0.1231  1.8104
11834TIP3   OH256916   3.700   2.679   1.603  1.4426  0.4030 -0.3616
11834TIP3    H156917   3.735   2.653   1.689 -0.2661  0.0096  0.2495
11834TIP3    H256918   3.729   2.611   1.543  0.5966 -0.6455  0.3954
11835TIP3   OH256919   3.618   5.363  11.318 -0.0010 -0.3484  0.2783
11835TIP3    H156920   3.662   5.424  11.258 -0.6198  1.3924  1.5061
11835TIP3    H256921   3.533   5.348  11.279  0.2736 -0.6852 -0.1951
11836TIP3   OH256922   5.573   1.396  13.131 -0.0010 -0.6097 -0.4649
11836TIP3    H156923   5.527   1.466  13.085  0.7043 -0.9280 -1.7032
11836TIP3    H256924   5.509   1.324  13.133 -0.1328 -0.5053 -0.7319
11837TIP3   OH256925   0.342   3.860  12.475  0.4285  0.4500  0.4847
11837TIP3    H156926   0.266   3.850  12.419  1.5545  0.1490 -1.0402
11837TIP3    H256927   0.334   3.949  12.510 -0.3382  0.6035 -0.0569
11838TIP3   OH256928   2.479   6.138   4.199 -0.3234  0.2553  0.4204
11838TIP3    H156929   2.513   6.089   4.273  0.7942  1.6544  0.8662
11838TIP3    H256930   2.420   6.076   4.154  0.5040 -1.2396  1.3325
11839TIP3   OH256931   6.288   3.528  11.955 -0.3496  0.1886 -0.0832
11839TIP3    H156932   6.352   3.517  12.025 -0.2810  0.0958 -0.1597
11839TIP3    H256933   6.320   3.602  11.903 -0.8847  0.8427  0.5103
11840TIP3   OH256934   6.091   2.914   5.452  0.3639  0.0477 -0.5899
11840TIP3    H156935   6.065   2.989   5.505 -0.2469 -1.0291  0.6792
11840TIP3    H256936   6.141   2.953   5.380  0.0971  1.6618  0.0396
11841TIP3   OH256937   3.351   3.757   6.326 -0.4465  0.4220  0.5174
11841TIP3    H156938   3.285   3.819   6.295 -1.6921 -1.3025 -0.4633
11841TIP3    H256939   3.301   3.691   6.374  0.8062  0.0295  1.3217
11842TIP3   OH256940   1.943   6.453   2.461 -0.1073 -0.4674 -0.2784
11842TIP3    H156941   1.904   6.456   2.549 -1.7960  0.1204 -0.9880
11842TIP3    H256942   1.878   6.497   2.406  0.6972 -1.2614 -1.9031
11843TIP3   OH256943   3.382   1.364  16.796 -0.3760  0.0155  0.5713
11843TIP3    H156944   3.417   1.303  16.860  0.8585  1.6006  1.5035
11843TIP3    H256945   3.452   1.374  16.731 -0.5276  0.4903  0.4760
11844TIP3   OH256946   2.550   1.019   2.624 -0.1090  0.3178  0.2547
11844TIP3    H156947   2.582   0.929   2.623  1.1884  0.7613 -0.9477
11844TIP3    H256948   2.620   1.070   2.665 -0.8909  0.7890  1.0694
11845TIP3   OH256949   6.314   1.045  16.507  0.3075 -0.3875  0.3820
11845TIP3    H156950   6.402   1.059  16.543  0.0310 -0.7149  1.1893
11845TIP3    H256951   6.286   0.962  16.544 -1.0933  0.5987  1.6572
11846TIP3   OH256952   6.060   4.004  15.731 -0.4982  0.1482  0.1966
11846TIP3    H156953   6.100   3.920  15.752  2.1687  0.9875 -1.0202
11846TIP3    H256954   6.069   4.056  15.811  1.5732  0.5113 -0.2085
11847TIP3   OH256955   5.396   5.688   4.468 -0.9493  0.2590  0.0556
11847TIP3    H156956   5.377   5.714   4.378  1.5528  0.4781 -0.4614
11847TIP3    H256957   5.333   5.738   4.521  0.1098  3.2628 -1.2971
11848TIP3   OH256958   3.790   2.889  15.523 -0.2263  0.2549 -0.2391
11848TIP3    H156959   3.848   2.824  15.563 -0.5097  0.0048 -0.2364
11848TIP3    H256960   3.846   2.935  15.460  0.0693  0.2587  0.0272
11849TIP3   OH256961   6.354   2.373   2.231  0.4097 -0.0692  0.0375
11849TIP3    H156962   6.439   2.335   2.253  0.0853 -1.1762 -0.5639
11849TIP3    H256963   6.293   2.331   2.291  0.1622  0.0910 -0.1021
11850TIP3   OH256964   6.064   5.210   1.097  0.1529  0.1818 -0.8490
11850TIP3    H156965   6.133   5.276   1.102  0.0168  0.2265  2.4177
11850TIP3    H256966   5.986   5.255   1.129 -0.0052 -1.3934  1.2019
11851TIP3   OH256967   6.099   0.835   4.749 -0.2865 -0.3001 -0.2403
11851TIP3    H156968   6.063   0.747   4.761 -1.5975  0.3273  0.5949
11851TIP3    H256969   6.121   0.864   4.838 -0.3049  0.4011 -0.4574
11852TIP3   OH256970   0.480   0.933   3.986 -0.5612 -0.0196  0.0792
11852TIP3    H156971   0.573   0.929   3.964 -0.7255 -3.2151 -0.4730
11852TIP3    H256972   0.448   1.011   3.939  1.5675  0.4300 -0.7390
11853TIP3   OH256973   3.339   1.035  14.942 -0.0866  0.3772  0.3895
11853TIP3    H156974   3.306   1.024  14.852  1.7233  1.7006 -0.4923
11853TIP3    H256975   3.327   1.129  14.960 -0.1803  0.1712  1.4416
11854TIP3   OH256976   6.276   1.324   1.116  0.1413  0.2353 -0.1526
11854TIP3    H156977   6.211   1.299   1.181 -0.3557  0.2692 -0.6337
11854TIP3    H256978   6.238   1.297   1.032 -0.5530  2.8463 -0.7590
11855TIP3   OH256979   5.156   1.371  12.747 -0.3043 -0.1021  0.0283
11855TIP3    H156980   5.106   1.411  12.818 -0.0297 -1.0959  0.7991
11855TIP3    H256981   5.145   1.431  12.674 -1.1638  0.5917  0.7024
11856TIP3   OH256982   2.590   0.339  13.849 -0.5655  0.0410  0.2212
11856TIP3    H156983   2.639   0.257  13.862 -0.0186 -0.0070 -1.8534
11856TIP3    H256984   2.601   0.385  13.932  2.1774 -0.4272  0.2355
11857TIP3   OH256985   4.483   0.911   1.272  0.1101 -0.1792 -0.1180
11857TIP3    H156986   4.524   0.934   1.189  0.2075 -0.5095 -0.1628
11857TIP3    H256987   4.405   0.966   1.275 -0.7323 -1.2484 -1.1624
11858TIP3   OH256988   4.632   6.038  11.063 -0.1763  0.0394 -0.3925
11858TIP3    H156989   4.613   5.971  10.997  2.0427 -1.7416  0.6602
11858TIP3    H256990   4.686   6.103  11.017 -0.1315 -0.2595 -0.7593
11859TIP3   OH256991   5.675   0.619   6.180  0.7643  0.2929 -0.3634
11859TIP3    H156992   5.582   0.603   6.195  0.3950  1.1888 -1.4861
11859TIP3    H256993   5.705   0.660   6.261  0.5298 -1.2443  0.5342
11860TIP3   OH256994   3.877   5.505   3.200  0.2740 -0.2980  0.3902
11860TIP3    H156995   3.807   5.457   3.243 -0.0931 -0.6715 -0.5806
11860TIP3    H256996   3.854   5.501   3.107  1.3390 -0.0228  0.1048
11861TIP3   OH256997   2.070   5.812  16.110 -0.0537  0.3468 -0.3117
11861TIP3    H156998   2.130   5.846  16.176 -0.0281  0.1239 -0.2189
11861TIP3    H256999   2.004   5.880  16.099  0.0769  0.4859 -0.2297
11862TIP3   OH257000   5.610   4.619  14.458  0.3307  0.1231 -0.0046
11862TIP3    H157001   5.530   4.570  14.477  0.2782  0.8323  1.7420
11862TIP3    H257002   5.628   4.601  14.365 -2.1798  0.4213 -0.6123
11863TIP3   OH257003   1.909   6.207  14.175  0.0015 -0.5182 -0.0695
11863TIP3    H157004   1.896   6.296  14.209  2.4438  0.7667 -2.1757
11863TIP3    H257005   2.004   6.200  14.163 -0.3173 -2.7181 -1.8042
11864TIP3   OH257006   4.150   4.495   2.438 -0.1012  0.5055  0.1193
11864TIP3    H157007   4.100   4.512   2.517  0.2579  1.4091  0.1659
11864TIP3    H257008   4.158   4.581   2.395  2.3254  0.6414  0.6767
11865TIP3   OH257009   4.282   3.147   4.442  0.3885  0.3747  0.0597
11865TIP3    H157010   4.340   3.202   4.389 -1.6026  1.6087 -0.9546
11865TIP3    H257011   4.242   3.207   4.505  1.2209 -0.7236  1.7073
11866TIP3   OH257012   3.819   2.995  15.113 -1.0139  0.3158 -0.0297
11866TIP3    H157013   3.741   3.032  15.072 -0.4898  0.3087 -1.0951
11866TIP3    H257014   3.818   2.903  15.087 -0.9684  0.1763  0.4572
11867TIP3   OH257015   2.294   3.177  16.857  0.4351 -0.0126 -0.4208
11867TIP3    H157016   2.303   3.137  16.944 -0.8932  0.5187 -0.0172
11867TIP3    H257017   2.267   3.105  16.800  0.2560 -0.1480 -0.1676
11868TIP3   OH257018   1.983   1.441  13.580  0.0637 -0.0737  0.1583
11868TIP3    H157019   1.927   1.368  13.606 -0.1565  0.1518  0.3244
11868TIP3    H257020   1.990   1.495  13.658 -0.9957  0.8660 -0.3576
11869TIP3   OH257021   0.686   6.638   0.941  0.3385 -0.7496  0.2164
11869TIP3    H157022   0.710   6.546   0.938 -0.1434 -0.8627 -1.3885
11869TIP3    H257023   0.743   6.680   0.877 -0.1752 -0.1267  0.1548
11870TIP3   OH257024   0.318   4.738   5.422  0.1089 -0.1133  0.1358
11870TIP3    H157025   0.228   4.708   5.413 -0.4148  1.4959 -0.4207
11870TIP3    H257026   0.313   4.812   5.482  1.5130 -1.7077  2.3756
11871TIP3   OH257027   2.750   6.790  12.541 -0.4568 -0.0040  0.0937
11871TIP3    H157028   2.687   6.781  12.612  2.0936 -0.8668  2.4163
11871TIP3    H257029   2.715   6.735  12.471 -2.7671  0.4024  0.8281
11872TIP3   OH257030   0.523   5.704  13.550 -0.1293 -0.2844  0.2811
11872TIP3    H157031   0.578   5.780  13.534 -1.7428  0.5726 -1.8150
11872TIP3    H257032   0.554   5.638  13.487 -0.1700 -0.5372  0.5243
11873TIP3   OH257033   2.938   2.358  11.240 -0.1425  0.3175 -0.3571
11873TIP3    H157034   2.940   2.321  11.328  0.7503  0.3979 -0.3434
11873TIP3    H257035   2.957   2.451  11.253 -0.8715  0.5054 -0.5532
11874TIP3   OH257036   3.663   4.834   3.903  0.4435  0.1418  0.0656
11874TIP3    H157037   3.737   4.884   3.937  0.1313  0.7217 -0.1058
11874TIP3    H257038   3.696   4.744   3.899  1.2393  0.4329 -0.2918
11875TIP3   OH257039   4.269   3.146   5.297 -0.4413  0.4987  0.2806
11875TIP3    H157040   4.204   3.143   5.367  0.5974  0.0297  1.2556
11875TIP3    H257041   4.293   3.238   5.290  0.0077  0.4545  1.0937
11876TIP3   OH257042   2.640   5.183  16.101  0.8146  0.0859 -0.0992
11876TIP3    H157043   2.634   5.089  16.118 -1.6433  0.4820  1.8504
11876TIP3    H257044   2.603   5.194  16.014 -0.4376 -0.6519  0.2990
11877TIP3   OH257045   1.065   2.686  11.825  0.4874 -0.2062  0.3747
11877TIP3    H157046   0.975   2.653  11.821 -0.1148  1.0902  2.0286
11877TIP3    H257047   1.074   2.740  11.746 -0.0100 -0.7304 -0.0538
11878TIP3   OH257048   2.977   4.747  15.533 -0.0086 -0.0965 -0.2543
11878TIP3    H157049   2.914   4.815  15.512 -0.0723 -0.3086 -0.7709
11878TIP3    H257050   2.994   4.757  15.627  1.0149  1.4998 -0.5794
11879TIP3   OH257051   6.464   0.212  16.907  0.2723 -0.2317 -0.1288
11879TIP3    H157052   6.510   0.192  16.825 -0.0226 -2.6728  0.2349
11879TIP3    H257053   6.533   0.242  16.966  0.5226  1.3424 -1.1707
11880TIP3   OH257054   3.503   0.789  14.873  0.0962 -0.3011 -0.0716
11880TIP3    H157055   3.462   0.848  14.935 -0.4090 -0.0244 -0.6653
11880TIP3    H257056   3.505   0.837  14.791 -0.4407 -1.1499 -0.5972
11881TIP3   OH257057   4.340   0.224  10.538 -0.2779 -0.1676  0.1349
11881TIP3    H157058   4.310   0.209  10.628  0.0877  1.2858  0.5262
11881TIP3    H257059   4.432   0.197  10.538 -1.0625 -3.2179 -0.6845
11882TIP3   OH257060   4.432   5.352  13.003  0.0523  0.7159  0.5356
11882TIP3    H157061   4.364   5.363  12.936  1.6778 -1.7347 -1.7054
11882TIP3    H257062   4.490   5.427  12.991 -0.2944  0.9035 -0.0261
11883TIP3   OH257063   1.332   2.793  16.539 -0.2829 -0.0867  0.0050
11883TIP3    H157064   1.261   2.804  16.475 -0.5853  1.2445  0.5366
11883TIP3    H257065   1.350   2.699  16.539 -0.5073 -0.1773 -1.7784
11884TIP3   OH257066   5.453   2.731  12.988 -0.0203  0.6470  0.1797
11884TIP3    H157067   5.512   2.737  12.912  0.2975 -1.1886  0.2306
11884TIP3    H257068   5.375   2.689  12.954 -0.2802  0.7351  0.6640
11885TIP3   OH257069   1.363   3.178  11.679 -0.1965  0.0943  0.1164
11885TIP3    H157070   1.281   3.182  11.728 -0.9081 -1.4631 -0.8796
11885TIP3    H257071   1.398   3.091  11.699  0.6269  0.3048 -0.3846
11886TIP3   OH257072   6.436   0.969   6.091 -0.2559  0.6610 -0.0094
11886TIP3    H157073   6.396   0.949   6.006 -0.2925  0.4764  0.0524
11886TIP3    H257074   6.518   0.919   6.091 -0.5218  0.2222  0.2945
11887TIP3   OH257075   1.383   2.240  14.040  0.3344  0.0487 -0.8918
11887TIP3    H157076   1.473   2.228  14.071  0.4421  2.1178 -0.2135
11887TIP3    H257077   1.329   2.195  14.104  0.8539 -0.5563 -0.8735
11888TIP3   OH257078   4.993   1.433  17.113  0.4526  0.3865 -0.5461
11888TIP3    H157079   4.973   1.405  17.203 -0.2667 -1.3429 -1.1859
11888TIP3    H257080   4.918   1.486  17.087  0.7072  0.9693 -0.0997
11889TIP3   OH257081   3.662   4.886  13.854 -0.6358 -0.0974  0.5364
11889TIP3    H157082   3.605   4.814  13.828  0.7410 -1.1609  0.4337
11889TIP3    H257083   3.726   4.847  13.913  0.8937  0.7593 -0.4827
11890TIP3   OH257084   6.263   3.106   4.508 -0.2877  0.2319 -0.0535
11890TIP3    H157085   6.208   3.180   4.480  0.3627  0.7008 -0.1066
11890TIP3    H257086   6.241   3.094   4.601 -1.0362 -0.0838 -0.2616
11891TIP3   OH257087   1.049   1.061   5.441 -0.0093  0.2692 -0.6008
11891TIP3    H157088   1.127   1.012   5.467 -1.4640 -2.7270 -1.3619
11891TIP3    H257089   0.996   1.067   5.520 -1.2582 -2.4822 -1.1049
11892TIP3   OH257090   0.405   3.738   4.248 -0.0370 -0.2428  0.2060
11892TIP3    H157091   0.467   3.811   4.243 -0.3480  0.0368  0.4258
11892TIP3    H257092   0.362   3.748   4.333  0.0909 -0.8244  0.3485
11893TIP3   OH257093   4.915   2.791  12.967 -0.2894  0.3540 -0.0914
11893TIP3    H157094   4.862   2.744  12.903 -0.4773 -0.4184  0.6135
11893TIP3    H257095   4.862   2.867  12.991  0.3338  1.3982 -1.7985
11894TIP3   OH257096   4.950   5.089  16.406  0.8009 -0.2614 -0.2398
11894TIP3    H157097   5.003   5.053  16.335  0.4340 -0.2227 -0.5449
11894TIP3    H257098   4.929   5.178  16.376  1.2342  0.0044  0.2434
11895TIP3   OH257099   1.543   4.990   1.645 -0.9056 -0.1763  0.0498
11895TIP3    H157100   1.576   4.925   1.583 -0.7801 -2.0642  2.0127
11895TIP3    H257101   1.501   4.939   1.714  1.6395  1.6097  3.1665
11896TIP3   OH257102   3.479   1.702   4.508  0.1309  0.1723 -0.0652
11896TIP3    H157103   3.423   1.673   4.581 -1.2626  2.1031 -0.2843
11896TIP3    H257104   3.430   1.773   4.467  1.4438 -0.0439 -2.1608
11897TIP3   OH257105   3.606   1.560   1.049 -0.1435 -0.0616 -0.5066
11897TIP3    H157106   3.554   1.638   1.028  0.9120  1.0849  0.8590
11897TIP3    H257107   3.694   1.582   1.020 -0.1767 -1.5506 -1.8222
11898TIP3   OH257108   2.260   6.368   1.025 -0.3687  0.0312  0.0612
11898TIP3    H157109   2.209   6.423   0.966  0.4647  0.5261 -0.2183
11898TIP3    H257110   2.344   6.357   0.981 -0.2986 -0.9358  0.4198
11899TIP3   OH257111   1.141   4.577   2.438  0.3463 -0.6198  0.1242
11899TIP3    H157112   1.225   4.550   2.402  0.0356 -0.8602 -0.4356
11899TIP3    H257113   1.158   4.659   2.483  0.5027  0.3510 -1.6334
11900TIP3   OH257114   0.807   3.250   0.041 -0.0495 -0.0435  0.4966
11900TIP3    H157115   0.849   3.333   0.063 -1.0714  0.3772  0.9257
11900TIP3    H257116   0.841   3.189   0.107  2.8702 -0.7358 -1.4388
11901TIP3   OH257117   1.492   1.637  15.144  0.2216 -0.3267 -0.7868
11901TIP3    H157118   1.496   1.543  15.160  0.9172 -0.1708  0.0085
11901TIP3    H257119   1.413   1.665  15.190  0.5865 -0.3597 -0.1305
11902TIP3   OH257120   5.365   3.324  11.559  0.2584  0.5691  0.5210
11902TIP3    H157121   5.433   3.337  11.492  1.0480 -0.1551  1.1558
11902TIP3    H257122   5.413   3.322  11.642  0.0214 -3.4454  0.7717
11903TIP3   OH257123   3.688   5.226   4.035  0.2402  0.3972 -0.0450
11903TIP3    H157124   3.606   5.251   4.077  0.2529  2.6939 -1.2199
11903TIP3    H257125   3.741   5.190   4.106 -1.3002 -0.0076  0.9708
11904TIP3   OH257126   2.037   3.034  16.724 -0.4066  0.2382  0.5395
11904TIP3    H157127   2.007   2.995  16.807  1.6017  1.1229  1.7511
11904TIP3    H257128   2.032   2.963  16.661  0.3235 -1.1776  1.9993
11905TIP3   OH257129   3.393   5.002   4.408 -0.6072  0.0619  0.0045
11905TIP3    H157130   3.409   5.054   4.487  0.5506  2.1984 -1.5466
11905TIP3    H257131   3.475   4.954   4.394 -1.1967 -1.1781  0.6707
11906TIP3   OH257132   2.829   0.087  15.500  0.9573  0.2324 -0.1546
11906TIP3    H157133   2.796   0.126  15.419  1.7199 -0.4807 -0.8202
11906TIP3    H257134   2.870   0.160  15.547  3.8171  0.0641 -2.1195
11907TIP3   OH257135   5.294   6.553  11.936  0.2292 -0.6169 -0.5816
11907TIP3    H157136   5.275   6.487  11.869 -1.2553  0.4914 -1.3311
11907TIP3    H257137   5.385   6.577  11.920 -0.2568  0.0843 -2.6923
11908TIP3   OH257138   1.248   4.617  10.271 -0.5313  0.3295  0.0861
11908TIP3    H157139   1.185   4.688  10.253  0.1414  1.2998  1.3882
11908TIP3    H257140   1.275   4.632  10.362  1.6969  0.0291 -0.4873
11909TIP3   OH257141   2.730   4.398   6.051  0.1103  0.5393 -0.0929
11909TIP3    H157142   2.785   4.373   5.977  1.0211 -0.9423  1.0417
11909TIP3    H257143   2.780   4.467   6.096  0.6445 -0.1703  0.4215
11910TIP3   OH257144   6.353   1.035   3.955  0.3360 -0.3186  0.8214
11910TIP3    H157145   6.377   1.000   4.041  1.7821 -0.3735  0.4355
11910TIP3    H257146   6.396   1.121   3.952  0.1465 -0.2397  0.2374
11911TIP3   OH257147   4.431   0.658  14.952  0.6738  0.8191 -0.5828
11911TIP3    H157148   4.438   0.685  15.043  1.2213  0.2362 -0.4464
11911TIP3    H257149   4.507   0.602  14.937 -0.1087 -0.1566 -1.0280
11912TIP3   OH257150   0.909   6.003   1.435 -0.1814 -0.0967 -0.0361
11912TIP3    H157151   0.831   5.963   1.398  0.2048 -2.8962  1.8557
11912TIP3    H257152   0.982   5.960   1.390  0.3231  1.3294 -0.6515
11913TIP3   OH257153   5.736   0.350  16.378 -0.3485 -0.0724 -0.1831
11913TIP3    H157154   5.736   0.322  16.286  1.5694  0.0265 -0.2471
11913TIP3    H257155   5.685   0.282  16.423 -0.0304 -0.9469 -1.0870
11914TIP3   OH257156   3.443   4.935   4.070  0.0853  0.2737 -0.0436
11914TIP3    H157157   3.478   4.887   4.145 -0.9736  2.3136  1.8905
11914TIP3    H257158   3.507   4.922   4.000  0.9580 -1.9805  1.0831
11915TIP3   OH257159   6.354   4.930  13.509 -0.1924 -0.3501 -0.1349
11915TIP3    H157160   6.404   4.929  13.428  0.2675  0.8808  0.1157
11915TIP3    H257161   6.264   4.950  13.481 -0.0125  0.1914 -0.3263
11916TIP3   OH257162   3.221   4.878  12.666  0.5461 -0.0462 -0.0209
11916TIP3    H157163   3.232   4.932  12.587  1.8885 -1.2904 -0.7409
11916TIP3    H257164   3.161   4.808  12.639 -0.0055  0.2403  0.4521
11917TIP3   OH257165   5.819   1.899   2.570 -0.3260 -0.2391  0.2725
11917TIP3    H157166   5.902   1.947   2.575  0.3284 -1.4012  1.1899
11917TIP3    H257167   5.842   1.816   2.528 -1.1599 -0.3126 -0.0508
11918TIP3   OH257168   3.153   5.551   1.791  0.0125  0.2248 -0.6957
11918TIP3    H157169   3.099   5.475   1.766  1.5038 -0.1543 -3.1621
11918TIP3    H257170   3.242   5.516   1.793  0.3608  1.1011  2.0982
11919TIP3   OH257171   3.450   4.571  13.524  0.3889 -0.0337  0.1089
11919TIP3    H157172   3.414   4.482  13.516  1.1627 -0.5966  2.2095
11919TIP3    H257173   3.540   4.563  13.492  0.2411  0.1940 -0.3831
11920TIP3   OH257174   6.410   1.280  16.834 -0.3748 -0.0278 -0.1376
11920TIP3    H157175   6.472   1.299  16.763 -0.6425 -1.5173 -0.8064
11920TIP3    H257176   6.425   1.188  16.855 -2.1366 -0.3505 -0.1115
11921TIP3   OH257177   6.386   4.847   5.616 -0.0405 -0.1025  0.0786
11921TIP3    H157178   6.373   4.752   5.612 -0.8617 -0.0289  0.7111
11921TIP3    H257179   6.413   4.863   5.707 -4.5454  0.7508  1.5280
11922TIP3   OH257180   0.720   0.236   5.641 -0.5605 -0.4077 -0.0875
11922TIP3    H157181   0.632   0.258   5.673  0.6750  0.2248  3.2738
11922TIP3    H257182   0.758   0.320   5.616 -0.4902 -0.5269 -0.3867
11923TIP3   OH257183   1.603   6.584  11.968 -0.4954  0.2173 -0.2202
11923TIP3    H157184   1.659   6.641  12.021 -0.5398  1.2417 -1.2326
11923TIP3    H257185   1.648   6.500  11.967  1.0248  1.0082 -0.9835
11924TIP3   OH257186   4.794   5.335   0.952  0.3407  0.0738 -0.0101
11924TIP3    H157187   4.845   5.258   0.927  0.9748  0.4204  0.1886
11924TIP3    H257188   4.854   5.409   0.938  0.1814  0.4114  0.9962
11925TIP3   OH257189   5.192   5.279  14.126  0.4712  0.2506 -0.3235
11925TIP3    H157190   5.185   5.236  14.041 -0.6590  1.1814 -0.7256
11925TIP3    H257191   5.122   5.239  14.178  0.5461  0.3526 -0.1439
11926TIP3   OH257192   6.751   4.869  16.063  0.9376  0.0843 -0.2528
11926TIP3    H157193   6.705   4.939  16.110  0.4359 -0.1435 -0.3965
11926TIP3    H257194   6.837   4.906  16.044  0.5787  0.7741 -0.5776
11927TIP3   OH257195   0.440   5.310   4.862 -0.3806 -0.1347 -0.3633
11927TIP3    H157196   0.382   5.306   4.786  0.2008  1.0546 -0.8947
11927TIP3    H257197   0.477   5.398   4.859  1.9231 -1.0322 -0.4098
11928TIP3   OH257198   0.249   4.391  16.583 -0.2759 -0.1634  0.2330
11928TIP3    H157199   0.232   4.312  16.533 -0.3645  0.5838 -0.9414
11928TIP3    H257200   0.192   4.458  16.545 -0.0245  0.5374  1.0388
11929TIP3   OH257201   2.451   6.762  16.186  0.2871 -0.1301 -0.6891
11929TIP3    H157202   2.501   6.695  16.233  0.0731 -1.1005 -1.7947
11929TIP3    H257203   2.512   6.794  16.118 -0.2347 -0.5927 -1.3925
11930TIP3   OH257204   6.276   1.486  14.456  0.0477  0.4061  0.3507
11930TIP3    H157205   6.280   1.442  14.541 -0.4158  0.7748  0.5630
11930TIP3    H257206   6.183   1.498  14.438  0.1459  0.5332 -0.1088
11931TIP3   OH257207   0.293   5.465  17.165 -0.2286  0.3703 -0.0111
11931TIP3    H157208   0.341   5.536  17.123 -1.7700  0.7126 -1.2892
11931TIP3    H257209   0.208   5.504  17.188 -0.1732 -0.3787  1.6081
11932TIP3   OH257210   2.593   6.563  12.490  0.4188  0.7482 -0.4747
11932TIP3    H157211   2.517   6.523  12.447 -0.0006  0.1359  0.7685
11932TIP3    H257212   2.651   6.490  12.509  0.1661  0.8427  0.8040
11933TIP3   OH257213   2.877   1.264  13.280  0.0084 -0.0988 -0.0414
11933TIP3    H157214   2.784   1.246  13.270  0.1656 -0.1607 -1.7720
11933TIP3    H257215   2.910   1.193  13.335 -0.8861 -0.3012  0.2516
11934TIP3   OH257216   1.978   6.401  10.593 -0.1046  0.4153  0.7782
11934TIP3    H157217   2.059   6.363  10.560 -0.8374 -0.7038  0.2251
11934TIP3    H257218   1.928   6.422  10.515 -1.0911 -0.5384  1.1445
11935TIP3   OH257219   4.050   3.909  11.146 -0.2988  0.6011  0.2980
11935TIP3    H157220   4.053   3.829  11.198  1.4604  0.6542  0.3249
11935TIP3    H257221   4.129   3.906  11.093 -0.6812  1.8826 -0.3769
11936TIP3   OH257222   1.695   1.698   5.960 -0.1697 -0.3822  0.3032
11936TIP3    H157223   1.745   1.734   6.033 -0.7536  0.8516  0.1129
11936TIP3    H257224   1.610   1.675   5.997  0.1260 -1.4061  0.3776
11937TIP3   OH257225   2.059   0.714   2.905  0.6992  0.4416  0.0327
11937TIP3    H157226   2.058   0.723   3.000  0.1572 -0.6019  0.1462
11937TIP3    H257227   2.151   0.707   2.882  0.8084  0.1853  0.5456
11938TIP3   OH257228   1.975   5.337  16.114  0.1488  0.0585  0.4976
11938TIP3    H157229   1.926   5.419  16.104  0.3279  0.1272  0.1746
11938TIP3    H257230   2.054   5.350  16.062 -0.9588 -1.2643 -1.6294
11939TIP3   OH257231   2.960   0.679  16.790  0.1915 -0.1154  0.0277
11939TIP3    H157232   3.031   0.718  16.738 -0.0299  0.6087  0.2686
11939TIP3    H257233   2.969   0.584  16.774  0.5246  0.0463 -0.8151
11940TIP3   OH257234   6.092   6.454   0.459 -0.2529 -0.2365 -0.2323
11940TIP3    H157235   6.119   6.473   0.549 -0.9182 -3.0787  0.6699
11940TIP3    H257236   6.099   6.359   0.451  0.2609 -0.0350 -3.3830
11941TIP3   OH257237   2.986   4.226   1.539 -0.4199 -0.1586 -0.0979
11941TIP3    H157238   2.918   4.232   1.472 -0.5578 -1.5358 -0.1204
11941TIP3    H257239   3.053   4.170   1.500 -0.3002 -0.6285  0.7481
11942TIP3   OH257240   0.299   0.084   3.857  0.5661  0.6837  0.1374
11942TIP3    H157241   0.242   0.128   3.920  0.1082  1.3738 -0.7449
11942TIP3    H257242   0.243   0.017   3.817  0.7173  0.5690  0.1178
11943TIP3   OH257243   0.288   0.513  16.875 -0.6781 -0.1128  0.0857
11943TIP3    H157244   0.364   0.456  16.868 -0.1507  0.0421  3.1832
11943TIP3    H257245   0.292   0.567  16.796  1.6495 -1.0097 -0.5096
11944TIP3   OH257246   5.568   5.546   0.538 -0.0767 -0.1422 -0.0112
11944TIP3    H157247   5.540   5.542   0.630 -0.1321  1.3290  0.0596
11944TIP3    H257248   5.650   5.595   0.541  0.4812 -1.0044 -0.6553
11945TIP3   OH257249   3.051   0.082   0.868 -0.0999 -0.0425 -0.0848
11945TIP3    H157250   3.109   0.007   0.882  1.1728  0.8315 -0.4447
11945TIP3    H257251   2.972   0.045   0.829  0.6922 -1.1487 -0.6898
11946TIP3   OH257252   1.752   2.777   2.062  0.3026 -0.6004 -0.3981
11946TIP3    H157253   1.738   2.748   2.153  0.8473 -0.4350 -0.2584
11946TIP3    H257254   1.678   2.740   2.014 -2.1091  2.2812  0.7406
11947TIP3   OH257255   4.967   5.520   0.905  0.5417  0.4593  0.1539
11947TIP3    H157256   4.963   5.592   0.842  0.1665 -0.8284 -1.3576
11947TIP3    H257257   5.059   5.494   0.905  0.5590  0.5185  0.2243
11948TIP3   OH257258   3.125   2.421   1.101 -0.1019  0.2274 -0.2942
11948TIP3    H157259   3.061   2.483   1.135  1.3821  1.0091  1.2381
11948TIP3    H257260   3.204   2.473   1.085  0.6662 -0.9699 -0.6034
11949TIP3   OH257261   4.512   6.411   1.483 -0.3225 -0.0147 -0.0750
11949TIP3    H157262   4.576   6.411   1.412  0.0692  1.2190  0.2483
11949TIP3    H257263   4.522   6.497   1.524 -1.7916 -0.0128  0.3429
11950TIP3   OH257264   2.064   4.496   4.441  0.4470 -0.2495 -0.3399
11950TIP3    H157265   2.141   4.529   4.395 -0.6437 -0.2150 -2.3010
11950TIP3    H257266   2.003   4.570   4.441  0.6505 -0.0390  1.8491
11951TIP3   OH257267   6.614   5.379  15.273 -0.3229  0.1285  0.0939
11951TIP3    H157268   6.618   5.283  15.281  0.4298  0.1423 -0.0319
11951TIP3    H257269   6.671   5.411  15.342  1.2844  0.4095 -1.3019
11952TIP3   OH257270   1.623   0.755   0.722  0.0873  0.5652 -0.4896
11952TIP3    H157271   1.664   0.754   0.809  0.0560  0.6006 -0.4748
11952TIP3    H257272   1.599   0.664   0.706 -1.0421  0.7496  0.0696
11953TIP3   OH257273   2.309   0.516   3.083 -0.1160 -0.0227 -0.0480
11953TIP3    H157274   2.325   0.583   3.016 -0.0715  0.3215  0.3060
11953TIP3    H257275   2.219   0.486   3.066  0.5978 -1.5002 -1.6327
11954TIP3   OH257276   4.307   2.958  15.753  0.1572  0.1365  0.5551
11954TIP3    H157277   4.309   3.003  15.669  1.6390  0.7665  0.9021
11954TIP3    H257278   4.319   2.866  15.732  0.7943  0.3201  0.0859
11955TIP3   OH257279   1.047   0.089  12.394  0.9486 -0.1125 -0.1976
11955TIP3    H157280   1.142   0.079  12.403  1.0262  1.0144  0.5268
11955TIP3    H257281   1.036   0.145  12.317  0.8052 -1.1498 -0.9440
11956TIP3   OH257282   5.561   6.689  11.880 -0.5602 -1.1307  0.8124
11956TIP3    H157283   5.639   6.653  11.920 -1.4997 -3.9332  0.3603
11956TIP3    H257284   5.593   6.760  11.824  1.2552 -0.2608  2.8140
11957TIP3   OH257285   2.808   2.429  11.821  0.2719  0.4048  0.9711
11957TIP3    H157286   2.736   2.366  11.825  1.3264 -1.4292 -3.1686
11957TIP3    H257287   2.766   2.514  11.809 -1.2083 -0.2893  1.0486
11958TIP3   OH257288   3.302   1.950   3.621 -0.4191  0.3339  0.2363
11958TIP3    H157289   3.238   2.008   3.661 -2.7747 -2.7244  1.2263
11958TIP3    H257290   3.386   1.996   3.631 -2.1435  3.6812  0.4837
11959TIP3   OH257291   4.314   1.570  11.420  0.1692 -0.8118  0.0428
11959TIP3    H157292   4.388   1.573  11.359 -1.0426 -0.2429 -1.4387
11959TIP3    H257293   4.241   1.609  11.373 -0.7503 -0.0414  1.9884
11960TIP3   OH257294   5.244   2.494   0.755 -0.2538 -0.0709 -0.0970
11960TIP3    H157295   5.155   2.529   0.742 -0.3622  0.0397  0.8528
11960TIP3    H257296   5.293   2.567   0.793  0.5600  0.2149 -1.6532
11961TIP3   OH257297   1.354   5.060   2.450 -0.1156 -0.0554 -0.5022
11961TIP3    H157298   1.296   5.061   2.526  1.0692 -0.6730  0.4352
11961TIP3    H257299   1.305   5.107   2.382 -2.3599 -1.8338 -0.2480
11962TIP3   OH257300   4.868   6.031  12.048 -0.4156  0.3007 -0.1066
11962TIP3    H157301   4.881   6.007  11.957 -0.7581  0.6861 -0.2608
11962TIP3    H257302   4.956   6.035  12.085 -0.0753  2.4167 -1.0029
11963TIP3   OH257303   2.770   3.274  11.849  0.1830  0.3384  0.0222
11963TIP3    H157304   2.830   3.326  11.903  0.1169 -0.0068  0.4307
11963TIP3    H257305   2.823   3.200  11.820  0.0255  0.1662  0.1752
11964TIP3   OH257306   0.117   3.477  16.497 -0.0185  0.0276  0.2664
11964TIP3    H157307   0.066   3.487  16.416  0.4671 -0.0406 -0.0556
11964TIP3    H257308   0.188   3.541  16.487  0.3607 -0.3751  0.3860
11965TIP3   OH257309   1.728   1.002  12.461  0.2094  0.6405 -0.0072
11965TIP3    H157310   1.741   0.975  12.370  0.1129  0.4996  0.0204
11965TIP3    H257311   1.694   1.091  12.456  0.2929  0.6656 -0.1066
11966TIP3   OH257312   6.255   1.322   5.997  0.3379  0.6028  0.7237
11966TIP3    H157313   6.340   1.316   6.041  0.0309  1.9832  1.5692
11966TIP3    H257314   6.192   1.335   6.067 -0.5136  0.2410  0.0544
11967TIP3   OH257315   0.084   5.842   5.786 -0.6796 -0.1843  0.4024
11967TIP3    H157316   0.147   5.850   5.715 -1.6280  1.8534 -0.2704
11967TIP3    H257317   0.088   5.749   5.811  0.7591 -0.6244 -1.2664
11968TIP3   OH257318   3.219   4.899  10.076  0.3285  0.2351 -0.7252
11968TIP3    H157319   3.158   4.907  10.149 -1.4492  2.0830 -2.2880
11968TIP3    H257320   3.195   4.818  10.032  0.5432 -0.2131 -0.0239
11969TIP3   OH257321   0.381   2.103  15.445 -0.3911  0.1376  0.5020
11969TIP3    H157322   0.340   2.024  15.480 -1.0909  0.5703  0.6911
11969TIP3    H257323   0.314   2.142  15.389  0.1501  0.3064 -0.0385
11970TIP3   OH257324   3.759   2.186   1.225  0.3941 -0.1246  0.0133
11970TIP3    H157325   3.733   2.214   1.137 -0.1464  0.1541  0.2661
11970TIP3    H257326   3.793   2.265   1.267  0.3934 -0.1996  0.1561
11971TIP3   OH257327   5.258   6.377   3.834 -0.3222 -0.0682 -0.2886
11971TIP3    H157328   5.210   6.448   3.790  0.2302  0.1181 -0.6015
11971TIP3    H257329   5.225   6.297   3.792  0.0809  0.0981 -0.9546
11972TIP3   OH257330   5.269   4.126  11.423 -0.6127 -0.1986 -0.0184
11972TIP3    H157331   5.251   4.152  11.513  1.9557 -1.1255  0.8602
11972TIP3    H257332   5.264   4.031  11.424 -0.2392 -0.2355 -0.7767
11973TIP3   OH257333   4.875   6.601   1.089 -0.1205  0.0319 -0.3768
11973TIP3    H157334   4.877   6.609   0.994 -1.5833  1.5119 -0.3235
11973TIP3    H257335   4.967   6.608   1.116  0.3618 -0.8710 -1.6727
11974TIP3   OH257336   1.012   2.242  16.614  0.0005  0.2550 -0.4177
11974TIP3    H157337   0.992   2.251  16.707  0.8352 -0.4681 -0.1594
11974TIP3    H257338   0.999   2.150  16.595  1.2357  0.1075 -0.6589
11975TIP3   OH257339   5.118   6.222   1.707  0.3284 -0.0495 -0.5611
11975TIP3    H157340   5.144   6.185   1.792  0.3438 -0.3061 -0.6751
11975TIP3    H257341   5.029   6.255   1.721  0.7993  1.0734 -0.0932
11976TIP3   OH257342   6.203   4.245  16.662 -0.7416  0.5621  0.1356
11976TIP3    H157343   6.149   4.322  16.647 -1.9004  0.4718  3.1891
11976TIP3    H257344   6.176   4.212  16.748  0.1872 -2.8686 -0.7014
11977TIP3   OH257345   4.180   3.110  11.578 -0.6446  0.4309 -0.4007
11977TIP3    H157346   4.113   3.115  11.510 -1.3730  2.2453  0.3905
11977TIP3    H257347   4.131   3.099  11.659  0.0984  0.4341  0.0569
11978TIP3   OH257348   6.645   4.461  10.983  0.3137  0.1501 -0.2551
11978TIP3    H157349   6.696   4.381  10.969  0.4110  0.5072 -2.2500
11978TIP3    H257350   6.711   4.528  10.998  0.3732  0.2851 -1.0612
11979TIP3   OH257351   2.932   1.811  13.435 -0.2856  0.2745  0.1383
11979TIP3    H157352   3.008   1.829  13.380  0.5702  0.7002  1.4236
11979TIP3    H257353   2.924   1.716  13.435 -0.7749  0.2958 -1.3230
11980TIP3   OH257354   6.379   4.838  17.035 -0.8059 -1.1405  0.3437
11980TIP3    H157355   6.334   4.920  17.052 -0.6125 -0.8112 -0.6678
11980TIP3    H257356   6.316   4.770  17.059 -1.0129 -0.7081  1.0595
11981TIP3   OH257357   0.282   6.206  15.733  0.3812 -0.1734 -0.2037
11981TIP3    H157358   0.316   6.216  15.822 -0.2473 -0.6133  0.1011
11981TIP3    H257359   0.311   6.284  15.687  0.7239  0.0579  0.3902
11982TIP3   OH257360   0.695   3.627   4.360 -0.0038 -0.4726 -0.2810
11982TIP3    H157361   0.661   3.649   4.446  0.2880 -1.5581  0.1258
11982TIP3    H257362   0.688   3.708   4.310 -0.6058  0.0445  0.6186
11983TIP3   OH257363   1.438   4.626  12.462  0.1519 -0.5219  0.1343
11983TIP3    H157364   1.449   4.620  12.557 -1.5457  1.1204  0.4880
11983TIP3    H257365   1.412   4.717  12.446  2.0811 -0.2693 -2.1195
11984TIP3   OH257366   4.908   1.874  14.708 -0.2185  0.3114  0.0732
11984TIP3    H157367   4.859   1.936  14.654  0.2344  1.1389  0.5867
11984TIP3    H257368   4.975   1.840  14.650 -2.2990 -2.0449 -1.1268
11985TIP3   OH257369   1.191   5.103   6.279  0.6310 -0.1295  0.1981
11985TIP3    H157370   1.158   5.159   6.208  0.2671 -0.4305  0.1275
11985TIP3    H257371   1.286   5.104   6.267  0.8287  2.1697  1.4629
11986TIP3   OH257372   5.458   6.297   6.459  0.3491 -0.3328  0.5878
11986TIP3    H157373   5.425   6.376   6.417  0.5146 -1.3015 -1.5422
11986TIP3    H257374   5.552   6.312   6.468  0.4974 -0.5105 -0.4643
11987TIP3   OH257375   0.896   5.157   3.285  0.3025 -0.3107  0.0830
11987TIP3    H157376   0.866   5.235   3.332  2.9304  0.3295  0.8536
11987TIP3    H257377   0.930   5.099   3.354 -0.5040 -1.6564 -0.5995
11988TIP3   OH257378   1.011   0.850   0.912  0.0617 -0.4738 -0.5306
11988TIP3    H157379   0.967   0.893   0.839  0.3775 -0.0747 -0.4846
11988TIP3    H257380   0.982   0.759   0.906 -2.0728  0.0952  0.4789
11989TIP3   OH257381   2.098   6.447  10.856  0.1528  0.3819  0.6216
11989TIP3    H157382   2.153   6.526  10.854  0.6825  0.0055 -0.3770
11989TIP3    H257383   2.155   6.380  10.892  0.8049 -0.3115 -1.5612
11990TIP3   OH257384   4.690   6.423  11.674 -0.3913  0.4117 -0.5767
11990TIP3    H157385   4.598   6.445  11.690 -0.2917  0.4002  0.0307
11990TIP3    H257386   4.722   6.391  11.758 -0.2182 -0.9763 -1.1521
11991TIP3   OH257387   3.488   5.463  15.143  0.0600 -0.1168  0.1771
11991TIP3    H157388   3.516   5.551  15.170  0.0921 -0.3045  0.7829
11991TIP3    H257389   3.456   5.423  15.224 -1.6121 -0.0479 -0.4105
11992TIP3   OH257390   1.402   2.516   0.654 -0.0871  0.1637  0.0971
11992TIP3    H157391   1.373   2.434   0.694 -1.8218  1.4138  1.5887
11992TIP3    H257392   1.417   2.575   0.728  0.0976  1.5107 -0.9725
11993TIP3   OH257393   2.132   2.627  11.524 -0.1052  0.4471 -0.6973
11993TIP3    H157394   2.193   2.665  11.460 -0.4278 -0.7171 -1.7239
11993TIP3    H257395   2.091   2.554  11.478 -0.3301 -0.4464  0.8543
11994TIP3   OH257396   5.544   0.841   0.278 -0.2269 -0.4128 -0.3010
11994TIP3    H157397   5.496   0.908   0.328 -0.0442 -0.6249  0.1641
11994TIP3    H257398   5.611   0.889   0.231  0.3284 -0.3353  0.5450
11995TIP3   OH257399   2.142   2.373  15.105  0.3043 -0.4561 -0.4088
11995TIP3    H157400   2.057   2.389  15.064 -0.0269 -1.9345 -0.3786
11995TIP3    H257401   2.175   2.293  15.062  1.5963 -0.0164 -0.2953
11996TIP3   OH257402   4.907   4.876   2.293 -0.7889  0.4079  0.0964
11996TIP3    H157403   4.896   4.790   2.252 -0.1723  0.1144  0.5296
11996TIP3    H257404   4.817   4.906   2.310 -1.0105 -0.2076  0.0574
11997TIP3   OH257405   6.749   2.300   4.877 -0.1552 -0.5649  0.4639
11997TIP3    H157406   6.713   2.308   4.789  0.8025 -0.0184  0.1083
11997TIP3    H257407   6.843   2.291   4.864  0.2812  1.8180  1.4962
11998TIP3   OH257408   3.637   0.258   3.292  0.1534  0.0914 -0.5256
11998TIP3    H157409   3.685   0.192   3.243  1.3059  1.2146 -0.9899
11998TIP3    H257410   3.548   0.224   3.300  0.3757 -0.8832 -1.9145
11999TIP3   OH257411   6.116   6.512   1.046 -0.5933  0.2964  0.5899
11999TIP3    H157412   6.181   6.457   1.003 -0.2748  1.1108  0.0073
11999TIP3    H257413   6.033   6.463   1.037 -0.2353 -0.3068  0.5187
12000TIP3   OH257414   1.273   4.849   2.131  0.2735 -0.1012  0.6572
12000TIP3    H157415   1.330   4.783   2.171  1.6452 -1.0154 -2.4323
12000TIP3    H257416   1.184   4.819   2.150  0.8393 -1.0577  1.9839
12001TIP3   OH257417   3.082   4.382   3.337  0.6742  0.1269 -0.5702
12001TIP3    H157418   3.119   4.386   3.425  1.3087  5.0588 -0.7891
12001TIP3    H257419   3.139   4.322   3.289  3.9881  1.8201  0.9969
12002TIP3   OH257420   6.660   2.913  12.685 -0.0912 -0.3396 -0.2378
12002TIP3    H157421   6.708   2.840  12.646  0.7948  1.0198 -1.8152
12002TIP3    H257422   6.718   2.946  12.754 -0.2844 -0.7842  0.1494
12003TIP3   OH257423   4.116   2.853  14.924 -0.3152 -0.2574 -0.1231
12003TIP3    H157424   4.078   2.892  15.003 -2.1746  0.2875 -1.2429
12003TIP3    H257425   4.132   2.927  14.865  0.1176 -0.7665 -0.6591
12004TIP3   OH257426   4.372   2.036   0.104  0.7159 -0.0655 -0.1402
12004TIP3    H157427   4.433   2.074   0.040  0.6892 -0.2165 -0.2557
12004TIP3    H257428   4.417   1.958   0.136  0.0030 -0.9686 -1.2516
12005TIP3   OH257429   0.617   3.757   1.586 -0.3062  0.2087 -0.6727
12005TIP3    H157430   0.523   3.750   1.574 -0.2779  2.2542 -2.8371
12005TIP3    H257431   0.653   3.680   1.541 -0.8858  0.4507 -1.5745
12006TIP3   OH257432   1.925   0.357  13.289 -0.3983  0.6498  0.4511
12006TIP3    H157433   1.852   0.406  13.327 -1.9837 -1.4872  0.4103
12006TIP3    H257434   1.897   0.338  13.200  0.9896  1.2011 -0.1266
12007TIP3   OH257435   4.262   6.080   3.144  0.4183  0.4211 -0.0860
12007TIP3    H157436   4.261   6.140   3.219 -1.8686  0.0011  0.3009
12007TIP3    H257437   4.308   6.003   3.175 -0.8573  0.0876  1.0756
12008TIP3   OH257438   2.929   0.095   2.040  0.4524 -0.1769 -0.9734
12008TIP3    H157439   2.863   0.124   2.103 -0.8442 -1.6977 -1.5593
12008TIP3    H257440   2.915   0.150   1.963 -1.6319 -1.8034 -1.8774
12009TIP3   OH257441   0.100   4.432   6.002  0.4162  0.2630  0.5597
12009TIP3    H157442   0.097   4.424   6.098 -1.4262  0.8995  0.5897
12009TIP3    H257443   0.155   4.510   5.987  0.7429  0.1431  1.0807
12010TIP3   OH257444   3.734   2.667   2.815  0.1086 -0.0096  0.3306
12010TIP3    H157445   3.642   2.645   2.832 -0.0225 -1.6307 -1.9645
12010TIP3    H257446   3.738   2.762   2.822 -1.8432  0.1205  0.1403
12011TIP3   OH257447   2.430   2.098   3.918 -1.0647  0.1328  0.4159
12011TIP3    H157448   2.344   2.071   3.887 -1.6953 -0.3139  2.3898
12011TIP3    H257449   2.492   2.049   3.863 -2.0859 -0.4545 -0.2410
12012TIP3   OH257450   5.837   4.342  14.354  0.6583  0.0068 -0.6141
12012TIP3    H157451   5.853   4.359  14.261  1.0935 -0.3417 -0.6106
12012TIP3    H257452   5.837   4.246  14.360  2.1787  0.0079 -0.0121
12013TIP3   OH257453   6.329   1.704   1.726  0.4145  0.2045  0.0175
12013TIP3    H157454   6.294   1.792   1.737  1.7507  0.7194  0.2806
12013TIP3    H257455   6.412   1.716   1.680  0.1773 -0.9989 -0.7807
12014TIP3   OH257456   4.474   1.140  11.646  0.3189 -0.3361 -0.2039
12014TIP3    H157457   4.521   1.083  11.585 -0.7479 -0.2046 -1.1722
12014TIP3    H257458   4.468   1.224  11.601 -1.3247 -0.5044 -0.3455
12015TIP3   OH257459   6.661   2.902  10.390 -0.3223  0.6743  0.2270
12015TIP3    H157460   6.691   2.815  10.417 -0.7386  0.9287  1.5795
12015TIP3    H257461   6.566   2.893  10.380 -0.3028  0.8476 -0.1287
12016TIP3   OH257462   1.205   6.050   0.787 -0.0303 -0.5633 -0.0308
12016TIP3    H157463   1.170   6.107   0.718  1.5401 -0.0387 -0.4450
12016TIP3    H257464   1.164   5.965   0.771 -0.2524 -0.2646 -1.1628
12017TIP3   OH257465   1.205   0.206  13.777  0.1912  0.0287  0.3095
12017TIP3    H157466   1.235   0.280  13.724  1.1645 -0.6993 -0.1958
12017TIP3    H257467   1.141   0.243  13.837  1.8757  1.6354  1.2217
12018TIP3   OH257468   4.806   0.105   2.300  0.1537 -0.0388 -0.2887
12018TIP3    H157469   4.722   0.124   2.341  0.2097 -0.7319  0.1751
12018TIP3    H257470   4.785   0.087   2.208 -0.4008 -1.5117  0.0944
12019TIP3   OH257471   1.967   2.392  12.066 -0.8104 -0.1097  0.2521
12019TIP3    H157472   1.959   2.439  11.983 -1.4246 -0.8120 -0.0991
12019TIP3    H257473   1.991   2.303  12.040 -0.6995 -0.2547  0.8485
12020TIP3   OH257474   1.806   4.055  17.185 -0.3818 -0.3442 -0.4488
12020TIP3    H157475   1.741   4.107  17.231 -0.9832 -0.5397 -1.0673
12020TIP3    H257476   1.783   4.062  17.093  0.2630 -0.7017 -0.6491
12021TIP3   OH257477   5.311   6.383  17.016 -0.1472 -0.2903 -0.2449
12021TIP3    H157478   5.327   6.462  17.067 -1.2240  0.1169 -0.5015
12021TIP3    H257479   5.273   6.321  17.078 -1.0889  0.0687 -0.4469
12022TIP3   OH257480   0.914   0.956  10.651  0.2018  0.1027 -0.1567
12022TIP3    H157481   0.844   0.992  10.705  0.7023  1.7681 -0.5613
12022TIP3    H257482   0.948   1.031  10.601  1.6291 -0.8375 -0.6893
12023TIP3   OH257483   4.303   4.516  14.889  0.4340  0.2485 -0.1351
12023TIP3    H157484   4.245   4.445  14.917  1.1053 -0.7687 -1.2590
12023TIP3    H257485   4.362   4.529  14.964  3.8063 -4.1119 -1.6041
12024TIP3   OH257486   1.084   2.300  12.497  0.0533  0.7253  0.6855
12024TIP3    H157487   1.175   2.332  12.497  0.1522  0.5225  1.8808
12024TIP3    H257488   1.033   2.375  12.529 -0.1825  0.7895  0.1605
12025TIP3   OH257489   0.165   4.499   0.110 -0.0377  0.2458  0.5427
12025TIP3    H157490   0.223   4.426   0.131  0.6721  0.2586 -1.1655
12025TIP3    H257491   0.093   4.458   0.061  1.0021  0.7786 -1.5508
12026TIP3   OH257492   5.832   4.873   5.034  0.2770  0.3776 -0.5409
12026TIP3    H157493   5.741   4.872   5.064 -0.3365 -1.4263 -2.2670
12026TIP3    H257494   5.826   4.895   4.941  1.5183 -0.5643 -0.8649
12027TIP3   OH257495   3.551   6.485   5.799  0.1808 -0.6462 -0.1467
12027TIP3    H157496   3.539   6.457   5.890  0.1591 -1.1456 -0.2985
12027TIP3    H257497   3.642   6.460   5.779  0.1512 -0.6358 -0.2938
12028TIP3   OH257498   1.065   2.888   4.557 -0.8262  0.2164  0.1207
12028TIP3    H157499   1.090   2.802   4.592  1.4341  0.7388 -0.0742
12028TIP3    H257500   1.078   2.949   4.629 -0.3930  0.6863 -0.3473
12029TIP3   OH257501   6.601   5.579   1.421 -0.2774 -0.1555  0.6359
12029TIP3    H157502   6.631   5.513   1.483 -0.4818 -0.6429  0.2152
12029TIP3    H257503   6.681   5.607   1.376 -0.3900 -1.2170 -0.2524
12030TIP3   OH257504   3.699   0.627  15.111  0.8865 -0.2165  0.4885
12030TIP3    H157505   3.667   0.709  15.073  0.7280 -0.4702  0.0736
12030TIP3    H257506   3.700   0.565  15.038 -0.4486 -1.0065  1.1045
12031TIP3   OH257507   6.686   0.951   5.774 -0.4516 -0.2430 -0.1638
12031TIP3    H157508   6.605   0.982   5.734 -0.8053 -1.5624 -0.5377
12031TIP3    H257509   6.741   1.029   5.783 -2.2423  0.9404  1.3286
12032TIP3   OH257510   0.719   4.643  17.125 -0.0988  0.8096  0.3594
12032TIP3    H157511   0.704   4.645  17.219  1.1599  1.0895  0.5784
12032TIP3    H257512   0.775   4.567  17.111 -2.1035 -0.5863 -0.4936
12033TIP3   OH257513   0.573   3.833  13.988 -0.1608 -1.1232  0.0741
12033TIP3    H157514   0.570   3.913  14.040 -0.0097 -1.3201  0.3864
12033TIP3    H257515   0.666   3.816  13.973 -0.2055 -1.0242 -0.3291
12034TIP3   OH257516   0.498   2.888   2.620  0.2391 -0.2716  0.2620
12034TIP3    H157517   0.528   2.812   2.669 -2.0349 -0.9350  0.7552
12034TIP3    H257518   0.440   2.935   2.680 -0.3909  0.4482 -0.8489
12035TIP3   OH257519   1.613   6.106   2.744  0.3758  0.4051 -0.3535
12035TIP3    H157520   1.657   6.112   2.659  0.8175  2.1301 -0.0400
12035TIP3    H257521   1.670   6.154   2.804 -0.9446  0.9743  0.4934
12036TIP3   OH257522   5.060   6.665   5.416  0.1060 -0.1493 -0.1409
12036TIP3    H157523   5.065   6.660   5.321 -0.4198  1.3908 -0.2744
12036TIP3    H257524   5.085   6.578   5.446  1.7974 -0.2233 -1.6255
12037TIP3   OH257525   5.954   6.293  12.893  0.5587  0.8918  0.0015
12037TIP3    H157526   5.913   6.245  12.965  1.8283  0.1942  0.3007
12037TIP3    H257527   5.948   6.385  12.920 -1.5198  0.9081 -0.3804
12038TIP3   OH257528   4.055   6.242   3.067 -0.0076 -0.4395  0.1833
12038TIP3    H157529   4.115   6.172   3.091 -0.9212 -1.3113  0.0136
12038TIP3    H257530   3.971   6.198   3.055 -0.5925  0.6848  0.0240
12039TIP3   OH257531   5.355   0.730  14.140  0.4581  0.6592 -0.4000
12039TIP3    H157532   5.450   0.726  14.141  0.6481  2.0456  3.3626
12039TIP3    H257533   5.336   0.824  14.137 -1.0379  0.4250 -4.3221
12040TIP3   OH257534   2.758   0.058   1.235 -0.4746 -0.0637  0.5029
12040TIP3    H157535   2.826   0.121   1.210 -1.6965  0.7683 -0.8875
12040TIP3    H257536   2.789   0.021   1.317  1.8304  0.0102 -0.2689
12041TIP3   OH257537   1.637   6.444   5.284 -0.4361 -0.2829 -0.4377
12041TIP3    H157538   1.650   6.493   5.365  0.4047  1.0060 -1.2992
12041TIP3    H257539   1.712   6.384   5.280  0.6437  1.0551 -1.1869
12042TIP3   OH257540   0.600   6.793   5.130  0.0266  0.2531  0.3104
12042TIP3    H157541   0.603   6.850   5.052 -0.6470  0.5409  0.4842
12042TIP3    H257542   0.678   6.738   5.122  0.5628  1.0282  0.0025
12043TIP3   OH257543   6.128   4.448   1.993  0.0686  0.4256 -0.1830
12043TIP3    H157544   6.143   4.524   1.936  1.5969  0.3574  0.0984
12043TIP3    H257545   6.176   4.377   1.952 -1.8685 -0.6149 -0.7841
12044TIP3   OH257546   4.480   3.201   5.515  0.2054 -0.1914  0.5227
12044TIP3    H157547   4.467   3.141   5.442 -0.3821 -0.9184  1.1968
12044TIP3    H257548   4.404   3.187   5.571  0.9392 -0.1149  1.5825
12045TIP3   OH257549   4.273   1.662  15.146  0.0636 -0.3400  1.1732
12045TIP3    H157550   4.340   1.713  15.102 -0.3089 -0.4847  0.4224
12045TIP3    H257551   4.190   1.702  15.119 -0.1994 -0.8979  1.1345
12046TIP3   OH257552   6.027   6.273  16.951 -0.7856 -0.2373 -0.1207
12046TIP3    H157553   5.967   6.298  16.881 -1.4610 -2.0673 -0.2476
12046TIP3    H257554   6.024   6.346  17.013 -1.6773  0.5344 -1.0369
12047TIP3   OH257555   3.340   6.520  13.168 -0.4470  0.2142 -0.7020
12047TIP3    H157556   3.276   6.536  13.099 -0.0002 -0.9604 -1.4172
12047TIP3    H257557   3.422   6.502  13.121 -0.4317 -1.9620  0.0509
12048TIP3   OH257558   4.284   2.947  14.388  0.1027  0.4202 -0.0580
12048TIP3    H157559   4.312   2.875  14.443 -1.1267  1.0247  1.4114
12048TIP3    H257560   4.327   3.024  14.425  0.7092  0.6038 -1.0782
12049TIP3   OH257561   0.111   3.609  12.360  0.0774 -0.0887 -0.0260
12049TIP3    H157562   0.103   3.704  12.359 -1.1487 -0.1768 -0.3555
12049TIP3    H257563   0.147   3.588  12.446 -0.1887  0.6322  0.2638
12050TIP3   OH257564   3.498   4.487  10.178  0.1744 -0.0418 -0.1541
12050TIP3    H157565   3.543   4.428  10.239  1.7355  1.0171 -0.2276
12050TIP3    H257566   3.434   4.431  10.134 -0.6453 -0.9441  2.0735
12051TIP3   OH257567   1.866   4.564  14.438  0.3622  0.0685  0.3229
12051TIP3    H157568   1.934   4.619  14.400  1.3493 -1.2304  0.1378
12051TIP3    H257569   1.806   4.625  14.480  2.2617  1.1899  1.5404
12052TIP3   OH257570   5.180   5.929   0.536 -0.1483  0.0358 -0.1942
12052TIP3    H157571   5.214   6.005   0.489  0.2653 -0.6151 -0.9807
12052TIP3    H257572   5.088   5.924   0.511 -0.2611  0.4650  0.1237
12053TIP3   OH257573   0.917   4.368  13.626 -0.2724  0.7343 -0.5339
12053TIP3    H157574   0.875   4.308  13.564 -2.3821  0.6700  0.8542
12053TIP3    H257575   1.000   4.391  13.584 -1.6567  0.8768 -3.4586
12054TIP3   OH257576   5.143   2.745  16.197  1.2119 -0.0141  0.5628
12054TIP3    H157577   5.087   2.803  16.145  1.4941 -2.5447 -2.9502
12054TIP3    H257578   5.090   2.722  16.273 -2.6527 -1.8976 -2.3059
12055TIP3   OH257579   3.607   1.503  12.185  0.2329  0.7078 -0.4182
12055TIP3    H157580   3.569   1.440  12.124 -0.2416 -0.2968  0.8784
12055TIP3    H257581   3.697   1.474  12.198 -0.0124  0.2250  0.2492
12056TIP3   OH257582   5.168   5.541   4.703  0.5373 -0.6337  0.3535
12056TIP3    H157583   5.153   5.633   4.678  0.2756 -0.6900  0.3016
12056TIP3    H257584   5.230   5.508   4.638  1.1738 -0.2973  0.7803
12057TIP3   OH257585   4.179   4.881   2.674  0.5201 -0.2669  0.1109
12057TIP3    H157586   4.246   4.949   2.667  0.7551 -0.3403  1.3306
12057TIP3    H257587   4.103   4.917   2.629  2.1701 -1.3684 -4.0038
12058TIP3   OH257588   3.177   4.906   4.119 -0.3132 -0.1153 -0.7902
12058TIP3    H157589   3.183   4.834   4.057 -0.4912 -0.1192 -0.8014
12058TIP3    H257590   3.266   4.941   4.123 -0.5470  0.6603 -1.9715
12059TIP3   OH257591   3.289   4.427   3.697  0.1493 -0.3190  0.4341
12059TIP3    H157592   3.340   4.346   3.692  1.0583  0.2674  0.0946
12059TIP3    H257593   3.314   4.466   3.781  0.4453  0.0796  0.1676
12060TIP3   OH257594   4.538   2.657  17.002  0.6223 -0.2637 -0.0570
12060TIP3    H157595   4.448   2.627  17.001  0.4558  0.0387  1.8461
12060TIP3    H257596   4.590   2.579  17.021  0.4849 -0.0293  1.4699
12061TIP3   OH257597   5.962   2.215   3.029 -0.2209  0.0873 -0.0524
12061TIP3    H157598   5.982   2.150   2.962  0.1729 -0.2446  0.3760
12061TIP3    H257599   5.975   2.169   3.112 -0.6064  0.5170  0.2534
12062TIP3   OH257600   4.827   0.705   3.046 -0.6969  0.1622  1.2702
12062TIP3    H157601   4.888   0.773   3.073  1.9457 -0.4622 -2.2962
12062TIP3    H257602   4.791   0.737   2.963 -1.4836 -1.6079  0.8829
12063TIP3   OH257603   1.337   0.365   4.053 -0.1037 -0.2825  0.0638
12063TIP3    H157604   1.369   0.285   4.095 -0.5207 -0.6908 -0.3820
12063TIP3    H257605   1.265   0.395   4.110  0.7007  0.3415  0.7756
12064TIP3   OH257606   2.324   1.186  15.002  0.3047 -0.2082 -0.6082
12064TIP3    H157607   2.362   1.099  15.007  0.7060  0.0036  0.2887
12064TIP3    H257608   2.338   1.223  15.090 -2.0940 -0.1786 -0.1700
12065TIP3   OH257609   2.203   2.545   4.515 -0.0097  0.6125  0.3022
12065TIP3    H157610   2.159   2.485   4.455 -0.3961  2.6755 -1.6340
12065TIP3    H257611   2.296   2.525   4.506 -0.1958 -0.4079  0.5486
12066TIP3   OH257612   6.401   3.639   2.608  0.0221 -0.3867  0.1973
12066TIP3    H157613   6.380   3.717   2.658 -1.1599 -0.8475  0.4482
12066TIP3    H257614   6.494   3.648   2.587  0.0170  0.8383  0.6387
12067TIP3   OH257615   6.754   3.323   5.388  0.0984 -0.3109  0.3651
12067TIP3    H157616   6.773   3.416   5.401  0.1860 -0.3104  0.2365
12067TIP3    H257617   6.772   3.308   5.295  0.6411 -0.5930  0.5159
12068TIP3   OH257618   2.974   5.272   2.646  0.4858 -0.0162 -0.2607
12068TIP3    H157619   2.990   5.355   2.601 -0.4497 -0.7223 -2.0017
12068TIP3    H257620   2.879   5.265   2.650  0.5132  0.3847  2.6546
12069TIP3   OH257621   4.118   4.444  10.381  0.2241 -0.4075  0.3865
12069TIP3    H157622   4.129   4.530  10.342  1.0166 -0.0161  1.4214
12069TIP3    H257623   4.033   4.413  10.349 -1.1011  1.6627  1.6959
12070TIP3   OH257624   3.559   5.279  13.307  0.4462 -0.0623 -0.3114
12070TIP3    H157625   3.511   5.293  13.388  0.3184 -0.3977 -0.3283
12070TIP3    H257626   3.607   5.361  13.293 -0.4239  0.4224 -0.5043
12071TIP3   OH257627   2.098   3.554   4.611 -0.0664 -0.2340 -0.4792
12071TIP3    H157628   2.142   3.574   4.528 -2.1439 -0.0164 -1.5948
12071TIP3    H257629   2.077   3.461   4.606 -0.5626 -0.1299 -0.3816
12072TIP3   OH257630   1.373   3.377   2.178 -0.4386  0.0614 -0.2325
12072TIP3    H157631   1.319   3.309   2.218 -1.1630 -0.4622 -2.0467
12072TIP3    H257632   1.463   3.343   2.185 -0.6634 -0.5013 -0.0185
12073TIP3   OH257633   2.735   6.333  15.319 -0.1388  0.1913 -0.1183
12073TIP3    H157634   2.751   6.246  15.281  0.4109  0.7420 -1.2119
12073TIP3    H257635   2.654   6.363  15.277 -0.0768  0.3876 -0.0976
12074TIP3   OH257636   5.477   1.982  13.514  0.3648  0.2608  1.0229
12074TIP3    H157637   5.551   1.927  13.540  0.1515  0.9584  3.3483
12074TIP3    H257638   5.411   1.921  13.482  1.3411 -0.5126  0.4559
12075TIP3   OH257639   6.149   2.966  12.865 -0.0624  0.2058  0.4539
12075TIP3    H157640   6.164   3.014  12.783 -0.7279  0.2063  0.3215
12075TIP3    H257641   6.234   2.931  12.890  0.0857 -0.0475 -0.4000
12076TIP3   OH257642   5.537   2.772  15.310  0.0581 -0.4466 -0.2453
12076TIP3    H157643   5.514   2.706  15.245 -1.6428  1.7590 -2.0486
12076TIP3    H257644   5.453   2.806  15.340  0.7202  3.4599 -2.2424
12077TIP3   OH257645   1.854   1.612  16.947  0.9267 -0.1666 -0.5406
12077TIP3    H157646   1.806   1.531  16.930 -1.5500  0.8932  0.8210
12077TIP3    H257647   1.923   1.586  17.009  0.4582 -1.3126 -0.4768
12078TIP3   OH257648   0.001   0.533   3.712 -0.8165  0.3061  0.1579
12078TIP3    H157649   0.018   0.618   3.750 -1.7268  0.1539  0.9510
12078TIP3    H257650   0.084   0.486   3.717  0.1663  1.6908 -1.8431
12079TIP3   OH257651   4.587   0.882  15.978 -0.0063  0.3564 -0.3776
12079TIP3    H157652   4.594   0.851  16.068 -2.9920  0.3404 -0.0748
12079TIP3    H257653   4.621   0.810  15.925  0.5316 -0.1643  0.6460
12080TIP3   OH257654   5.838   5.095   0.423  0.2997 -0.4773  0.1035
12080TIP3    H157655   5.788   5.141   0.355 -1.0311 -0.3194  1.1562
12080TIP3    H257656   5.813   5.137   0.505 -2.0246 -3.7664  1.3317
12081TIP3   OH257657   0.571   6.015  16.089  0.1605  0.3395  0.5298
12081TIP3    H157658   0.537   5.986  16.173 -0.0748 -0.3760  0.2018
12081TIP3    H257659   0.656   6.053  16.109  0.5051 -0.6352  0.9986
12082TIP3   OH257660   4.300   1.249  10.948  0.0761 -0.2429 -0.2937
12082TIP3    H157661   4.284   1.157  10.928  1.4212 -0.5770  0.0419
12082TIP3    H257662   4.385   1.268  10.907  0.9513  0.1669  1.5810
12083TIP3   OH257663   2.922   5.698   2.143 -0.1323 -0.4512 -0.5651
12083TIP3    H157664   2.857   5.680   2.075  2.5109 -2.2623 -2.8188
12083TIP3    H257665   2.951   5.788   2.125  0.0809 -0.6890 -1.4543
12084TIP3   OH257666   2.211   5.018   0.595 -0.6011 -0.2978  0.3715
12084TIP3    H157667   2.177   4.936   0.629 -0.9502 -1.0846 -1.7476
12084TIP3    H257668   2.282   4.992   0.536 -1.3553  0.8256 -1.0900
12085TIP3   OH257669   1.185   5.889  14.367  0.0210  0.0350  0.3785
12085TIP3    H157670   1.133   5.864  14.291 -0.5043  1.3498  0.2751
12085TIP3    H257671   1.138   5.851  14.442 -0.6483  0.5300  0.2179
12086TIP3   OH257672   1.101   2.362   5.658 -0.4044  0.1108  0.5101
12086TIP3    H157673   1.151   2.332   5.734 -0.4500 -1.6954 -0.1277
12086TIP3    H257674   1.012   2.331   5.674  0.1967 -3.2434 -1.6845
12087TIP3   OH257675   1.788   6.168  15.305 -0.6364 -0.1233  0.8787
12087TIP3    H157676   1.821   6.251  15.338  1.1543 -0.4382 -0.0056
12087TIP3    H257677   1.740   6.191  15.225 -0.4889  0.0962  0.8545
12088TIP3   OH257678   1.769   2.068   2.883  0.4368  0.4935  0.6488
12088TIP3    H157679   1.829   1.995   2.868 -0.1903  0.2032 -0.5693
12088TIP3    H257680   1.765   2.113   2.799 -2.4073 -0.5473  0.1308
12089TIP3   OH257681   5.827   4.294  15.531  0.1654 -0.2210  0.2274
12089TIP3    H157682   5.865   4.208  15.550  0.7942  0.2990  1.4841
12089TIP3    H257683   5.902   4.346  15.502 -0.1431  0.0001 -0.1657
12090TIP3   OH257684   5.849   2.673   4.507  0.1001 -0.0490 -0.0228
12090TIP3    H157685   5.868   2.690   4.415 -1.4471 -1.9422 -0.7596
12090TIP3    H257686   5.770   2.725   4.525 -0.1760 -0.4505 -0.0638
12091TIP3   OH257687   1.644   0.492   0.098  0.1574 -0.1734  0.1611
12091TIP3    H157688   1.689   0.419   0.056  0.8638  0.4544 -0.1967
12091TIP3    H257689   1.571   0.512   0.039 -0.0965 -0.6486  0.3100
12092TIP3   OH257690   3.010   3.594  14.657 -0.2042 -0.0854 -0.3724
12092TIP3    H157691   3.015   3.626  14.567  0.6317  1.7411  0.2693
12092TIP3    H257692   2.945   3.650  14.699 -0.0198 -0.4021  0.3511
12093TIP3   OH257693   2.143   3.116  11.644 -0.1353 -0.4574  0.4283
12093TIP3    H157694   2.192   3.054  11.590 -1.2711 -1.1184  0.1351
12093TIP3    H257695   2.211   3.173  11.680  0.6921 -0.1940 -1.4116
12094TIP3   OH257696   1.334   4.979  11.224 -0.3512  0.0942 -0.0010
12094TIP3    H157697   1.259   5.038  11.234 -0.7531 -0.3788 -0.1833
12094TIP3    H257698   1.409   5.037  11.213 -0.3826  0.6151  2.1174
12095TIP3   OH257699   4.961   3.468   0.936 -0.0683 -0.2030  0.1007
12095TIP3    H157700   5.028   3.401   0.920 -1.5185 -2.1637  1.5840
12095TIP3    H257701   4.963   3.481   1.031  0.0132  1.7358 -0.1392
12096TIP3   OH257702   1.972   5.963   4.562  0.4765 -0.5022 -0.0063
12096TIP3    H157703   1.918   5.890   4.530  2.1422 -1.2836 -1.1472
12096TIP3    H257704   1.997   5.936   4.651 -0.9128 -0.1605  0.5136
12097TIP3   OH257705   4.424   6.475  11.727 -0.3275  0.6564  0.4179
12097TIP3    H157706   4.361   6.546  11.729 -0.6801  0.3433  0.6263
12097TIP3    H257707   4.372   6.397  11.709  0.1272  0.5211 -0.3461
12098TIP3   OH257708   5.574   4.039  15.947  0.5865 -0.6924 -0.0563
12098TIP3    H157709   5.650   3.996  15.906  0.6061  0.1029 -0.8891
12098TIP3    H257710   5.610   4.116  15.991  0.3518 -0.6989  0.1489
12099TIP3   OH257711   2.184   4.970  13.773 -0.0438  0.0077  0.5071
12099TIP3    H157712   2.254   4.946  13.833  1.3041  0.8365 -0.6449
12099TIP3    H257713   2.197   4.914  13.696  1.0612  1.9431 -0.8067
12100TIP3   OH257714   4.482   1.036   0.687 -0.1356 -0.0656  0.1813
12100TIP3    H157715   4.512   0.946   0.673  0.7157  0.1466  0.5510
12100TIP3    H257716   4.512   1.083   0.609 -0.8922 -0.1689 -0.1783
12101TIP3   OH257717   6.571   1.333   2.716 -0.1857 -0.0776  0.0311
12101TIP3    H157718   6.480   1.303   2.709  0.3127 -1.3984 -1.2194
12101TIP3    H257719   6.615   1.265   2.766  0.1124  0.6117  0.7268
12102TIP3   OH257720   0.838   5.536   0.673  0.0950  0.7491 -0.5283
12102TIP3    H157721   0.787   5.530   0.754 -0.4049 -0.0229 -0.8924
12102TIP3    H257722   0.774   5.563   0.607 -0.3589 -2.1299 -1.4112
12103TIP3   OH257723   4.329   6.092  12.603  0.0408  0.0375  0.1207
12103TIP3    H157724   4.286   6.110  12.687 -0.2447 -0.3211  0.0515
12103TIP3    H257725   4.422   6.112  12.620 -0.0966  0.4830  0.3656
12104TIP3   OH257726   6.130   4.786  17.199  0.0833 -0.7363  0.4498
12104TIP3    H157727   6.065   4.750  17.139  0.3864  0.0255 -0.3579
12104TIP3    H257728   6.094   4.871  17.225  1.3803  0.3606 -1.1486
12105TIP3   OH257729   5.051   3.464  16.368  0.0705 -0.5760  0.3785
12105TIP3    H157730   4.979   3.443  16.309 -0.8890  1.6612  0.6505
12105TIP3    H257731   5.127   3.473  16.311 -0.3935 -0.5367 -0.2470
12106TIP3   OH257732   1.100   0.106  17.139 -0.7393  0.0159 -0.4603
12106TIP3    H157733   1.050   0.165  17.082 -1.9632 -0.4143  0.1316
12106TIP3    H257734   1.186   0.148  17.147 -1.3520  1.3587 -0.6242
12107TIP3   OH257735   3.884   5.566  16.256  0.1612 -0.5286 -0.6573
12107TIP3    H157736   3.819   5.579  16.324  0.8723  1.4851 -0.2936
12107TIP3    H257737   3.843   5.600  16.176 -0.2986 -1.9731 -1.0659
12108TIP3   OH257738   2.288   6.678  15.370  0.0328 -0.0279  0.2061
12108TIP3    H157739   2.341   6.673  15.450 -2.1288  0.7975  1.7970
12108TIP3    H257740   2.198   6.679  15.402 -0.8794  2.3621 -2.1148
12109TIP3   OH257741   1.712   2.682  15.032 -0.2301 -0.3925 -0.4162
12109TIP3    H157742   1.662   2.687  15.113 -1.8978  1.1608 -1.4780
12109TIP3    H257743   1.674   2.607  14.985  1.5160 -2.0431  0.6519
12110TIP3   OH257744   4.904   4.306  13.883 -0.0357  0.2906 -0.1206
12110TIP3    H157745   4.989   4.321  13.843 -0.1065  1.7393  0.2277
12110TIP3    H257746   4.874   4.223  13.844  1.4425 -0.1720 -0.3484
12111TIP3   OH257747   4.996   4.185  12.813  0.6447 -0.0479  0.0727
12111TIP3    H157748   5.032   4.165  12.726  0.6345 -1.2047  0.3234
12111TIP3    H257749   5.044   4.129  12.873  0.3159  0.3946  0.7657
12112TIP3   OH257750   2.279   5.187   4.776 -0.1246 -0.5720  0.5458
12112TIP3    H157751   2.371   5.208   4.763  0.2149 -3.0042 -1.9677
12112TIP3    H257752   2.272   5.162   4.868  1.3676  1.0290  1.1365
12113TIP3   OH257753   5.651   4.771   0.575  1.0066 -0.2087  0.2273
12113TIP3    H157754   5.661   4.710   0.649 -2.1085  0.7248  1.6101
12113TIP3    H257755   5.588   4.728   0.517  1.9074 -0.0445 -0.9048
12114TIP3   OH257756   0.403   1.687   4.539  0.6135 -0.1781  0.1068
12114TIP3    H157757   0.449   1.638   4.471  2.5550 -0.5033  1.5661
12114TIP3    H257758   0.320   1.641   4.550  0.4560 -0.4029 -1.6687
12115TIP3   OH257759   3.379   5.925  14.489  0.2156  0.1853  0.0664
12115TIP3    H157760   3.345   6.001  14.536 -1.7357  1.1584 -2.6341
12115TIP3    H257761   3.452   5.960  14.437  0.6563 -0.2901  0.3479
12116TIP3   OH257762   5.746   0.916   4.004  0.4837 -0.0581 -0.0760
12116TIP3    H157763   5.673   0.949   3.950  0.7679 -1.2985 -1.2929
12116TIP3    H257764   5.817   0.978   3.988  0.4898 -0.2792 -0.9762
12117TIP3   OH257765   0.502   1.932  16.227  0.3596  0.1460  0.4378
12117TIP3    H157766   0.588   1.973  16.219  0.1220  0.5808 -0.0004
12117TIP3    H257767   0.518   1.838  16.220  0.5445  0.3192 -2.1086
12118TIP3   OH257768   3.795   3.837   0.074 -0.0176  0.0555  0.1794
12118TIP3    H157769   3.715   3.806   0.034  0.5229 -1.0378 -0.0837
12118TIP3    H257770   3.785   3.817   0.167 -0.3026  0.4968  0.2482
12119TIP3   OH257771   6.442   0.992  11.555 -0.1400  0.1840  0.5576
12119TIP3    H157772   6.397   1.076  11.547  0.7377  0.5364 -0.9465
12119TIP3    H257773   6.432   0.950  11.469  1.4195 -0.2058  0.5263
12120TIP3   OH257774   0.548   4.656   4.805  0.7138  0.3178 -0.1359
12120TIP3    H157775   0.560   4.729   4.867  1.3861 -0.2211  0.3904
12120TIP3    H257776   0.535   4.580   4.861 -0.4264  0.0908 -0.6892
12121TIP3   OH257777   0.242   2.991   1.051  0.3632 -0.0988  0.7097
12121TIP3    H157778   0.184   2.989   0.975 -0.1396  2.1367  0.9600
12121TIP3    H257779   0.326   3.022   1.017  1.0717 -1.9551  0.6082
12122TIP3   OH257780   2.219   1.490  12.719 -0.2168  0.3971 -0.0397
12122TIP3    H157781   2.263   1.494  12.633  0.9534  1.4646  0.5614
12122TIP3    H257782   2.194   1.581  12.736 -3.1954 -0.2211 -0.5588
12123TIP3   OH257783   3.428   3.824   3.521 -0.2506  0.0276 -0.0270
12123TIP3    H157784   3.496   3.759   3.539 -0.5408 -0.1152  0.5820
12123TIP3    H257785   3.352   3.772   3.494 -0.8861  0.0001  1.6825
12124TIP3   OH257786   1.747   4.171   0.395 -0.5709  0.5346 -0.0017
12124TIP3    H157787   1.660   4.136   0.376 -0.0944 -0.8394  0.2342
12124TIP3    H257788   1.797   4.096   0.427  0.1941  1.6781  1.6028
12125TIP3   OH257789   4.242   5.355   2.371 -0.1028 -0.3067  0.1821
12125TIP3    H157790   4.197   5.399   2.443 -0.2858 -2.6041  1.5879
12125TIP3    H257791   4.204   5.392   2.292 -3.9858 -1.4824  1.2643
12126TIP3   OH257792   0.191   4.650  11.617  0.3664 -0.4443  0.5272
12126TIP3    H157793   0.155   4.734  11.590  0.4009 -0.3219  0.8573
12126TIP3    H257794   0.250   4.624  11.546  1.1195  0.2777  0.8782
12127TIP3   OH257795   5.114   3.004   4.918  0.0482 -0.1105  0.0849
12127TIP3    H157796   5.069   2.985   5.000  0.6612 -0.4263  0.3585
12127TIP3    H257797   5.169   3.080   4.938  1.3629 -1.1078  0.4305
12128TIP3   OH257798   4.582   5.510   1.045 -0.3109 -0.2900  0.7503
12128TIP3    H157799   4.617   5.599   1.052  1.7037 -1.0769  1.4755
12128TIP3    H257800   4.654   5.459   1.008 -0.2398 -2.1918  3.2248
12129TIP3   OH257801   3.245   2.360   2.710  0.0632 -1.1028  0.0602
12129TIP3    H157802   3.187   2.380   2.784 -0.3516  1.2332 -0.8022
12129TIP3    H257803   3.222   2.271   2.685 -2.3085 -0.6928  0.5389
12130TIP3   OH257804   2.347   3.083   6.386 -0.0172 -0.3704 -0.5428
12130TIP3    H157805   2.333   2.996   6.423 -2.4877 -0.7038 -2.0410
12130TIP3    H257806   2.406   3.126   6.448  0.3753 -2.7050  0.8311
12131TIP3   OH257807   5.168   0.516   2.192 -0.3762  0.0531  0.0926
12131TIP3    H157808   5.153   0.427   2.224 -1.0009  0.2746  0.4078
12131TIP3    H257809   5.116   0.572   2.249  2.5272  0.9998  2.0649
12132TIP3   OH257810   6.048   6.619   6.096 -0.2739  0.2867 -0.1685
12132TIP3    H157811   6.078   6.696   6.047  1.3637  0.7438  1.4815
12132TIP3    H257812   5.996   6.655   6.167  0.0741 -0.1574  0.3139
12133TIP3   OH257813   6.171   4.325   4.030  0.0240 -0.1606  0.0431
12133TIP3    H157814   6.098   4.331   3.967  0.0307  0.3854  0.0853
12133TIP3    H257815   6.151   4.246   4.081 -1.1557  0.6098  0.8221
12134TIP3   OH257816   3.537   1.905  16.288  0.0025  0.1045  0.3075
12134TIP3    H157817   3.535   1.826  16.342 -0.8321  0.0637  0.2275
12134TIP3    H257818   3.542   1.976  16.352  3.8407 -0.0363  0.3655
12135TIP3   OH257819   2.586   2.562   3.485  0.1859  0.0543 -0.1514
12135TIP3    H157820   2.543   2.645   3.505 -0.3503 -0.6814  1.9783
12135TIP3    H257821   2.558   2.542   3.396 -0.8835  1.4152 -0.1608
12136TIP3   OH257822   1.510   0.152   0.059  0.7100  0.1927  0.0858
12136TIP3    H157823   1.536   0.064   0.085 -2.1978 -0.6252  0.5488
12136TIP3    H257824   1.589   0.190   0.023  1.7873 -3.0429 -1.3262
12137TIP3   OH257825   6.779   1.297   4.377 -0.3568  0.0804 -0.1318
12137TIP3    H157826   6.684   1.285   4.369 -0.3348  0.7800 -1.8166
12137TIP3    H257827   6.815   1.210   4.360 -0.6884 -0.4118  1.4505
12138TIP3   OH257828   6.090   5.491   4.746 -0.4075  0.5093 -0.2059
12138TIP3    H157829   6.180   5.467   4.723  0.1194  1.6037  0.6301
12138TIP3    H257830   6.041   5.477   4.665  0.4061 -0.5658 -0.5504
12139TIP3   OH257831   3.240   4.311   3.996  0.2315 -0.1522 -0.1403
12139TIP3    H157832   3.203   4.222   3.998  0.8235 -0.4324 -0.9467
12139TIP3    H257833   3.305   4.307   3.927 -0.3183  1.1479 -0.7591
12140TIP3   OH257834   0.611   1.822   3.361  0.0342  0.5747  0.1462
12140TIP3    H157835   0.523   1.834   3.396 -1.3488  0.1798 -2.8293
12140TIP3    H257836   0.612   1.732   3.328  0.8463  1.1369 -1.4909
12141TIP3   OH257837   2.535   6.563   3.187  0.6812 -0.6172 -0.1118
12141TIP3    H157838   2.450   6.520   3.178 -1.6618  2.8380  2.6071
12141TIP3    H257839   2.563   6.541   3.276  1.6973 -0.1780 -0.3122
12142TIP3   OH257840   3.469   2.935   3.991 -0.5626 -0.1482  0.5155
12142TIP3    H157841   3.443   3.008   3.934  0.1402  0.1742  0.5972
12142TIP3    H257842   3.563   2.949   4.006  0.2671 -2.5593 -1.6647
12143TIP3   OH257843   1.962   6.164  12.648 -0.4634  0.0616 -0.7835
12143TIP3    H157844   1.946   6.129  12.736 -0.2670 -1.2645 -1.2555
12143TIP3    H257845   1.891   6.226  12.634  0.9641  2.3634  1.3456
12144TIP3   OH257846   0.242   3.099   4.420  0.8732 -0.1309 -0.0143
12144TIP3    H157847   0.290   3.163   4.472 -1.0784  1.2552  0.1875
12144TIP3    H257848   0.180   3.151   4.369 -1.5838 -1.8696  0.9849
12145TIP3   OH257849   3.121   4.374  15.124 -0.1842  0.3550  0.3292
12145TIP3    H157850   3.056   4.363  15.193  0.1499  0.1819  0.6162
12145TIP3    H257851   3.205   4.366  15.168  0.0354 -0.6813 -0.2446
12146TIP3   OH257852   0.552   0.710   5.360 -0.3419 -0.5752  0.2907
12146TIP3    H157853   0.606   0.671   5.292  0.5236 -0.3176  0.8118
12146TIP3    H257854   0.543   0.642   5.427 -0.4610 -0.5350  0.3179
12147TIP3   OH257855   6.102   6.136  12.132  0.2500  0.6125 -0.1988
12147TIP3    H157856   6.078   6.221  12.169 -2.6283  0.2139 -0.8757
12147TIP3    H257857   6.193   6.123  12.159  0.1210  2.9176  1.7434
12148TIP3   OH257858   4.717   3.737   5.854 -0.1365  0.6867 -0.1075
12148TIP3    H157859   4.736   3.649   5.886  0.3395  0.3097 -1.3761
12148TIP3    H257860   4.673   3.780   5.927 -0.3876 -0.6019  0.5266
12149TIP3   OH257861   4.122   3.559  17.060 -0.1806 -0.0964  0.3127
12149TIP3    H157862   4.185   3.488  17.072 -0.1982 -0.2649 -0.5473
12149TIP3    H257863   4.161   3.615  16.993 -1.0334 -0.3020 -0.3641
12150TIP3   OH257864   4.123   2.153   3.996 -0.0801  0.6126 -0.0373
12150TIP3    H157865   4.089   2.071   3.961  0.1184  0.2484  0.6167
12150TIP3    H257866   4.218   2.147   3.986  0.0379  0.2083  1.1664
12151TIP3   OH257867   0.523   0.917   5.924 -0.4579  0.2483 -0.2668
12151TIP3    H157868   0.527   0.956   5.837 -0.1533 -0.3146 -0.5165
12151TIP3    H257869   0.440   0.947   5.961 -0.6568  0.3758 -0.8072
12152TIP3   OH257870   5.226   3.805  10.669  0.2570 -0.0907  0.1949
12152TIP3    H157871   5.161   3.744  10.635 -1.4959 -0.8872  4.3035
12152TIP3    H257872   5.180   3.852  10.739  2.7574  3.0269 -0.0183
12153TIP3   OH257873   4.770   3.375   3.040  0.0392 -0.2376 -0.0508
12153TIP3    H157874   4.844   3.343   3.092 -1.6168 -1.4601  1.7114
12153TIP3    H257875   4.747   3.302   2.982 -2.0798 -1.4802  2.1210
12154TIP3   OH257876   4.274   0.356   0.956 -0.2688  0.1331  0.6698
12154TIP3    H157877   4.197   0.404   0.985 -0.8231 -0.1846 -0.2418
12154TIP3    H257878   4.343   0.422   0.952 -1.3018  1.1928 -1.7431
12155TIP3   OH257879   2.420   3.207  12.819  0.2919  0.1412 -0.0936
12155TIP3    H157880   2.409   3.266  12.745 -0.8864  2.2669  1.6595
12155TIP3    H257881   2.368   3.246  12.889  0.9231 -2.0462  1.7202
12156TIP3   OH257882   2.366   0.683  12.881 -0.6787  0.1665  0.5957
12156TIP3    H157883   2.290   0.728  12.918 -0.1442  0.5973  1.1765
12156TIP3    H257884   2.328   0.615  12.825 -1.5129 -0.7471  2.1979
12157TIP3   OH257885   2.372   3.842   4.154  0.3830 -0.5919  0.7671
12157TIP3    H157886   2.316   3.884   4.089 -1.6534 -2.2830  1.3128
12157TIP3    H257887   2.363   3.895   4.232  0.2335 -0.3715  0.6004
12158TIP3   OH257888   0.355   6.562  12.892 -0.0217  0.1329 -0.6323
12158TIP3    H157889   0.391   6.612  12.819  0.4624  0.2959 -0.2894
12158TIP3    H257890   0.369   6.471  12.868  0.0313  0.1848 -0.7987
12159TIP3   OH257891   0.512   2.122  14.218 -0.0548 -0.7242 -0.5378
12159TIP3    H157892   0.505   2.199  14.274  0.5098  0.0462 -1.4807
12159TIP3    H257893   0.522   2.048  14.278 -0.7417 -0.0854  0.3871
12160TIP3   OH257894   6.101   0.799  12.928 -0.3652  0.3099 -0.4273
12160TIP3    H157895   6.160   0.731  12.960 -1.4858  0.0758  1.2765
12160TIP3    H257896   6.158   0.871  12.901  0.8820 -1.4123 -2.6913
12161TIP3   OH257897   1.804   5.577  17.079 -0.8095 -0.7505 -0.9835
12161TIP3    H157898   1.854   5.519  17.022 -0.1154 -0.0438 -1.1135
12161TIP3    H257899   1.868   5.610  17.142 -0.6456  1.6471 -2.3038
12162TIP3   OH257900   1.961   3.511  14.105 -0.2991  0.0853  0.5063
12162TIP3    H157901   1.953   3.574  14.033  1.1175 -0.2700 -0.0015
12162TIP3    H257902   1.878   3.463  14.104 -1.6022  2.1743  1.1812
12163TIP3   OH257903   1.370   1.238  11.795 -0.0947 -0.1616 -0.6887
12163TIP3    H157904   1.378   1.313  11.737  0.5364  0.6870  0.4578
12163TIP3    H257905   1.287   1.252  11.841 -0.0845 -0.2897 -0.6300
12164TIP3   OH257906   6.564   0.185   6.026 -0.5370  0.4125 -0.4463
12164TIP3    H157907   6.481   0.182   5.979  0.0689  0.5368 -1.5660
12164TIP3    H257908   6.542   0.164   6.117 -1.6264 -0.6514 -0.9360
12165TIP3   OH257909   4.021   5.240  11.063  0.2225 -0.1829 -0.6634
12165TIP3    H157910   4.018   5.324  11.109 -0.5084 -1.0570  0.9441
12165TIP3    H257911   4.095   5.248  11.003 -0.0413  1.7239 -0.7955
12166TIP3   OH257912   2.177   0.267   5.859 -0.6127  0.1651  0.7215
12166TIP3    H157913   2.174   0.205   5.786  0.6299 -0.2915  1.0271
12166TIP3    H257914   2.199   0.212   5.935 -0.1239  0.8901  1.1132
12167TIP3   OH257915   5.275   0.041  11.406  0.1918  0.0729  0.0180
12167TIP3    H157916   5.278   0.136  11.406  2.1606  0.0928  1.9356
12167TIP3    H257917   5.251   0.018  11.496 -2.9731 -1.3051 -1.0185
12168TIP3   OH257918   2.798   2.000   5.621  0.0643 -0.5699 -0.1960
12168TIP3    H157919   2.886   2.000   5.658  0.9006 -2.7987 -1.9369
12168TIP3    H257920   2.748   1.941   5.679 -0.0683  0.0180  0.2974
12169TIP3   OH257921   0.539   5.315  14.900 -0.4952  0.1032  0.1652
12169TIP3    H157922   0.607   5.352  14.844 -2.5246  1.5687 -1.5052
12169TIP3    H257923   0.541   5.221  14.882  0.6782  0.2085 -0.3042
12170TIP3   OH257924   4.046   0.617  15.160 -0.3658  0.0124  0.2143
12170TIP3    H157925   4.111   0.575  15.104  0.6695  0.5901  0.9517
12170TIP3    H257926   4.010   0.688  15.108  0.6095  0.5663  0.2849
12171TIP3   OH257927   2.875   0.988   3.287 -0.1259  0.2168 -0.6308
12171TIP3    H157928   2.878   0.970   3.381  0.7444 -0.3437 -0.7575
12171TIP3    H257929   2.818   1.065   3.280  2.4769  2.4641  0.6965
12172TIP3   OH257930   4.216   0.862   1.779 -0.0052 -0.3487 -0.2101
12172TIP3    H157931   4.196   0.827   1.866  0.2702  0.9690  0.4057
12172TIP3    H257932   4.221   0.956   1.792  0.0089 -0.1354 -1.6767
12173TIP3   OH257933   0.222   2.632   1.025 -0.4926 -0.4502 -0.4676
12173TIP3    H157934   0.244   2.712   1.073  0.3877 -0.9928  0.0688
12173TIP3    H257935   0.190   2.662   0.940 -0.9353  0.4919  0.0128
12174TIP3   OH257936   1.101   4.435  15.981 -0.1346 -0.1768  0.5006
12174TIP3    H157937   1.139   4.513  16.022  0.5010 -1.3279  2.1894
12174TIP3    H257938   1.106   4.453  15.887  1.3848  1.1900  0.7995
12175TIP3   OH257939   5.555   4.783  15.216  0.4274 -0.2880 -0.0200
12175TIP3    H157940   5.500   4.815  15.288  1.3161 -0.5884  0.8089
12175TIP3    H257941   5.569   4.690  15.236  0.9891 -0.2847 -0.3840
12176TIP3   OH257942   6.084   0.558   2.800  0.2797  0.3937 -0.2683
12176TIP3    H157943   6.021   0.604   2.856  2.1242  0.5342  1.8260
12176TIP3    H257944   6.152   0.622   2.782  1.3303 -0.5896  0.0827
12177TIP3   OH257945   2.279   0.563  13.304 -0.1263 -0.8985 -0.3154
12177TIP3    H157946   2.189   0.552  13.274 -0.2250 -1.5857  0.2085
12177TIP3    H257947   2.273   0.562  13.400  0.0606  2.1963 -0.1714
12178TIP3   OH257948   4.058   5.296   0.429 -0.0154  0.1452  0.1769
12178TIP3    H157949   4.056   5.318   0.522  1.5878 -0.4594  0.3893
12178TIP3    H257950   4.047   5.379   0.384 -1.7896  0.3320  0.8617
12179TIP3   OH257951   3.651   5.225   3.741  0.2348 -0.0729 -0.1577
12179TIP3    H157952   3.667   5.260   3.829  0.7012 -1.2611  0.2554
12179TIP3    H257953   3.718   5.157   3.731 -0.6855 -0.8930 -0.8876
12180TIP3   OH257954   0.730   1.646  14.362  0.3709  0.1993 -0.4688
12180TIP3    H157955   0.716   1.699  14.283  0.4876  0.2481 -0.4559
12180TIP3    H257956   0.772   1.705  14.424  0.8385 -0.0121 -0.5844
12181TIP3   OH257957   0.410   3.046   2.841 -0.3118  0.5575  0.3435
12181TIP3    H157958   0.422   3.140   2.850  1.0725  0.3682  0.6990
12181TIP3    H257959   0.407   3.012   2.930 -1.0144  0.2701  0.2244
12182TIP3   OH257960   2.999   3.104  14.961  0.3438  0.3023 -0.0983
12182TIP3    H157961   2.915   3.080  14.921 -0.6312 -0.3694  2.1980
12182TIP3    H257962   2.990   3.197  14.982 -0.5088 -0.1064  1.5481
12183TIP3   OH257963   4.407   0.748   4.878 -0.6762 -0.1667 -0.0692
12183TIP3    H157964   4.338   0.747   4.945  0.8124 -1.6609  1.5404
12183TIP3    H257965   4.361   0.768   4.796 -3.0146 -1.1821  0.9185
12184TIP3   OH257966   5.184   1.977   2.469  0.1636 -0.1267  0.0673
12184TIP3    H157967   5.252   1.924   2.511 -0.1893 -0.6936 -0.0781
12184TIP3    H257968   5.172   2.051   2.529  0.0454 -0.6522  0.7081
12185TIP3   OH257969   0.107   0.178   3.368 -0.0799 -0.0168  0.0108
12185TIP3    H157970   0.076   0.206   3.281  1.8550 -0.0402 -0.7393
12185TIP3    H257971   0.198   0.153   3.353  0.2336 -0.1903  2.0508
12186TIP3   OH257972   4.561   5.159  15.805  0.0354  0.3745 -0.1079
12186TIP3    H157973   4.489   5.118  15.757 -0.9777 -1.0292  2.4217
12186TIP3    H257974   4.521   5.234  15.850  0.2696 -0.0052  0.7657
12187TIP3   OH257975   1.584   2.651   6.456 -0.4398  0.1864  0.3092
12187TIP3    H157976   1.612   2.690   6.538  0.3684 -1.6531  0.9759
12187TIP3    H257977   1.488   2.655   6.458 -0.3873  1.5869  0.5769
12188TIP3   OH257978   4.890   0.180   1.193  0.3227 -0.6896 -0.4381
12188TIP3    H157979   4.914   0.144   1.278 -2.1967 -0.8478  0.2672
12188TIP3    H257980   4.803   0.146   1.175 -1.8070  3.9136 -0.2573
12189TIP3   OH257981   3.962   0.129  14.201 -0.5111  0.2889 -1.0016
12189TIP3    H157982   3.876   0.167  14.183 -0.4948  0.4877 -0.6604
12189TIP3    H257983   4.006   0.194  14.256 -0.7244 -0.4859  0.1287
12190TIP3   OH257984   0.429   2.562   5.376 -0.8929 -0.2750  0.3795
12190TIP3    H157985   0.457   2.512   5.299  2.0431  0.8904  0.5732
12190TIP3    H257986   0.359   2.619   5.343 -0.8414 -0.9713 -1.0082
12191TIP3   OH257987   3.942   2.855  10.724  0.2625  0.0928 -0.2040
12191TIP3    H157988   4.016   2.916  10.728  1.3031 -1.1933  0.8111
12191TIP3    H257989   3.886   2.881  10.797 -0.7884  1.6254 -1.4928
12192TIP3   OH257990   4.240   4.370   3.824 -0.3160  0.7359  0.0277
12192TIP3    H157991   4.226   4.341   3.733  1.9889  2.4531 -0.9847
12192TIP3    H257992   4.332   4.395   3.826  0.1011 -0.6008  3.3031
12193TIP3   OH257993   6.731   3.762   5.433 -0.1522 -0.2656  0.2170
12193TIP3    H157994   6.653   3.817   5.447 -0.3006 -0.6235  0.8329
12193TIP3    H257995   6.698   3.684   5.389  0.2022  0.5240 -1.5718
12194TIP3   OH257996   3.792   2.504   0.428 -0.2241  0.2151  0.0378
12194TIP3    H157997   3.768   2.568   0.496  0.5903 -0.2695  0.7940
12194TIP3    H257998   3.744   2.424   0.453 -1.6185  0.6218 -1.1676
12195TIP3   OH257999   3.671   0.503  13.854  0.0350 -0.3317 -0.6412
12195TIP3    H158000   3.740   0.545  13.802 -0.0394 -0.7079 -1.0487
12195TIP3    H258001   3.618   0.576  13.886 -0.1160 -0.1078 -1.3802
12196TIP3   OH258002   1.783   6.528   3.862  0.0293 -0.1411  0.3096
12196TIP3    H158003   1.804   6.559   3.950 -0.4793  0.1624  0.3274
12196TIP3    H258004   1.867   6.529   3.816  0.5468 -1.6039  1.1790
12197TIP3   OH258005   5.084   0.570   3.406 -0.1153 -0.2971  0.2215
12197TIP3    H158006   5.094   0.498   3.467 -1.3174  0.6522  1.5905
12197TIP3    H258007   5.014   0.624   3.443 -1.4986 -0.1176 -2.4083
12198TIP3   OH258008   1.899   2.461  16.912 -0.8699 -0.5503 -0.2693
12198TIP3    H158009   1.877   2.484  16.822 -0.5592  1.2954  0.0851
12198TIP3    H258010   1.938   2.373  16.906  0.2887  0.0363 -2.1130
12199TIP3   OH258011   2.232   3.603   4.048  0.0148  0.3899  0.3560
12199TIP3    H158012   2.266   3.658   4.119 -0.3938  0.9634  0.1072
12199TIP3    H258013   2.180   3.662   3.994  1.5689  0.3223 -1.3230
12200TIP3   OH258014   4.317   6.024  16.925  0.6781  0.4263 -0.1065
12200TIP3    H158015   4.356   6.109  16.906  2.0252 -0.5177 -1.8373
12200TIP3    H258016   4.232   6.026  16.881 -0.9027  2.0580  2.7177
12201TIP3   OH258017   5.214   0.556  16.224  0.0003 -0.1881 -0.2722
12201TIP3    H158018   5.178   0.534  16.138  0.3183  0.6796 -0.6355
12201TIP3    H258019   5.252   0.474  16.256 -0.3086 -0.5647 -0.8620
12202TIP3   OH258020   6.230   3.981  16.289 -0.7263 -0.0526 -0.0116
12202TIP3    H158021   6.263   4.061  16.331 -0.9758 -0.1964  0.4657
12202TIP3    H258022   6.177   4.013  16.216  0.7551  0.1760 -1.0304
12203TIP3   OH258023   0.890   4.651  11.762 -0.6487  0.4665 -0.3175
12203TIP3    H158024   0.915   4.597  11.686  0.7079 -0.9251  1.0303
12203TIP3    H258025   0.973   4.688  11.792 -1.1773  1.0394  0.4578
12204TIP3   OH258026   0.583   6.193  17.187 -0.1273  0.1271  0.1509
12204TIP3    H158027   0.514   6.136  17.221 -1.1311  0.8809 -0.5454
12204TIP3    H258028   0.617   6.146  17.111  0.9736 -0.7903  1.1654
12205TIP3   OH258029   1.539   2.450  15.919  0.5996  0.3668  0.0451
12205TIP3    H158030   1.516   2.450  15.826  2.1767  1.1721 -0.3818
12205TIP3    H258031   1.591   2.371  15.931  0.1729  0.1240  0.3103
12206TIP3   OH258032   1.996   4.728   5.049 -0.4175  0.8897  0.3810
12206TIP3    H158033   2.001   4.676   5.130 -0.7713  1.1597  0.5808
12206TIP3    H258034   2.030   4.671   4.981  3.2240  1.7871  1.2333
12207TIP3   OH258035   3.237   4.637  14.843 -0.5465 -0.2251  0.5195
12207TIP3    H158036   3.295   4.708  14.870 -0.9001  0.7232 -1.1405
12207TIP3    H258037   3.287   4.588  14.778 -1.3597  0.2265 -0.4632
12208TIP3   OH258038   0.505   0.109  15.073  0.2748  0.6178 -0.1051
12208TIP3    H158039   0.484   0.195  15.110 -0.3537 -0.8497  3.3134
12208TIP3    H258040   0.420   0.070  15.054  0.4556 -0.0535  0.4353
12209TIP3   OH258041   1.454   2.131   0.262 -0.1219  0.6085  0.0170
12209TIP3    H158042   1.361   2.152   0.270  0.0321  0.6469  2.1506
12209TIP3    H258043   1.456   2.053   0.206 -1.4297  0.6111 -0.0706
12210TIP3   OH258044   0.147   6.634   5.869 -0.2504  0.0007  0.3190
12210TIP3    H158045   0.108   6.711   5.912 -0.7771 -0.0330 -0.0845
12210TIP3    H258046   0.241   6.649   5.874 -0.2454 -0.4853  2.3641
12211TIP3   OH258047   1.589   5.889  16.249  0.1876  0.0348 -0.1491
12211TIP3    H158048   1.554   5.819  16.303 -0.5101 -0.5999 -1.3778
12211TIP3    H258049   1.665   5.851  16.205 -0.5405 -0.1665 -1.2756
12212TIP3   OH258050   6.521   5.742   5.171 -0.0029 -0.4367 -0.3951
12212TIP3    H158051   6.472   5.820   5.144  2.4805  1.0290 -0.9386
12212TIP3    H258052   6.607   5.775   5.197  0.9001 -2.9438  0.0807
12213TIP3   OH258053   1.587   5.788  12.785 -0.0562  0.6681  0.6667
12213TIP3    H158054   1.663   5.729  12.783 -0.6631 -0.1191 -0.1101
12213TIP3    H258055   1.596   5.842  12.707 -0.2334  0.6612  0.6416
12214TIP3   OH258056   2.582   3.554   0.581 -0.3875  0.3918 -0.1375
12214TIP3    H158057   2.574   3.459   0.576  2.1032  0.0640  0.5358
12214TIP3    H258058   2.554   3.585   0.495 -1.0312 -0.9562 -0.4460
12215TIP3   OH258059   3.119   6.532  13.433 -0.1470  0.6918  0.5480
12215TIP3    H158060   3.194   6.587  13.411  0.7978 -0.1675  1.5254
12215TIP3    H258061   3.052   6.593  13.463 -0.2922  1.5846 -1.3948
12216TIP3   OH258062   0.435   6.198   2.026 -0.4280  0.3864 -0.0294
12216TIP3    H158063   0.521   6.168   2.054 -0.4442  0.1691 -0.2057
12216TIP3    H258064   0.385   6.207   2.107  0.0453  1.4506  0.1733
12217TIP3   OH258065   2.586   4.357  16.399  0.6315 -0.0312 -0.0932
12217TIP3    H158066   2.654   4.312  16.349 -0.7158 -0.3643 -1.7400
12217TIP3    H258067   2.611   4.345  16.491  2.4580 -0.6273 -0.6229
12218TIP3   OH258068   0.090   1.557   4.294  0.3602 -0.4922  0.2157
12218TIP3    H158069   0.084   1.461   4.292  0.2601 -0.5048  0.8320
12218TIP3    H258070   0.124   1.577   4.381  2.6125 -0.0750 -0.7004
12219TIP3   OH258071   4.365   2.362   5.805  0.1981 -0.4903 -0.3607
12219TIP3    H158072   4.405   2.335   5.888  0.5672 -0.3495 -0.4894
12219TIP3    H258073   4.290   2.304   5.794 -0.3129 -0.0070  0.4603
12220TIP3   OH258074   1.534   0.196  12.175 -0.1763 -0.3148  0.1840
12220TIP3    H158075   1.469   0.167  12.112 -0.2675  0.4986 -0.1134
12220TIP3    H258076   1.483   0.223  12.252 -0.0018 -2.3727  1.0811
12221TIP3   OH258077   6.139   5.164   5.572  0.2725  0.4047 -0.5796
12221TIP3    H158078   6.212   5.191   5.517  1.5197 -0.9901  0.2968
12221TIP3    H258079   6.116   5.242   5.622  2.0166  0.5837  0.0196
12222TIP3   OH258080   4.313   1.181   0.286 -0.0659  0.3470 -0.2025
12222TIP3    H158081   4.356   1.227   0.214  0.5357 -0.8083 -0.6061
12222TIP3    H258082   4.374   1.112   0.311 -0.9470 -0.2625  0.3567
12223TIP3   OH258083   1.287   6.777  14.813  0.5414 -0.4884  0.0876
12223TIP3    H158084   1.352   6.781  14.743  0.0802 -2.1680 -0.4900
12223TIP3    H258085   1.204   6.794  14.769  0.4990  1.2129  0.7478
12224TIP3   OH258086   4.271   6.132   0.262 -0.0154 -0.0084 -0.3368
12224TIP3    H158087   4.282   6.212   0.210  0.0988  0.0374 -0.2434
12224TIP3    H258088   4.298   6.158   0.350 -1.9771  0.4550  0.1915
12225TIP3   OH258089   4.218   0.175   2.368 -0.0656 -0.3359 -0.0752
12225TIP3    H158090   4.123   0.177   2.384  0.1979 -0.3614  1.6708
12225TIP3    H258091   4.229   0.223   2.286 -1.4614  0.9832  0.4608
12226TIP3   OH258092   2.679   3.818   4.399  0.3254  0.7736 -0.5523
12226TIP3    H158093   2.772   3.829   4.419  0.4893 -0.4747 -0.5750
12226TIP3    H258094   2.675   3.744   4.339 -0.7292  0.3985 -0.0603
12227TIP3   OH258095   1.283   4.311  12.198  0.0853  0.3816  0.2708
12227TIP3    H158096   1.238   4.249  12.141  0.0416  0.2551  0.4418
12227TIP3    H258097   1.358   4.341  12.147 -0.9990  1.7389 -0.6292
12228TIP3   OH258098   4.193   0.554  12.842  0.3345  0.3931  0.0929
12228TIP3    H158099   4.107   0.589  12.863  0.3566 -0.5221  1.8705
12228TIP3    H258100   4.245   0.565  12.922  1.2383 -0.9322 -0.2671
12229TIP3   OH258101   0.588   5.920  12.625  0.2855  0.0147  0.2732
12229TIP3    H158102   0.660   5.934  12.563 -0.2236  2.4896  0.1345
12229TIP3    H258103   0.610   5.975  12.700 -0.9284 -0.0212  0.6721
12230TIP3   OH258104   5.008   1.131  13.795  0.0762 -0.2246 -0.4627
12230TIP3    H158105   4.938   1.193  13.818 -0.2067 -1.1569  1.3962
12230TIP3    H258106   4.980   1.048  13.834  1.4813 -0.9928 -1.0279
12231TIP3   OH258107   6.336   4.610  11.801 -0.1142  0.0231 -0.1111
12231TIP3    H158108   6.257   4.609  11.747  0.6105  0.8405 -1.2283
12231TIP3    H258109   6.394   4.673  11.758  1.0183 -0.3024  0.8783
12232TIP3   OH258110   4.547   3.381   1.901  0.1959  0.0477 -0.0236
12232TIP3    H158111   4.622   3.421   1.858  0.9816 -1.5038 -0.1715
12232TIP3    H258112   4.573   3.290   1.916 -2.1980 -0.9689 -1.4426
12233TIP3   OH258113   4.965   1.190   4.175  0.4666  0.3915  0.2415
12233TIP3    H158114   4.949   1.247   4.100  0.4456  0.0813  0.0087
12233TIP3    H258115   5.018   1.118   4.140  2.9942  1.7070  1.1223
12234TIP3   OH258116   2.356   4.814   3.009 -0.1887 -0.3364  0.4163
12234TIP3    H158117   2.364   4.847   2.920 -0.9112  0.4670  0.6338
12234TIP3    H258118   2.397   4.881   3.064  0.6062 -1.0083  0.6688
12235TIP3   OH258119   1.299   1.397  15.482 -0.8549  0.3830 -0.1803
12235TIP3    H158120   1.225   1.457  15.486 -1.6262 -0.5188 -0.6198
12235TIP3    H258121   1.350   1.427  15.407  0.8087  2.7422  1.7385
12236TIP3   OH258122   3.663   0.202   5.994 -0.3904 -0.3938 -0.2676
12236TIP3    H158123   3.675   0.183   5.901  1.5010  1.3433 -0.4546
12236TIP3    H258124   3.705   0.129   6.039 -3.0187 -2.2953 -0.6211
12237TIP3   OH258125   4.049   0.803   5.836  0.1182 -0.2205  0.4532
12237TIP3    H158126   4.082   0.854   5.910  0.4036  1.8552 -1.0261
12237TIP3    H258127   4.081   0.714   5.853  2.4259  0.7094  1.5188
12238TIP3   OH258128   2.525   1.479  16.307 -0.1257  0.1501  0.6209
12238TIP3    H158129   2.565   1.467  16.221  1.3748 -2.7340  1.5836
12238TIP3    H258130   2.593   1.523  16.359  0.2577 -1.0031  1.1361
12239TIP3   OH258131   4.126   3.492   3.564  0.2587 -0.8050  0.5255
12239TIP3    H158132   4.099   3.400   3.561 -1.9042 -0.2003 -0.1604
12239TIP3    H258133   4.140   3.509   3.657  1.4057 -2.0024  0.5969
12240TIP3   OH258134   4.965   5.787   3.003  0.3070  0.4914  0.3620
12240TIP3    H158135   5.019   5.747   2.934 -0.2446  0.4711 -0.0696
12240TIP3    H258136   4.875   5.782   2.969  0.1787  1.8023  0.4377
12241TIP3   OH258137   4.339   0.407   4.231  0.2759  0.2164  0.0832
12241TIP3    H158138   4.249   0.434   4.249  0.3697  0.5885 -0.0119
12241TIP3    H258139   4.393   0.481   4.258  0.6189 -0.3495  0.9805
12242TIP3   OH258140   3.761   1.617   5.152  0.3251  0.5504  0.6889
12242TIP3    H158141   3.786   1.526   5.164  0.9952  0.3483 -1.7435
12242TIP3    H258142   3.840   1.659   5.117 -0.6023  1.5248 -0.3322
12243TIP3   OH258143   5.104   3.408  13.188  0.4338  0.1023 -0.1216
12243TIP3    H158144   5.014   3.437  13.172  0.0850 -1.1768 -0.6057
12243TIP3    H258145   5.105   3.384  13.281  1.1264  2.9116  0.6842
12244TIP3   OH258146   3.920   3.491   3.406  0.0018 -0.5254  0.1958
12244TIP3    H158147   3.891   3.579   3.380  0.0340 -0.7447 -0.6014
12244TIP3    H258148   4.003   3.506   3.453 -1.1211  0.0652  2.1043
12245TIP3   OH258149   5.159   5.862  15.677 -0.0107  0.2533 -0.3936
12245TIP3    H158150   5.103   5.936  15.697 -0.5729 -0.3455  0.3004
12245TIP3    H258151   5.108   5.808  15.616 -0.4111 -0.5325  0.6059
12246TIP3   OH258152   1.550   4.896  13.624  0.5034  0.0675 -0.5302
12246TIP3    H158153   1.586   4.978  13.657 -1.9139  0.6838  0.7902
12246TIP3    H258154   1.569   4.832  13.693  0.9692 -0.1233 -0.8303
12247TIP3   OH258155   6.121   6.401   3.381 -1.1098 -0.1962 -0.6801
12247TIP3    H158156   6.109   6.330   3.445 -2.2138  0.0835 -0.5553
12247TIP3    H258157   6.188   6.456   3.420 -1.9090  0.0824  0.3661
12248TIP3   OH258158   2.613   6.643   1.504 -0.5316 -0.1251 -0.1038
12248TIP3    H158159   2.539   6.692   1.466 -0.1742  0.7870  0.3480
12248TIP3    H258160   2.633   6.576   1.439 -2.4122 -1.0693  0.2017
12249TIP3   OH258161   1.861   4.579   1.391 -0.1196  0.7137  0.0065
12249TIP3    H158162   1.866   4.632   1.311  0.0495 -1.5754 -1.6045
12249TIP3    H258163   1.946   4.593   1.433  0.1093  1.3428 -0.6299
12250TIP3   OH258164   4.444   6.147   1.484 -0.2698 -0.0303 -0.1681
12250TIP3    H158165   4.460   6.238   1.458  1.2456  0.1175  1.1513
12250TIP3    H258166   4.384   6.153   1.558 -0.4083 -0.1191 -0.2736
12251TIP3   OH258167   0.182   3.394  15.582 -0.2201 -0.0649 -0.2824
12251TIP3    H158168   0.274   3.381  15.558 -0.7864 -2.5242 -1.4683
12251TIP3    H258169   0.170   3.342  15.662 -0.2106  1.7395  0.9574
12252TIP3   OH258170   4.511   3.714  13.974  0.0545  0.6065  1.0423
12252TIP3    H158171   4.532   3.799  14.012 -1.4901  2.0900 -1.1190
12252TIP3    H258172   4.443   3.733  13.909 -0.7289 -2.3779  0.8276
12253TIP3   OH258173   2.594   4.666   5.725  0.0881  0.4344  0.0400
12253TIP3    H158174   2.540   4.742   5.748  2.0787  2.9158 -2.7924
12253TIP3    H258175   2.653   4.655   5.800  0.8215  2.8229 -0.1039
12254TIP3   OH258176   4.635   0.268  15.078  0.0863 -0.3340 -0.1036
12254TIP3    H158177   4.607   0.226  14.997 -1.4131  1.5551 -0.6392
12254TIP3    H258178   4.675   0.350  15.050  1.2006 -0.4676  1.0053
12255TIP3   OH258179   1.867   2.762   6.874  0.3638 -0.3761  0.4144
12255TIP3    H158180   1.901   2.692   6.930  1.1089  1.1544  1.9537
12255TIP3    H258181   1.926   2.835   6.888 -0.6674  0.7391 -0.7822
12256TIP3   OH258182   5.864   3.990   0.164 -0.5475  0.4157  0.7650
12256TIP3    H158183   5.832   4.016   0.078 -0.2756 -0.0156  0.5316
12256TIP3    H258184   5.793   4.012   0.224 -0.9867  0.1488  0.3457
12257TIP3   OH258185   6.015   4.736  14.597 -0.0103  1.1568 -0.9997
12257TIP3    H158186   5.972   4.789  14.531  0.1509  1.3331 -0.9641
12257TIP3    H258187   6.033   4.652  14.553 -0.2583  1.1340 -1.0564
12258TIP3   OH258188   5.778   6.192  11.434  0.5702 -0.4784 -0.2745
12258TIP3    H158189   5.773   6.150  11.520  3.3135  0.2163  0.3119
12258TIP3    H258190   5.714   6.263  11.439  0.9027 -0.2442  1.3386
12259TIP3   OH258191   2.505   3.674  16.547  0.2586 -0.6944 -0.5187
12259TIP3    H158192   2.542   3.636  16.627  0.8047 -0.6805 -0.7544
12259TIP3    H258193   2.502   3.768  16.564  0.5100 -0.6768 -0.5644
12260TIP3   OH258194   1.067   5.009  12.392  0.4806  0.1133 -0.7720
12260TIP3    H158195   1.059   4.932  12.335  1.8970 -0.1613 -0.6395
12260TIP3    H258196   1.107   4.975  12.472  0.4873  0.8711 -0.4531
12261TIP3   OH258197   5.133   2.471   5.875  0.2544  0.6329  0.3848
12261TIP3    H158198   5.147   2.426   5.792 -1.5126  0.5586  0.0963
12261TIP3    H258199   5.040   2.492   5.876  0.2011  0.5027  2.4162
12262TIP3   OH258200   3.522   0.507  13.245  0.2125 -0.0390  0.1831
12262TIP3    H158201   3.594   0.447  13.263 -0.0773 -0.1640  0.9726
12262TIP3    H258202   3.483   0.524  13.331  0.5336  1.6039  0.0248
12263TIP3   OH258203   5.127   2.781   4.199  0.7629  0.0740  0.5700
12263TIP3    H158204   5.053   2.841   4.192  1.4184  0.7941 -0.4778
12263TIP3    H258205   5.094   2.697   4.165  0.2506  0.2176  0.7146
12264TIP3   OH258206   0.144   4.841   1.468  0.1529 -0.2803  0.3583
12264TIP3    H158207   0.094   4.814   1.391  0.4821  1.9855 -0.7163
12264TIP3    H258208   0.078   4.878   1.527 -0.0520 -1.7243  1.0922
12265TIP3   OH258209   1.452   4.414  15.838  0.1525  0.0520  0.1383
12265TIP3    H158210   1.490   4.461  15.912  3.1726 -0.0865 -1.1806
12265TIP3    H258211   1.415   4.483  15.783  1.1448  0.5246  0.0446
12266TIP3   OH258212   4.564   6.518  12.901  0.2863  0.1452  0.3015
12266TIP3    H158213   4.536   6.451  12.839  0.3953  1.0385 -0.7550
12266TIP3    H258214   4.629   6.570  12.852  0.2975  0.9287  1.1273
12267TIP3   OH258215   2.269   6.647  12.551 -0.2828 -0.3345 -0.4796
12267TIP3    H158216   2.341   6.585  12.546 -0.5383 -0.8606  1.3603
12267TIP3    H258217   2.191   6.594  12.531 -0.3406 -0.2284 -0.5320
12268TIP3   OH258218   5.051   5.441   4.218  0.1407  0.7402 -0.1655
12268TIP3    H158219   5.039   5.498   4.142 -1.9164 -0.7455 -1.0431
12268TIP3    H258220   4.997   5.479   4.286 -1.1292 -0.0226 -0.7113
12269TIP3   OH258221   2.053   2.967   6.866  0.1674  0.0096 -0.1523
12269TIP3    H158222   2.079   2.931   6.782 -0.2080 -1.8306  0.4702
12269TIP3    H258223   1.993   3.039   6.844  1.9133  1.1496 -1.4593
12270TIP3   OH258224   4.903   5.995  16.007  0.2659 -0.1044  0.0858
12270TIP3    H158225   4.970   5.962  16.067 -0.2527 -0.6973  0.3466
12270TIP3    H258226   4.828   6.014  16.063 -0.2897 -0.8418 -0.3950
12271TIP3   OH258227   5.404   3.368  14.850 -0.1564  0.8731  0.1416
12271TIP3    H158228   5.450   3.401  14.773  0.8292 -0.8464 -0.0488
12271TIP3    H258229   5.405   3.273  14.840 -0.9749  0.6638  1.7394
12272TIP3   OH258230   4.018   5.847  13.623 -0.2426  0.3247  0.2910
12272TIP3    H158231   4.052   5.886  13.542  2.2342  0.2940  1.2542
12272TIP3    H258232   3.964   5.917  13.661  1.0965  1.4928  0.1301
12273TIP3   OH258233   6.342   0.431  15.845  0.5885  0.6528 -0.4031
12273TIP3    H158234   6.408   0.444  15.777  0.7396  0.7317 -0.2451
12273TIP3    H258235   6.394   0.421  15.926  0.7101 -3.3213 -0.7605
12274TIP3   OH258236   5.387   1.117  15.747  0.0047 -0.3718  0.1598
12274TIP3    H158237   5.334   1.119  15.827 -0.4989  1.3162 -0.1780
12274TIP3    H258238   5.473   1.149  15.775 -0.6204  1.8020 -0.2270
12275TIP3   OH258239   1.809   1.155   0.788 -0.2719 -0.0375 -0.4898
12275TIP3    H158240   1.872   1.155   0.860 -0.0821  2.0195 -0.6127
12275TIP3    H258241   1.775   1.244   0.784 -2.1097 -0.7071 -1.3970
12276TIP3   OH258242   5.499   4.761   2.431  0.0139  0.1270  0.2222
12276TIP3    H158243   5.561   4.712   2.378 -0.9814 -1.2673  0.3075
12276TIP3    H258244   5.531   4.752   2.521 -0.2201 -0.4553  0.2479
12277TIP3   OH258245   2.605   5.120   3.785 -0.4768  0.4404 -0.0077
12277TIP3    H158246   2.510   5.116   3.776 -0.5418 -0.6663  1.0024
12277TIP3    H258247   2.622   5.087   3.873  0.8927 -0.0514 -0.4422
12278TIP3   OH258248   4.010   0.800  16.483  0.1561  0.0375 -0.8644
12278TIP3    H158249   3.994   0.871  16.421 -1.9667  0.1147 -0.3095
12278TIP3    H258250   4.087   0.828  16.533  0.4362  1.0839 -1.8431
12279TIP3   OH258251   2.485   3.894  16.906  0.1152  0.4160  0.2830
12279TIP3    H158252   2.428   3.969  16.923 -0.8416 -0.0857 -0.5957
12279TIP3    H258253   2.498   3.896  16.811  1.0745  0.1645  0.4062
12280TIP3   OH258254   0.438   3.388  14.365  0.1106 -1.1586  0.3327
12280TIP3    H158255   0.393   3.352  14.288  3.5292 -0.1121 -2.3869
12280TIP3    H258256   0.429   3.483  14.356 -0.1224 -1.0240  1.7374
12281TIP3   OH258257   5.001   3.930   0.229 -0.3704 -0.1593  0.0131
12281TIP3    H158258   4.910   3.915   0.256 -0.0802 -2.2361  0.0015
12281TIP3    H258259   5.040   3.977   0.303 -1.0569 -0.6430  0.6952
12282TIP3   OH258260   5.019   3.654  12.597 -0.5552 -0.3535  0.0786
12282TIP3    H158261   4.939   3.603  12.613 -1.2141  0.0282 -1.7632
12282TIP3    H258262   4.988   3.733  12.553  0.9559 -1.0648 -2.4600
12283TIP3   OH258263   3.742   2.171  14.534 -0.4554 -0.5647 -0.1680
12283TIP3    H158264   3.683   2.150  14.606 -1.0508  2.7001  0.4562
12283TIP3    H258265   3.781   2.255  14.559  1.3777 -0.6473 -2.4456
12284TIP3   OH258266   1.026   4.035   2.434 -0.3230  0.0187  0.1380
12284TIP3    H158267   0.944   4.035   2.385 -0.4605  2.6255  0.2584
12284TIP3    H258268   1.001   4.055   2.524  0.4821  2.2176 -0.0632
12285TIP3   OH258269   6.069   1.916  13.911  0.0877  0.7731  0.3882
12285TIP3    H158270   6.002   1.960  13.858 -0.9154  2.4860  2.9125
12285TIP3    H258271   6.143   1.904  13.851 -2.0304 -0.2545 -2.2143
12286TIP3   OH258272   1.834   4.654  16.592  0.0371 -0.3483  0.0089
12286TIP3    H158273   1.798   4.565  16.594 -1.9420  0.4131  0.3549
12286TIP3    H258274   1.885   4.657  16.511 -0.2350 -1.6641 -0.2372
12287TIP3   OH258275   0.693   3.042   4.151 -0.3032  0.1008 -0.5363
12287TIP3    H158276   0.762   2.989   4.111  0.0436 -0.1981  0.4204
12287TIP3    H258277   0.724   3.132   4.143  0.2169 -0.0330 -0.0996
12288TIP3   OH258278   5.018   0.867   0.026  0.0583  0.3341 -0.2030
12288TIP3    H158279   5.063   0.917   0.094  0.1833 -1.1165  0.7990
12288TIP3    H258280   4.925   0.885   0.040  0.0357 -0.4895  0.8046
12289TIP3   OH258281   4.608   0.768   3.185  0.3818 -0.3208 -0.1004
12289TIP3    H158282   4.551   0.700   3.148 -2.5612  1.7567  0.2598
12289TIP3    H258283   4.646   0.811   3.108 -0.8059  0.0607 -0.4914
12290TIP3   OH258284   2.793   2.390   5.904  0.6069  0.2027 -0.6887
12290TIP3    H158285   2.703   2.374   5.878  0.2133 -0.6589  1.0376
12290TIP3    H258286   2.790   2.392   6.000  2.2637  1.1450 -0.6177
12291TIP3   OH258287   1.170   3.399   4.678  0.5142 -0.0023  0.4433
12291TIP3    H158288   1.138   3.470   4.734 -0.6536  0.0525 -0.2579
12291TIP3    H258289   1.110   3.326   4.695 -0.3872  0.2751 -1.3111
12292TIP3   OH258290   5.858   6.479  16.158 -0.0257 -0.1433 -0.8696
12292TIP3    H158291   5.903   6.498  16.241 -1.6458  0.7580 -0.1475
12292TIP3    H258292   5.855   6.383  16.154 -2.4998 -0.2899  1.6483
12293TIP3   OH258293   4.886   0.555   5.721  0.3475 -0.9972  0.0676
12293TIP3    H158294   4.829   0.625   5.689  0.8309 -1.0219 -0.9127
12293TIP3    H258295   4.830   0.478   5.726 -0.0100 -0.7153  0.3933
12294TIP3   OH258296   1.733   5.898  14.189  0.0480 -0.1031 -0.3966
12294TIP3    H158297   1.752   5.805  14.202 -1.2896 -0.2009  1.4106
12294TIP3    H258298   1.807   5.943  14.230 -0.6461 -0.4402  1.3508
12295TIP3   OH258299   5.684   3.209  15.863  0.3263 -0.0746 -0.1786
12295TIP3    H158300   5.627   3.276  15.899  0.4050 -0.4584  0.6713
12295TIP3    H258301   5.625   3.149  15.817  0.1746  0.1575 -0.2867
12296TIP3   OH258302   4.908   2.398   5.205  0.0882 -0.2238  0.0329
12296TIP3    H158303   4.849   2.326   5.183  0.6887 -0.9642  0.8014
12296TIP3    H258304   4.914   2.449   5.124 -2.3053  0.4037  0.1801
12297TIP3   OH258305   3.030   4.400   3.661 -0.8180 -0.6298  0.2431
12297TIP3    H158306   2.998   4.479   3.619 -2.5336 -1.0000  0.7825
12297TIP3    H258307   3.118   4.422   3.690 -0.8686  0.7116 -0.5653
12298TIP3   OH258308   5.410   2.277   0.758 -0.0274 -0.6374 -0.0685
12298TIP3    H158309   5.345   2.347   0.752 -0.7230 -1.3588 -1.3135
12298TIP3    H258310   5.463   2.300   0.835 -1.8816 -0.1514  1.1385
12299TIP3   OH258311   1.644   4.919  12.988  0.3287  0.0650  0.5245
12299TIP3    H158312   1.638   4.992  13.050 -0.1508 -0.3613  0.9970
12299TIP3    H258313   1.610   4.844  13.037  3.6061 -1.1727  1.1418
12300TIP3   OH258314   6.752   6.406  14.229  0.1895 -0.1114  0.1199
12300TIP3    H158315   6.839   6.404  14.268  1.1241 -1.1375 -1.8327
12300TIP3    H258316   6.742   6.496  14.198  0.3651  0.1256  0.7456
12301TIP3   OH258317   2.505   2.396  13.947 -0.1396 -0.0407  0.1515
12301TIP3    H158318   2.482   2.369  13.858  1.0904 -0.0599 -0.1821
12301TIP3    H258319   2.455   2.337  14.004 -0.8296 -0.1149 -0.5197
12302TIP3   OH258320   5.291   4.141   2.200 -0.4235 -0.0155  0.1793
12302TIP3    H158321   5.378   4.107   2.220  0.0401  0.1559 -1.4800
12302TIP3    H258322   5.304   4.232   2.176 -0.7159 -0.5272 -2.2023
12303TIP3   OH258323   2.007   3.648  17.132  0.1724  0.8064  0.4890
12303TIP3    H158324   2.069   3.614  17.197 -0.8467 -0.1872  0.9855
12303TIP3    H258325   1.939   3.691  17.185 -0.2802  0.6579  0.0340
12304TIP3   OH258326   2.155   3.031   5.280  0.0351  0.8327  0.9089
12304TIP3    H158327   2.099   3.040   5.202  1.0106  0.6972  0.1667
12304TIP3    H258328   2.129   2.948   5.319  0.8512 -0.0760 -0.3967
12305TIP3   OH258329   1.354   2.022   5.628  0.4091 -0.1428 -0.1862
12305TIP3    H158330   1.360   1.982   5.714  2.9908  1.1761  0.3373
12305TIP3    H258331   1.442   2.054   5.610 -0.2853  0.4914 -2.9032
12306TIP3   OH258332   4.499   0.515  11.920  0.2043 -0.6158 -0.0595
12306TIP3    H158333   4.581   0.527  11.872  0.7697  1.3463  1.2530
12306TIP3    H258334   4.442   0.585  11.888 -1.1840 -2.2493 -1.2981
12307TIP3   OH258335   4.293   0.101  16.998 -0.1515 -0.2830 -0.4897
12307TIP3    H158336   4.311   0.186  16.959  1.0497 -0.1358  0.3382
12307TIP3    H258337   4.351   0.041  16.952  2.0731  0.0609  1.6602
12308TIP3   OH258338   3.210   3.270  14.292  0.4623  0.6932  0.0729
12308TIP3    H158339   3.264   3.199  14.256  0.8045  2.0277 -2.2854
12308TIP3    H258340   3.135   3.226  14.332  0.9529 -1.0150 -0.7948
12309TIP3   OH258341   2.988   6.688  14.859 -0.3124  0.5301 -0.1310
12309TIP3    H158342   3.056   6.682  14.927 -0.0267  0.1989 -0.4387
12309TIP3    H258343   2.907   6.662  14.903  0.0499 -0.7297 -0.1722
12310TIP3   OH258344   4.788   4.593   0.256 -0.4487 -0.1646 -0.6302
12310TIP3    H158345   4.814   4.528   0.321  0.5207  0.2792 -0.5589
12310TIP3    H258346   4.802   4.677   0.300 -0.1322  0.1264 -1.2812
12311TIP3   OH258347   3.955   2.805   3.642  0.0290  0.1603 -0.4773
12311TIP3    H158348   3.922   2.715   3.643  1.0840 -0.2840 -2.2054
12311TIP3    H258349   4.044   2.797   3.608  0.1607  1.8595 -0.5829
12312TIP3   OH258350   5.524   5.548  15.109 -0.1716  0.3650  0.3675
12312TIP3    H158351   5.617   5.564  15.124 -0.1637  1.0791 -0.4112
12312TIP3    H258352   5.486   5.635  15.099 -0.6843  0.0332 -0.6891
12313TIP3   OH258353   1.765   1.446  15.193  0.0565 -0.0253 -0.1704
12313TIP3    H158354   1.791   1.517  15.252  1.3429 -0.6123  0.0027
12313TIP3    H258355   1.836   1.382  15.200 -0.8317 -1.0961 -0.7131
12314TIP3   OH258356   4.343   1.921   0.737 -1.0109  0.8836 -0.6737
12314TIP3    H158357   4.350   1.893   0.646 -1.5596  1.3650 -0.8741
12314TIP3    H258358   4.291   2.001   0.733 -0.3733  1.3461 -0.0177
12315TIP3   OH258359   3.814   1.561   4.198  0.4417  0.1613  0.7638
12315TIP3    H158360   3.865   1.542   4.120 -1.0825 -1.3259  0.0607
12315TIP3    H258361   3.790   1.653   4.190  1.1636  0.2932  0.0248
12316TIP3   OH258362   2.978   6.646  13.842  0.0278  0.5351 -0.0948
12316TIP3    H158363   3.021   6.703  13.778 -1.7197  3.1706  0.9196
12316TIP3    H258364   3.011   6.675  13.927 -1.4508  0.5925  0.4955
12317TIP3   OH258365   2.923   1.639   2.723 -0.2924  0.7211  0.0869
12317TIP3    H158366   2.974   1.568   2.763 -2.6683 -1.8950 -1.1606
12317TIP3    H258367   2.851   1.654   2.784 -1.2278  0.1673 -0.8470
12318TIP3   OH258368   0.528   2.165   3.551  0.2497  0.2794  0.1191
12318TIP3    H158369   0.603   2.202   3.503  0.5070 -0.7291 -0.2897
12318TIP3    H258370   0.459   2.157   3.486 -0.3034  1.4217  0.5503
12319TIP3   OH258371   2.508   6.454   0.907 -0.1758  0.0861  0.1264
12319TIP3    H158372   2.524   6.470   0.814 -0.7503 -0.8795 -0.1488
12319TIP3    H258373   2.580   6.500   0.952  0.4930 -0.0122 -0.8219
12320TIP3   OH258374   6.279   4.001   3.754 -0.4207  0.1280  0.1376
12320TIP3    H158375   6.275   3.907   3.775 -1.1681  0.1585  0.1612
12320TIP3    H258376   6.331   4.006   3.674  1.7574 -0.0757  1.4507
12321TIP3   OH258377   3.541   0.956  14.675  0.3390  0.5572  0.3746
12321TIP3    H158378   3.546   0.899  14.598 -1.7460 -0.0129  0.5950
12321TIP3    H258379   3.559   1.044  14.641  2.4327 -0.0514 -0.1824
12322TIP3   OH258380   4.539   4.353   1.263 -0.4827 -0.1098 -0.0676
12322TIP3    H158381   4.491   4.363   1.181 -2.2842 -0.7033  0.8566
12322TIP3    H258382   4.623   4.314   1.237 -0.6078  0.6034 -1.6949
12323TIP3   OH258383   2.871   5.652  10.555  0.0899 -0.3025 -0.6714
12323TIP3    H158384   2.823   5.601  10.490  1.7492 -1.6903 -0.8907
12323TIP3    H258385   2.889   5.591  10.626  0.6697  0.4362 -0.1591
12324TIP3   OH258386   2.289   3.759   1.845 -0.0035 -0.5226 -0.4827
12324TIP3    H158387   2.282   3.831   1.783 -0.3274 -1.2207 -1.2825
12324TIP3    H258388   2.383   3.751   1.863  0.0461 -0.0143 -0.5117
12325TIP3   OH258389   2.809   6.142  14.842  0.4047 -0.3383 -0.3543
12325TIP3    H158390   2.889   6.149  14.789  0.1384  0.9614 -0.6219
12325TIP3    H258391   2.770   6.229  14.838 -1.3936 -1.1108 -0.8086
12326TIP3   OH258392   3.301   5.130  16.706  0.1103 -0.2093 -0.0251
12326TIP3    H158393   3.325   5.088  16.623  2.3730  2.2315 -0.7695
12326TIP3    H258394   3.352   5.084  16.772 -2.3018 -2.7018  0.2974
12327TIP3   OH258395   6.076   0.658   6.297 -0.4791  0.2924 -0.1427
12327TIP3    H158396   6.047   0.589   6.238 -0.5490  0.8912 -0.8250
12327TIP3    H258397   6.026   0.644   6.377 -0.8818 -0.1314 -0.4648
12328TIP3   OH258398   0.427   1.837  14.065 -0.4003 -0.0781  0.1604
12328TIP3    H158399   0.429   1.931  14.082 -1.3219 -0.0503  0.1710
12328TIP3    H258400   0.362   1.826  13.996 -0.4709 -0.7246  0.3194
12329TIP3   OH258401   6.577   2.271  14.625  0.0454 -0.0127  0.0930
12329TIP3    H158402   6.532   2.199  14.581  1.8434 -1.0876 -0.0934
12329TIP3    H258403   6.586   2.338  14.557  1.6208 -1.1346 -0.8894
12330TIP3   OH258404   0.206   1.935  10.753  0.3869  0.6254 -0.1868
12330TIP3    H158405   0.185   1.845  10.729 -2.6213  0.8392  1.0833
12330TIP3    H258406   0.221   1.980  10.670  0.0514 -0.6536 -0.9588
12331TIP3   OH258407   1.025   5.576   1.460 -0.5103  0.2524 -0.3358
12331TIP3    H158408   1.075   5.614   1.388  0.1650 -1.3551 -0.7775
12331TIP3    H258409   1.075   5.498   1.485 -2.3869 -1.0213 -0.3126
12332TIP3   OH258410   3.966   1.665   2.447 -0.3172 -0.2602  0.4864
12332TIP3    H158411   3.989   1.573   2.436 -0.1936 -0.2033  0.2687
12332TIP3    H258412   3.998   1.687   2.535  0.9910 -0.0399 -0.0081
12333TIP3   OH258413   4.640   0.225   2.620 -0.0546  0.4930 -0.0607
12333TIP3    H158414   4.706   0.165   2.586  0.0044  0.5725 -0.0855
12333TIP3    H258415   4.565   0.169   2.640 -0.2580  0.5121 -0.7666
12334TIP3   OH258416   3.178   5.347   0.195 -0.5399 -0.3659  0.4045
12334TIP3    H158417   3.122   5.282   0.238  0.7420  0.0992  2.9315
12334TIP3    H258418   3.145   5.431   0.226  0.5721 -0.0266  0.7100
12335TIP3   OH258419   6.037   3.885   1.733  0.1838  0.1364 -0.3914
12335TIP3    H158420   5.981   3.940   1.679 -1.6071 -1.8741 -0.7259
12335TIP3    H258421   6.099   3.946   1.774 -1.1949  2.2556 -1.2918
12336TIP3   OH258422   1.030   1.955   2.711 -0.4051 -0.0582 -0.1680
12336TIP3    H158423   1.118   1.943   2.675 -0.4015  2.3087 -1.1706
12336TIP3    H258424   1.015   1.877   2.764  1.7303 -1.1883 -1.0808
12337TIP3   OH258425   5.294   3.649   4.546  0.5806 -0.1003  0.3302
12337TIP3    H158426   5.264   3.559   4.561  0.7135  0.2659  3.6350
12337TIP3    H258427   5.363   3.641   4.481  0.2988 -2.3297  0.2241
12338TIP3   OH258428   0.678   4.151  10.705 -0.4430  0.0580  0.0507
12338TIP3    H158429   0.615   4.172  10.636 -0.0096  0.6140 -0.1908
12338TIP3    H258430   0.633   4.171  10.786 -0.5947  0.4148 -0.1178
12339TIP3   OH258431   5.471   2.422  12.905  0.0237  0.2030  0.0961
12339TIP3    H158432   5.486   2.404  12.812 -0.0359 -0.8462  0.2799
12339TIP3    H258433   5.499   2.342  12.950 -0.1255  0.6302  0.9693
12340TIP3   OH258434   3.417   4.080  14.736  0.3663  0.3910 -0.3589
12340TIP3    H158435   3.354   4.151  14.740  1.1591  1.0653  0.4883
12340TIP3    H258436   3.501   4.120  14.759  1.2774 -0.3116 -2.2015
12341TIP3   OH258437   6.040   6.590   5.782  1.0514 -0.0089 -0.3614
12341TIP3    H158438   6.052   6.508   5.735  0.6239 -0.4986  0.3619
12341TIP3    H258439   5.973   6.637   5.732 -0.2520 -1.0313  0.3746
12342TIP3   OH258440   1.690   1.425  12.984 -0.3100 -0.0705 -0.1097
12342TIP3    H158441   1.723   1.417  13.074 -0.7956 -0.4832  0.0333
12342TIP3    H258442   1.607   1.472  12.992  0.1977  0.9184 -0.4685
12343TIP3   OH258443   4.673   2.496  10.926 -0.5733  0.1483 -0.5108
12343TIP3    H158444   4.719   2.541  10.997 -0.8292  0.6613 -0.6598
12343TIP3    H258445   4.733   2.428  10.897 -0.1572  0.4206 -0.3023
12344TIP3   OH258446   0.254   4.594   3.441 -0.1370 -0.2306 -0.3703
12344TIP3    H158447   0.258   4.510   3.487 -0.0805 -0.4177 -0.7129
12344TIP3    H258448   0.258   4.571   3.348 -0.5994  0.1160 -0.4854
12345TIP3   OH258449   5.671   1.890  12.078 -0.7196 -0.2143  0.1058
12345TIP3    H158450   5.700   1.812  12.125 -0.1778 -0.8540 -1.2449
12345TIP3    H258451   5.751   1.933  12.049 -0.9885  1.2251  1.3813
12346TIP3   OH258452   0.448   4.016   1.858 -0.2010  0.1899 -0.3497
12346TIP3    H158453   0.457   4.109   1.836 -0.7171  0.0506 -1.1840
12346TIP3    H258454   0.408   4.016   1.945  1.4009  0.7518  0.4120
12347TIP3   OH258455   0.061   5.496  12.491  0.0256 -0.2807  0.1806
12347TIP3    H158456   0.123   5.552  12.537  0.7128 -0.3068 -0.6848
12347TIP3    H258457   0.061   5.529  12.401 -1.4461 -0.0908  0.2270
12348TIP3   OH258458   1.669   3.033  13.420 -0.1293 -0.3422 -0.1680
12348TIP3    H158459   1.662   2.948  13.376  0.9996 -0.5313 -0.0017
12348TIP3    H258460   1.578   3.064  13.426 -0.4531 -1.0584 -1.1482
12349TIP3   OH258461   0.331   6.057   2.993  0.1283  0.3303  0.1393
12349TIP3    H158462   0.239   6.082   2.996  0.0917  0.1223  0.8295
12349TIP3    H258463   0.338   6.002   2.915 -0.6350 -0.8017  0.8280
12350TIP3   OH258464   3.163   4.096  13.568 -0.3658 -0.2306 -0.0015
12350TIP3    H158465   3.244   4.076  13.522  1.9882  0.4397  3.5218
12350TIP3    H258466   3.149   4.021  13.626 -1.0974  0.6293  0.9650
12351TIP3   OH258467   5.117   0.256   1.740 -0.0635 -0.4488  0.1573
12351TIP3    H158468   5.047   0.250   1.674 -0.9132 -1.1555  1.0869
12351TIP3    H258469   5.071   0.265   1.823  0.8550 -2.6826  0.9988
12352TIP3   OH258470   2.533   5.604   0.359 -0.5032 -0.0544  0.5926
12352TIP3    H158471   2.460   5.659   0.332  0.3202  0.2961 -1.0981
12352TIP3    H258472   2.581   5.586   0.278  2.2755  1.1867  1.8144
12353TIP3   OH258473   5.978   6.038   2.712 -0.5131  0.4394  0.1860
12353TIP3    H158474   6.063   5.996   2.699 -1.0145 -1.2550  1.8768
12353TIP3    H258475   5.982   6.073   2.801 -2.2263 -1.4980  1.1133
12354TIP3   OH258476   3.128   0.747   2.150 -0.7871 -0.5593 -0.1767
12354TIP3    H158477   3.156   0.696   2.226  0.2311  0.4429  0.1464
12354TIP3    H258478   3.135   0.686   2.077  1.9898 -0.4876 -0.0619
12355TIP3   OH258479   2.308   2.608  11.757 -0.7493 -0.1181  0.6964
12355TIP3    H158480   2.370   2.546  11.718 -0.5353 -0.4451  1.5237
12355TIP3    H258481   2.227   2.595  11.708 -0.6306 -0.8784  0.6909
12356TIP3   OH258482   3.551   6.787  13.530 -0.4490  0.0708 -0.2766
12356TIP3    H158483   3.524   6.854  13.467  0.2864  0.1918 -0.4653
12356TIP3    H258484   3.479   6.785  13.593 -1.2518 -0.1208 -1.1594
12357TIP3   OH258485   6.322   1.182  13.718  0.1619  0.1251 -0.0850
12357TIP3    H158486   6.392   1.126  13.686  0.7613  0.4107  0.6859
12357TIP3    H258487   6.285   1.223  13.639  0.4935 -0.4458 -0.5404
12358TIP3   OH258488   1.262   6.612  12.666 -0.0872 -0.4642 -0.4225
12358TIP3    H158489   1.284   6.568  12.585  1.1208 -2.0559  0.7045
12358TIP3    H258490   1.171   6.589  12.683 -0.1713 -0.5843 -1.0351
12359TIP3   OH258491   2.115   2.359   2.247 -0.9034  0.6115  0.2668
12359TIP3    H158492   2.195   2.392   2.288  0.4372 -0.5314 -1.2863
12359TIP3    H258493   2.139   2.349   2.155 -2.5261 -0.7679 -0.0395
12360TIP3   OH258494   4.968   2.995   6.538  0.5398  0.1830 -0.1458
12360TIP3    H158495   4.956   3.058   6.610  0.1585  0.3124 -0.3190
12360TIP3    H258496   4.968   3.049   6.459 -2.2819 -0.2111 -0.5200
12361TIP3   OH258497   4.788   2.090  12.768  0.3510  0.0854  0.3056
12361TIP3    H158498   4.820   2.114  12.681  2.1836 -1.0051  0.6176
12361TIP3    H258499   4.828   2.154  12.827  0.1492  0.0456  0.4892
12362TIP3   OH258500   6.538   6.188   6.374 -0.2747  0.3114  0.5655
12362TIP3    H158501   6.607   6.253   6.389  1.3499 -1.4242  1.0553
12362TIP3    H258502   6.469   6.212   6.436 -0.6950  2.7729 -0.7126
12363TIP3   OH258503   0.512   4.065   5.129 -0.0116 -0.0943 -1.2089
12363TIP3    H158504   0.503   3.990   5.187  0.5312 -0.0168 -1.0181
12363TIP3    H258505   0.515   4.140   5.187  1.7302 -0.0998 -1.2216
12364TIP3   OH258506   4.758   2.732  16.542 -0.7944 -0.3627  0.4678
12364TIP3    H158507   4.683   2.726  16.483  1.3035 -2.4444 -2.1977
12364TIP3    H258508   4.732   2.681  16.619 -1.5805 -2.5384 -1.1325
12365TIP3   OH258509   0.346   0.823  13.124 -0.0770  0.8007  0.3126
12365TIP3    H158510   0.341   0.755  13.056 -1.0677  0.7837  0.3833
12365TIP3    H258511   0.298   0.785  13.198 -0.8554  1.6743  0.2666
12366TIP3   OH258512   3.808   2.537  16.376  0.7723 -0.2049 -0.3191
12366TIP3    H158513   3.726   2.585  16.376  1.5329  1.3217  2.2182
12366TIP3    H258514   3.848   2.557  16.291 -0.7019  0.4003 -0.9006
12367TIP3   OH258515   2.456   2.396  11.646  0.1091 -0.0949  0.0173
12367TIP3    H158516   2.392   2.326  11.658 -1.1424  1.1568  0.8455
12367TIP3    H258517   2.499   2.374  11.563 -0.3769 -1.7353  0.1648
12368TIP3   OH258518   6.281   4.584   0.140  0.0297 -0.4599  0.0105
12368TIP3    H158519   6.211   4.565   0.202  0.0442 -0.1138  0.1375
12368TIP3    H258520   6.236   4.613   0.060 -0.0035 -1.2907 -0.2885
12369TIP3   OH258521   2.788   4.100   4.329 -0.3418  0.0076  0.1268
12369TIP3    H158522   2.711   4.043   4.330  0.3411 -0.9229  0.7842
12369TIP3    H258523   2.803   4.123   4.420  0.9492 -0.9346  0.1835
12370TIP3   OH258524   4.863   2.873  15.736  0.4131 -0.6703  0.4729
12370TIP3    H158525   4.924   2.809  15.772 -0.4162 -1.2026  0.9761
12370TIP3    H258526   4.803   2.893  15.808 -0.4227 -0.6791 -0.1998
12371TIP3   OH258527   4.460   0.294   3.406 -0.0607  0.0832 -0.5539
12371TIP3    H158528   4.514   0.259   3.477  1.3504  1.9288 -0.6412
12371TIP3    H258529   4.379   0.322   3.448 -0.1696 -0.8969 -0.0786
12372TIP3   OH258530   5.430   6.734  14.186  0.1348  0.7715  0.2125
12372TIP3    H158531   5.352   6.705  14.139  0.0653  1.0304  0.1665
12372TIP3    H258532   5.406   6.821  14.221  0.6251  1.1430 -0.3612
12373TIP3   OH258533   4.378   1.966   6.013 -0.3702  0.1564 -0.4259
12373TIP3    H158534   4.335   1.920   6.085  0.7923  0.7847  0.7293
12373TIP3    H258535   4.332   1.937   5.934 -1.6891 -0.5468  0.5660
12374TIP3   OH258536   3.090   0.789  15.266  0.1387 -0.0154  0.3794
12374TIP3    H158537   3.070   0.741  15.186 -2.7954  0.8796  0.4616
12374TIP3    H258538   3.021   0.763  15.328  2.2185 -0.5810  2.6323
12375TIP3   OH258539   5.446   2.705  12.687 -0.0085  0.3552  0.0968
12375TIP3    H158540   5.375   2.641  12.679  0.1143 -0.2259  2.7541
12375TIP3    H258541   5.519   2.665  12.639 -0.6013 -0.4432 -0.1591
12376TIP3   OH258542   2.610   5.253  12.576 -0.3171  0.3670 -0.7809
12376TIP3    H158543   2.570   5.340  12.566  1.4060  1.1355 -1.4674
12376TIP3    H258544   2.536   5.193  12.583 -1.5624  1.8173 -0.9950
12377TIP3   OH258545   0.192   5.399  14.774 -0.5940 -0.7633 -0.2199
12377TIP3    H158546   0.232   5.336  14.834 -1.6844 -0.6634  0.6363
12377TIP3    H258547   0.098   5.392  14.790 -0.8232  0.2121 -0.9901
12378TIP3   OH258548   0.659   6.000  11.029  0.1587 -0.2586 -0.2416
12378TIP3    H158549   0.739   5.947  11.032  1.5011  1.7203  0.8319
12378TIP3    H258550   0.592   5.940  10.995  2.1736 -1.8415 -1.6766
12379TIP3   OH258551   5.014   4.081  17.043 -0.1789 -0.2685 -0.2408
12379TIP3    H158552   4.991   4.173  17.030 -1.8892 -0.6231  0.0847
12379TIP3    H258553   4.933   4.040  17.071  0.3701 -2.0410 -1.1163
12380TIP3   OH258554   1.191   3.293   3.520 -0.2724 -0.0979 -0.2326
12380TIP3    H158555   1.175   3.339   3.438  0.1082 -1.1439 -0.9178
12380TIP3    H258556   1.196   3.200   3.495  0.8714 -0.3500  0.8212
12381TIP3   OH258557   6.478   5.307  15.518 -0.0669  0.2969 -0.1756
12381TIP3    H158558   6.420   5.272  15.451 -0.2100  0.9568 -0.4061
12381TIP3    H258559   6.506   5.231  15.568 -1.6603  0.0402  0.3744
12382TIP3   OH258560   4.327   2.678  14.981  0.1764  0.8405 -0.4984
12382TIP3    H158561   4.252   2.736  14.967  1.5654  2.5736 -1.2299
12382TIP3    H258562   4.292   2.606  15.033 -2.2932  0.8495 -1.9699
12383TIP3   OH258563   2.324   0.519   0.380  0.6113  0.4881 -0.0484
12383TIP3    H158564   2.320   0.575   0.458  3.1159  2.3506 -1.1425
12383TIP3    H258565   2.273   0.567   0.314  1.1028  0.4891 -0.4288
12384TIP3   OH258566   1.307   0.879  13.607  0.2024  0.2971  0.4888
12384TIP3    H158567   1.310   0.968  13.574  1.5677  0.0361 -0.1819
12384TIP3    H258568   1.319   0.824  13.530 -0.5143 -0.4680  0.9053
12385TIP3   OH258569   6.176   6.461   0.725 -0.9794 -0.5826  0.2211
12385TIP3    H158570   6.259   6.415   0.717 -1.5910 -1.4301 -2.0522
12385TIP3    H258571   6.130   6.416   0.796  0.3771 -0.2246  1.3728
12386TIP3   OH258572   4.070   5.702  16.420  0.0966  0.3843  0.0782
12386TIP3    H158573   4.027   5.623  16.387  1.5961  0.2215 -1.7107
12386TIP3    H258574   4.151   5.670  16.460  0.1241  0.9142  0.4549
12387TIP3   OH258575   6.116   0.915   0.554  0.2258  0.0184 -0.7021
12387TIP3    H158576   6.097   1.007   0.575 -1.3513 -0.6097  0.9347
12387TIP3    H258577   6.037   0.883   0.511  0.0603 -1.0013  0.3139
12388TIP3   OH258578   1.189   1.787   6.882 -0.5636  0.3904 -0.7179
12388TIP3    H158579   1.192   1.693   6.864  1.3786 -0.0185  1.3504
12388TIP3    H258580   1.108   1.799   6.932  0.3229 -0.6553  1.0593
12389TIP3   OH258581   6.090   1.746  15.585  0.3455  0.0264 -0.4328
12389TIP3    H158582   6.136   1.733  15.502  0.2431 -1.0113 -0.3371
12389TIP3    H258583   6.155   1.785  15.643  0.9207 -0.8201 -0.4950
12390TIP3   OH258584   0.546   5.866  14.654 -0.1828  0.1502 -0.4951
12390TIP3    H158585   0.481   5.798  14.677  1.6470 -1.0830  1.4573
12390TIP3    H258586   0.613   5.818  14.606 -1.0907  1.6169 -3.4293
12391TIP3   OH258587   4.758   4.691   5.809 -0.3430  0.3748  0.1610
12391TIP3    H158588   4.711   4.756   5.860 -2.1189 -0.6592 -0.0892
12391TIP3    H258589   4.845   4.686   5.849 -0.8337  1.4579  1.4002
12392TIP3   OH258590   1.148   2.597  12.776 -1.0514 -0.2791 -0.3746
12392TIP3    H158591   1.103   2.612  12.859 -1.6035 -0.4306 -0.6482
12392TIP3    H258592   1.174   2.504  12.780 -0.5044 -0.1215 -0.0972
12393TIP3   OH258593   2.827   0.602  13.554  0.5692  0.3331 -0.3654
12393TIP3    H158594   2.824   0.620  13.648  1.9515  1.3516 -0.4942
12393TIP3    H258595   2.829   0.506  13.548  2.3295  0.2557  0.7378
12394TIP3   OH258596   5.123   1.105   2.474 -0.2749  0.1771 -0.2886
12394TIP3    H158597   5.037   1.121   2.435  0.4963  0.9389 -1.7808
12394TIP3    H258598   5.104   1.081   2.565 -2.0869 -0.3081 -0.7402
12395TIP3   OH258599   2.208   4.334  14.540  0.0456  0.7043  0.3346
12395TIP3    H158600   2.250   4.418  14.559 -0.0665  0.5983  1.0726
12395TIP3    H258601   2.255   4.300  14.463  0.6271  1.0607  0.5287
12396TIP3   OH258602   0.578   0.958  11.922  0.2395 -0.1710 -0.1971
12396TIP3    H158603   0.657   0.910  11.947  0.1644  0.8444  2.3610
12396TIP3    H258604   0.507   0.894  11.930  0.5907 -0.6541 -0.8589
12397TIP3   OH258605   3.222   6.266   4.287 -1.0874  0.1881 -0.0787
12397TIP3    H158606   3.303   6.268   4.237  0.2984  0.2994  2.0638
12397TIP3    H258607   3.200   6.358   4.302 -1.4965  0.1569 -0.4577
12398TIP3   OH258608   4.964   5.798   2.260 -0.0572 -0.0627 -0.6278
12398TIP3    H158609   5.054   5.793   2.294 -0.3005  3.2556  0.9466
12398TIP3    H258610   4.915   5.737   2.315  1.0911 -1.3733 -1.0152
12399TIP3   OH258611   1.935   2.844   0.816  0.2842 -0.2967 -0.3156
12399TIP3    H158612   1.962   2.770   0.761 -0.1047 -0.0700 -0.8155
12399TIP3    H258613   1.906   2.803   0.898 -0.0477 -0.7167 -0.6331
12400TIP3   OH258614   2.969   2.565   5.748  0.5946  0.0762 -0.4210
12400TIP3    H158615   3.052   2.524   5.725  0.3240  0.6891 -2.6816
12400TIP3    H258616   2.911   2.491   5.770  0.9379 -0.5728 -1.6302
12401TIP3   OH258617   1.583   5.152   3.031 -0.4266  0.0072  0.2839
12401TIP3    H158618   1.561   5.104   2.952 -0.4150  1.4889 -0.6525
12401TIP3    H258619   1.503   5.201   3.052 -0.1262  0.3513  0.6405
12402TIP3   OH258620   0.184   4.959  16.018  0.3306  0.0451  0.0664
12402TIP3    H158621   0.236   4.937  15.941  1.0348  0.4161  0.4289
12402TIP3    H258622   0.207   5.049  16.039 -2.9065  1.4634 -1.7147
12403TIP3   OH258623   0.938   4.542  15.109 -0.8148  0.5003 -1.1928
12403TIP3    H158624   0.928   4.559  15.015 -1.1056 -1.2624 -1.5299
12403TIP3    H258625   0.855   4.500  15.134 -0.5927  0.6208 -0.2197
12404TIP3   OH258626   2.454   2.572   5.172  1.1579  0.1066  0.5005
12404TIP3    H158627   2.375   2.563   5.118  0.3657  1.7180  1.3115
12404TIP3    H258628   2.518   2.513   5.131 -0.1418 -0.4880 -0.7732
12405TIP3   OH258629   2.727   5.179  12.344 -0.4178 -0.1505  0.4543
12405TIP3    H158630   2.676   5.242  12.294 -0.4748 -0.7384 -0.2424
12405TIP3    H258631   2.721   5.210  12.434 -2.2851 -0.3926  0.4521
12406TIP3   OH258632   0.101   4.826  11.967  0.8023  0.5746  0.0771
12406TIP3    H158633   0.138   4.747  11.929  0.8465  1.4464 -1.8512
12406TIP3    H258634   0.131   4.827  12.058 -0.6777 -2.5059  0.7151
12407TIP3   OH258635   6.365   4.587   4.456 -0.4092 -0.2416  0.1834
12407TIP3    H158636   6.439   4.639   4.488 -0.4404 -0.9595  1.4920
12407TIP3    H258637   6.378   4.501   4.496 -0.7811 -1.0304 -1.3094
12408TIP3   OH258638   0.428   4.162   4.652 -0.8769  0.1456 -0.1147
12408TIP3    H158639   0.521   4.146   4.633 -0.2133  1.2653  1.8521
12408TIP3    H258640   0.421   4.148   4.747 -2.4767  1.1534 -0.0560
12409TIP3   OH258641   3.361   0.789   4.489  0.2702 -0.0191 -0.4685
12409TIP3    H158642   3.393   0.732   4.559  0.9062 -1.1030 -1.5855
12409TIP3    H258643   3.387   0.877   4.515  0.1849 -0.3541  0.8096
12410TIP3   OH258644   3.298   1.259  14.462 -0.7202 -0.0736 -0.2919
12410TIP3    H158645   3.295   1.316  14.385  0.4660  0.0016 -0.3082
12410TIP3    H258646   3.269   1.315  14.534 -0.4042  0.3003 -0.4498
12411TIP3   OH258647   4.230   5.187  13.467 -0.4105  0.3789  0.2856
12411TIP3    H158648   4.158   5.247  13.482 -3.2015 -3.1662  2.8614
12411TIP3    H258649   4.197   5.125  13.402  1.5270  0.3224 -0.7270
12412TIP3   OH258650   1.685   6.317  15.665  0.0971 -0.1620 -0.1198
12412TIP3    H158651   1.675   6.332  15.571  1.6517 -2.8204 -0.8327
12412TIP3    H258652   1.597   6.295  15.695 -0.9222  3.1167 -0.3178
12413TIP3   OH258653   4.782   6.693  12.036 -0.4141 -0.4561  0.1464
12413TIP3    H158654   4.846   6.741  11.984  1.7716 -1.5836  1.6710
12413TIP3    H258655   4.801   6.716  12.126 -2.8113 -0.1345  0.6549
12414TIP3   OH258656   2.756   3.452  15.930  0.0571 -0.0060 -0.7349
12414TIP3    H158657   2.793   3.519  15.988  1.5547 -2.2885  1.1619
12414TIP3    H258658   2.661   3.459  15.942  0.2746 -1.3620  3.4832
12415TIP3   OH258659   3.346   6.423   5.449 -0.1194 -0.5313 -0.2557
12415TIP3    H158660   3.329   6.396   5.539  0.6027 -0.2354 -0.0250
12415TIP3    H258661   3.441   6.416   5.439 -0.0993  0.2731 -0.7176
12416TIP3   OH258662   5.087   6.581   1.747 -0.3378 -0.1008  0.5435
12416TIP3    H158663   5.011   6.614   1.795  0.0301  0.3181  0.8423
12416TIP3    H258664   5.132   6.525   1.809  0.4963  0.9564  0.9180
12417TIP3   OH258665   6.132   2.812  14.309  0.4320 -0.1786  0.2295
12417TIP3    H158666   6.106   2.826  14.400  1.8237 -0.6657  0.7152
12417TIP3    H258667   6.077   2.740  14.279 -0.5382  0.4503  0.4439
12418TIP3   OH258668   3.580   1.976   4.361  0.1201  0.1111 -0.0378
12418TIP3    H158669   3.609   2.057   4.318 -0.3681  0.0952 -0.4082
12418TIP3    H258670   3.534   2.005   4.439  0.6727  0.1552  0.2789
12419TIP3   OH258671   6.729   0.215   3.593 -0.5064  0.2998 -0.5348
12419TIP3    H158672   6.679   0.137   3.567 -0.9592 -0.2052  1.6779
12419TIP3    H258673   6.805   0.215   3.534 -1.2977 -0.9146 -1.6135
12420TIP3   OH258674   6.174   4.934   1.883 -0.0831  0.1549  0.7132
12420TIP3    H158675   6.105   4.899   1.940  0.7871 -0.1104  1.6381
12420TIP3    H258676   6.149   4.906   1.795 -2.2691  1.8684  0.7157
12421TIP3   OH258677   2.475   1.965   5.757  0.6161  0.3700 -0.5472
12421TIP3    H158678   2.529   1.886   5.745  0.8893  0.4988 -0.2089
12421TIP3    H258679   2.506   2.002   5.840 -1.1951 -0.5012  0.5785
12422TIP3   OH258680   4.830   3.411  14.756  0.4191 -0.1497  0.4403
12422TIP3    H158681   4.833   3.350  14.682 -1.5969 -1.1022  1.0890
12422TIP3    H258682   4.887   3.483  14.729  1.3391 -1.3963 -1.1718
12423TIP3   OH258683   0.982   4.511   0.962  0.4106 -0.4090 -0.1198
12423TIP3    H158684   0.979   4.595   0.916  2.1428 -0.6835 -0.8348
12423TIP3    H258685   1.034   4.454   0.905  2.2371 -0.9090  1.8856
12424TIP3   OH258686   5.130   2.861   5.510  0.1483  0.0231  0.5219
12424TIP3    H158687   5.078   2.938   5.488  1.1165  0.0020 -2.2125
12424TIP3    H258688   5.220   2.894   5.514  0.6232 -0.9432 -1.0713
12425TIP3   OH258689   5.965   4.913   3.364  0.0222 -1.2996  0.0694
12425TIP3    H158690   5.979   5.005   3.341 -1.4851 -0.9026  0.6274
12425TIP3    H258691   6.030   4.865   3.313  2.2087  0.2161  1.2978
12426TIP3   OH258692   5.816   1.727  15.000  0.2310 -0.6067 -0.4284
12426TIP3    H158693   5.839   1.704  15.090 -1.0625 -2.0407 -0.4309
12426TIP3    H258694   5.830   1.647  14.950 -0.7928 -0.3391 -1.1754
12427TIP3   OH258695   6.762   1.655   4.860 -0.2841 -0.2707 -0.1778
12427TIP3    H158696   6.699   1.607   4.915 -0.6160  0.0265 -0.2988
12427TIP3    H258697   6.719   1.738   4.841  0.1845 -0.0292 -0.1863
12428TIP3   OH258698   1.915   5.309  14.368 -0.1903 -0.5077  0.1405
12428TIP3    H158699   1.953   5.338  14.285 -2.1391  0.0087 -0.6204
12428TIP3    H258700   1.935   5.215  14.372  0.3829 -0.4326 -0.6375
12429TIP3   OH258701   6.558   6.512  13.874  0.0932  0.0086  0.3754
12429TIP3    H158702   6.504   6.433  13.875 -0.1271  0.1590  1.5064
12429TIP3    H258703   6.637   6.488  13.923  0.6594  0.0697 -0.4849
12430TIP3   OH258704   4.758   1.559  11.798  0.2360  0.2375 -0.3313
12430TIP3    H158705   4.667   1.577  11.776  0.3318  1.1475 -0.0400
12430TIP3    H258706   4.758   1.548  11.893  0.6801  2.0483 -0.0788
12431TIP3   OH258707   4.295   4.993   5.224 -0.2777 -0.1712  0.0255
12431TIP3    H158708   4.260   4.986   5.313 -0.9926  0.3513 -0.2135
12431TIP3    H258709   4.386   5.019   5.237 -0.5876  0.6675  0.5858
12432TIP3   OH258710   2.644   6.071   1.889 -0.3105 -0.0292  0.2368
12432TIP3    H158711   2.723   6.055   1.837 -0.3421 -0.9161  0.4522
12432TIP3    H258712   2.583   6.002   1.863 -0.8795  0.4220  0.3517
12433TIP3   OH258713   4.714   4.274  16.255 -0.5703  0.5441 -0.1087
12433TIP3    H158714   4.669   4.197  16.290  0.1250 -0.2408 -0.8774
12433TIP3    H258715   4.775   4.300  16.324  1.1649 -1.2975 -0.8297
12434TIP3   OH258716   1.893   0.547  15.705  0.3447  0.2269 -0.7936
12434TIP3    H158717   1.878   0.641  15.716 -0.4161  0.0665 -0.3749
12434TIP3    H258718   1.936   0.520  15.786 -0.8921 -0.0632 -0.1970
12435TIP3   OH258719   0.120   2.048  16.086 -0.5734 -0.1992  0.5314
12435TIP3    H158720   0.058   2.019  16.019  2.2852 -0.7290 -2.1556
12435TIP3    H258721   0.142   2.137  16.060  0.8339 -0.5380  0.4848
12436TIP3   OH258722   5.066   5.607   5.782  0.1871  0.3717 -0.3118
12436TIP3    H158723   5.088   5.677   5.844  0.8850 -2.0405  2.3958
12436TIP3    H258724   4.972   5.592   5.796 -0.0787  1.0656 -1.2721
12437TIP3   OH258725   5.531   3.344   1.352  0.4048  0.3401  0.2303
12437TIP3    H158726   5.505   3.364   1.442 -1.9017  1.8645 -0.6654
12437TIP3    H258727   5.558   3.429   1.316 -0.2669  0.0846 -0.9363
12438TIP3   OH258728   6.043   5.720  16.994  0.0705 -0.1886 -0.0545
12438TIP3    H158729   6.010   5.810  16.992  0.8596  0.1058 -0.2771
12438TIP3    H258730   6.129   5.725  16.952  1.0575 -0.6346  1.8023
12439TIP3   OH258731   0.383   4.376  14.971  0.2879  0.1724 -0.3024
12439TIP3    H158732   0.303   4.383  14.919 -0.3334 -2.2915  0.2054
12439TIP3    H258733   0.449   4.343  14.911  0.4526  0.4666 -0.2864
12440TIP3   OH258734   4.237   3.187   2.084 -0.2058 -0.1735 -0.3018
12440TIP3    H158735   4.231   3.159   1.993  2.4736 -0.4120 -0.4849
12440TIP3    H258736   4.308   3.135   2.121  1.2327  2.4425  0.8943
12441TIP3   OH258737   1.232   6.340  16.134  0.9087  0.0942  0.4345
12441TIP3    H158738   1.283   6.331  16.215  0.9119  0.5551  0.4893
12441TIP3    H258739   1.295   6.329  16.064  0.8307 -0.7569  0.4829
12442TIP3   OH258740   6.641   5.616   2.341  0.5021 -0.0456  0.3050
12442TIP3    H158741   6.629   5.705   2.308 -2.4338 -1.3349 -2.6618
12442TIP3    H258742   6.732   5.594   2.319  0.8095  1.6794 -0.2950
12443TIP3   OH258743   1.911   1.958  14.101 -0.6806 -0.1881  0.1124
12443TIP3    H158744   1.911   2.004  14.186  2.3786 -0.3644  0.2895
12443TIP3    H258745   1.880   1.870  14.122  0.9242 -0.5127  1.2722
12444TIP3   OH258746   5.247   4.467   2.611 -0.1855 -0.1879  0.1572
12444TIP3    H158747   5.266   4.555   2.644  0.3530  0.3093 -1.3956
12444TIP3    H258748   5.275   4.469   2.520  0.6504 -2.2300  0.3018
12445TIP3   OH258749   3.239   3.565  14.924 -0.3493  0.1061 -0.0871
12445TIP3    H158750   3.187   3.645  14.929  1.4443  1.2807  1.0143
12445TIP3    H258751   3.298   3.570  15.000  0.9048 -1.4456 -0.8973
12446TIP3   OH258752   2.366   5.757  13.757  0.3665 -0.2741  0.2940
12446TIP3    H158753   2.378   5.714  13.842 -0.9472 -2.2706 -0.4692
12446TIP3    H258754   2.405   5.696  13.694 -0.7883  0.0210 -0.7474
12447TIP3   OH258755   3.929   4.676   5.129  0.0713 -0.0262 -0.0373
12447TIP3    H158756   4.017   4.679   5.167  0.5148 -1.7808 -0.8447
12447TIP3    H258757   3.912   4.766   5.101  2.5470 -0.0487 -1.9244
12448TIP3   OH258758   4.181   5.214  15.965  0.2065 -0.3856  0.0382
12448TIP3    H158759   4.133   5.284  16.008 -0.1075 -0.0411 -0.8518
12448TIP3    H258760   4.130   5.135  15.984  0.3811 -0.3278  0.7649
12449TIP3   OH258761   5.996   3.212  13.541  0.2061  0.3829  0.3912
12449TIP3    H158762   5.964   3.204  13.452 -0.3838  0.9276  0.5413
12449TIP3    H258763   5.944   3.284  13.578  0.3598  0.0863  1.2009
12450TIP3   OH258764   0.288   1.217   3.202  0.5845  0.2705 -0.1177
12450TIP3    H158765   0.222   1.280   3.173 -0.5869 -0.6564  0.4030
12450TIP3    H258766   0.364   1.234   3.147 -0.6062  0.4074 -1.8063
12451TIP3   OH258767   3.350   2.030  15.353 -0.1262  0.2176  0.0774
12451TIP3    H158768   3.341   2.123  15.374 -0.2628 -0.2922  2.5057
12451TIP3    H258769   3.260   1.997  15.353 -0.0708  0.0363 -0.6974
12452TIP3   OH258770   5.970   2.656  12.395  0.3196  0.0572  0.6412
12452TIP3    H158771   5.915   2.605  12.335  0.2295  0.6001  0.2503
12452TIP3    H258772   5.910   2.721  12.431  0.2110 -0.6932  1.8543
12453TIP3   OH258773   0.065   5.940  16.255  0.1103 -0.2234  0.1549
12453TIP3    H158774   0.097   6.024  16.222  1.7077 -0.6156  0.6135
12453TIP3    H258775   0.057   5.885  16.178 -0.5113  0.2053 -0.0939
12454TIP3   OH258776   5.402   0.506   5.411 -0.4723 -0.4627 -0.4267
12454TIP3    H158777   5.433   0.445   5.477  0.0384 -0.9004 -1.0566
12454TIP3    H258778   5.363   0.451   5.343 -1.6520  0.0225 -0.1668
12455TIP3   OH258779   4.453   4.811   3.819 -0.2370 -0.2709 -0.1850
12455TIP3    H158780   4.455   4.804   3.724 -1.5659 -0.7084 -0.2017
12455TIP3    H258781   4.398   4.888   3.836 -0.9631 -0.8756  0.2364
12456TIP3   OH258782   5.732   5.924  16.789  0.0271  0.0814 -0.0067
12456TIP3    H158783   5.778   5.970  16.860  0.3104 -0.2800  0.0445
12456TIP3    H258784   5.656   5.979  16.771 -1.7127 -1.2510  2.6158
12457TIP3   OH258785   1.321   3.927  14.229 -0.0492  0.0441 -0.2467
12457TIP3    H158786   1.387   3.867  14.262  0.1614 -0.2906 -1.2564
12457TIP3    H258787   1.277   3.960  14.308  0.4182 -0.7519  0.3603
12458TIP3   OH258788   1.410   3.264  12.138  0.0883  0.3613  0.4238
12458TIP3    H158789   1.370   3.186  12.102 -0.6637  0.8357  0.2135
12458TIP3    H258790   1.356   3.336  12.106  0.9657  0.9974  0.3343
12459TIP3   OH258791   2.973   4.945  11.040 -0.3078  0.0758  0.1990
12459TIP3    H158792   3.030   4.870  11.054  0.3406  0.4347 -0.5042
12459TIP3    H258793   2.928   4.926  10.958  0.1467  0.6363 -0.1798
12460TIP3   OH258794   0.068   0.155  15.990 -0.5385  0.4316  0.2368
12460TIP3    H158795  -0.005   0.217  15.994 -0.1387  0.8616  1.0805
12460TIP3    H258796   0.100   0.150  16.079 -1.7118 -2.4344  0.6083
12461TIP3   OH258797   3.237   3.735  15.451  0.7062 -0.5182  0.0352
12461TIP3    H158798   3.230   3.705  15.541 -0.6635 -0.5218 -0.0542
12461TIP3    H258799   3.330   3.757  15.440  0.4534  2.2280  2.3183
12462TIP3   OH258800   0.742   0.746   1.696 -0.1485 -0.1803 -0.4210
12462TIP3    H158801   0.826   0.792   1.687 -0.0095  0.5480  3.1559
12462TIP3    H258802   0.677   0.815   1.698 -0.3715 -0.3930  0.7113
12463TIP3   OH258803   4.494   6.128  11.765  0.2439 -0.4657  0.4887
12463TIP3    H158804   4.535   6.043  11.778  2.3336  0.2027 -1.1145
12463TIP3    H258805   4.475   6.132  11.671 -1.4246  0.2022  0.8112
12464TIP3   OH258806   6.078   5.211  15.763  0.0003  0.2301 -0.5556
12464TIP3    H158807   6.086   5.117  15.752 -1.1577  0.2449 -1.8539
12464TIP3    H258808   5.984   5.226  15.775  0.0389  1.2952 -1.3792
12465TIP3   OH258809   6.127   3.348  12.147 -0.9035  0.0182  0.2861
12465TIP3    H158810   6.159   3.399  12.073 -0.3294  0.3967  0.7869
12465TIP3    H258811   6.108   3.413  12.214 -2.1598 -0.2535  0.2140
12466TIP3   OH258812   3.525   4.477  12.018 -0.1081 -0.3323  0.3727
12466TIP3    H158813   3.598   4.534  12.041 -0.9435  1.3669 -1.0108
12466TIP3    H258814   3.459   4.535  11.980 -1.6269 -2.0102  0.2969
12467TIP3   OH258815   4.358   0.671  14.679  0.5831 -0.0276  0.4906
12467TIP3    H158816   4.381   0.763  14.674  1.8173 -0.3163  0.4642
12467TIP3    H258817   4.378   0.646  14.770 -0.5638 -0.0747  0.7445
12468TIP3   OH258818   2.799   5.777  16.846  0.3634  0.5056  0.2075
12468TIP3    H158819   2.726   5.717  16.857  0.0298  0.2893 -2.5894
12468TIP3    H258820   2.762   5.864  16.859  0.0407  0.3035  0.6400
12469TIP3   OH258821   3.743   2.433  15.766  0.2963 -0.3330  0.3533
12469TIP3    H158822   3.784   2.428  15.680 -1.3649  0.0518 -0.5014
12469TIP3    H258823   3.721   2.342  15.787  0.3080 -0.3765  0.1813
12470TIP3   OH258824   4.460   1.463   4.474  0.1562  0.2383  0.6582
12470TIP3    H158825   4.499   1.549   4.488  0.1455  0.0534  1.9634
12470TIP3    H258826   4.459   1.423   4.561  0.0590 -1.0362  0.0930
12471TIP3   OH258827   6.529   2.829  13.659  0.0372 -0.1827  0.1441
12471TIP3    H158828   6.613   2.842  13.616  0.5817 -0.0373  1.2222
12471TIP3    H258829   6.495   2.917  13.672  0.5467 -0.1296  1.2729
12472TIP3   OH258830   3.608   4.850   4.539 -0.2376  0.0117 -0.1400
12472TIP3    H158831   3.682   4.794   4.562 -1.1150 -1.1723 -0.1093
12472TIP3    H258832   3.568   4.873   4.622 -0.4870 -0.1733 -0.2071
12473TIP3   OH258833   3.277   5.245  13.555  0.2963  0.3138  0.0057
12473TIP3    H158834   3.371   5.267  13.559  0.0352  1.5777 -0.2842
12473TIP3    H258835   3.275   5.149  13.558  1.5576  0.2805  0.7207
12474TIP3   OH258836   3.260   6.243  12.763  0.4661  0.0279  0.1282
12474TIP3    H158837   3.347   6.207  12.746  1.1243  1.1260  1.0662
12474TIP3    H258838   3.239   6.293  12.684  1.4583  1.1993  0.5833
12475TIP3   OH258839   4.288   1.633   0.264 -0.3377  0.7859  1.3903
12475TIP3    H158840   4.217   1.578   0.230  0.2021  0.1382  1.2965
12475TIP3    H258841   4.291   1.708   0.205  0.9124 -0.5520 -0.3659
12476TIP3   OH258842   5.179   5.606   2.360 -0.5213 -0.5512 -0.1402
12476TIP3    H158843   5.136   5.554   2.291 -0.6562 -1.0050  0.2761
12476TIP3    H258844   5.163   5.556   2.440  0.6368 -0.6392  0.0545
12477TIP3   OH258845   0.375   2.949   3.602  0.0331  0.3021 -0.5095
12477TIP3    H158846   0.294   2.998   3.589 -0.8550 -1.4026 -1.7456
12477TIP3    H258847   0.349   2.857   3.599  1.9018 -0.2850 -0.1020
12478TIP3   OH258848   6.425   0.935  13.532 -0.3089 -0.0191 -0.6160
12478TIP3    H158849   6.489   0.865  13.544  1.6430  1.8453  0.4945
12478TIP3    H258850   6.455   0.982  13.455 -0.7852  0.4058 -0.5473
12479TIP3   OH258851   2.286   1.783   4.403 -0.6634  0.3733  0.0098
12479TIP3    H158852   2.253   1.701   4.365 -0.8126 -0.1178  1.1653
12479TIP3    H258853   2.371   1.760   4.439 -1.7819  0.0286  2.6425
12480TIP3   OH258854   1.984   2.597   2.985  0.0554  0.7264 -0.3806
12480TIP3    H158855   2.058   2.658   2.984  0.3811  0.3274 -0.6485
12480TIP3    H258856   1.999   2.543   3.062 -0.2705  1.0226 -0.1047
12481TIP3   OH258857   0.388   3.934   5.832  0.0706 -0.4283 -0.2257
12481TIP3    H158858   0.328   3.987   5.884 -0.5411  1.2533 -2.4981
12481TIP3    H258859   0.411   3.860   5.889  0.0431  1.6366  2.6606
12482TIP3   OH258860   4.919   1.042   0.903 -0.7861  0.5018 -0.1148
12482TIP3    H158861   4.952   1.102   0.836  0.1498  0.0612 -0.0579
12482TIP3    H258862   4.887   0.966   0.853  0.9816 -0.3435 -0.0397
12483TIP3   OH258863   6.097   3.547  12.389  0.0947 -0.5649 -0.9080
12483TIP3    H158864   6.014   3.572  12.348 -1.3648 -0.4875  1.8381
12483TIP3    H258865   6.074   3.532  12.480  3.4069  0.9040  0.3012
12484TIP3   OH258866   5.468   1.795   5.174 -0.6298 -0.1607 -0.0467
12484TIP3    H158867   5.409   1.734   5.218 -1.1741  0.9089  0.7617
12484TIP3    H258868   5.538   1.740   5.139 -0.0798 -1.0753  2.2752
12485TIP3   OH258869   5.406   3.615  14.185  0.1983 -0.5347 -0.0920
12485TIP3    H158870   5.474   3.566  14.231 -1.1338 -1.5941  0.8269
12485TIP3    H258871   5.342   3.549  14.158 -1.6373  0.6219  1.1633
12486TIP3   OH258872   6.148   0.447   4.155  0.4377  0.6244 -0.1708
12486TIP3    H158873   6.072   0.496   4.124 -0.0796 -1.0092 -1.6148
12486TIP3    H258874   6.216   0.463   4.090  0.7934  0.7319  0.2224
12487TIP3   OH258875   5.760   3.813   2.104  0.5410 -0.2503  0.0655
12487TIP3    H158876   5.684   3.755   2.099  1.7671 -2.0807  1.2600
12487TIP3    H258877   5.763   3.841   2.196  1.6137 -0.7259  0.2003
12488TIP3   OH258878   2.649   1.397   3.081  0.1038 -0.0570  0.3973
12488TIP3    H158879   2.736   1.432   3.062 -0.4645  0.9020 -0.5072
12488TIP3    H258880   2.593   1.433   3.013 -1.0671 -0.4353  1.1340
12489TIP3   OH258881   6.667   4.079  14.514  0.3593  0.2182 -0.2858
12489TIP3    H158882   6.664   3.985  14.496 -1.4416  0.1978 -0.0516
12489TIP3    H258883   6.731   4.113  14.451 -0.0818 -0.9566 -1.4206
12490TIP3   OH258884   6.111   5.422  11.665  0.0490 -0.2713 -0.0418
12490TIP3    H158885   6.018   5.441  11.681  0.2515  0.7696 -0.0448
12490TIP3    H258886   6.131   5.350  11.725 -0.8241 -0.6832 -0.2269
12491TIP3   OH258887   4.960   5.051  10.641  1.0297 -0.4896 -0.6334
12491TIP3    H158888   5.037   5.043  10.585  0.1975 -1.4532 -1.6801
12491TIP3    H258889   4.907   5.119  10.599  0.8712 -0.4851 -0.4267
12492TIP3   OH258890   4.752   3.452  11.637 -0.0250  0.2132 -0.4918
12492TIP3    H158891   4.795   3.528  11.596  2.1731 -0.3143  0.6920
12492TIP3    H258892   4.824   3.398  11.668 -1.5729 -1.7597 -0.1722
12493TIP3   OH258893   5.766   1.467  13.316 -0.2130 -0.2019  0.0408
12493TIP3    H158894   5.726   1.553  13.331  0.5457  0.0662  0.5616
12493TIP3    H258895   5.708   1.425  13.253 -0.1549  1.0230 -0.8822
12494TIP3   OH258896   1.371   2.625  16.980  0.0979 -0.1361  0.5330
12494TIP3    H158897   1.338   2.715  16.987 -1.5181 -0.6690  0.0408
12494TIP3    H258898   1.365   2.590  17.069 -1.4776 -0.4843  0.3092
12495TIP3   OH258899   2.057   4.513  13.662  0.5994 -0.0109  0.5308
12495TIP3    H158900   2.117   4.588  13.664 -0.8573  1.1965  1.9989
12495TIP3    H258901   2.107   4.441  13.699  1.9161  0.3056 -0.5675
12496TIP3   OH258902   3.241   2.882   2.153 -0.3835  0.2674 -0.1581
12496TIP3    H158903   3.291   2.835   2.220 -0.7899 -0.9069 -0.6512
12496TIP3    H258904   3.295   2.877   2.074 -0.2446  1.0089 -0.1248
12497TIP3   OH258905   1.026   2.516   5.988 -0.2410  0.4926 -0.3422
12497TIP3    H158906   1.085   2.441   5.981 -0.4267  0.3766 -0.6863
12497TIP3    H258907   1.029   2.557   5.902  0.6139  1.4562  0.1240
12498TIP3   OH258908   1.336   2.392  16.875  0.1726 -0.0082 -0.4261
12498TIP3    H158909   1.261   2.354  16.920  0.8137 -0.3559  0.4009
12498TIP3    H258910   1.359   2.468  16.928  1.1051 -0.5783  0.0310
12499TIP3   OH258911   5.371   3.074  16.999  0.2450 -0.6477 -0.4468
12499TIP3    H158912   5.336   3.159  16.973 -0.1811 -0.3220  1.0752
12499TIP3    H258913   5.320   3.011  16.949 -0.5665 -0.0655 -0.3758
12500TIP3   OH258914   3.235   1.358  17.194  0.6475  1.3899  0.0807
12500TIP3    H158915   3.196   1.383  17.110  0.2366 -0.3546 -0.2880
12500TIP3    H258916   3.297   1.429  17.213  1.3097  1.4700 -2.0714
12501TIP3   OH258917   4.059   6.497   3.121 -0.3244 -0.1908 -0.2037
12501TIP3    H158918   4.070   6.404   3.102  0.3071 -0.3073  0.6851
12501TIP3    H258919   3.980   6.502   3.174  0.5595 -0.4374  1.1835
12502TIP3   OH258920   2.092   1.590   4.650 -0.1474 -0.2142  0.0391
12502TIP3    H158921   2.044   1.662   4.692 -0.0809 -0.0278 -0.2042
12502TIP3    H258922   2.025   1.540   4.604 -0.0980  0.1017 -0.3804
12503TIP3   OH258923   0.580   2.270   6.149 -0.0901 -0.2173 -0.2529
12503TIP3    H158924   0.606   2.291   6.239 -1.0807  2.3514 -0.4753
12503TIP3    H258925   0.562   2.176   6.150  0.4615 -0.3514  2.0747
12504TIP3   OH258926   1.964   4.300  14.475 -0.5702 -0.1836 -0.0361
12504TIP3    H158927   1.921   4.381  14.501 -1.3231 -1.3932  2.8312
12504TIP3    H258928   2.053   4.307  14.508 -0.0681  0.1508 -1.3699
12505TIP3   OH258929   0.078   3.260  13.224  0.2855  0.3886 -0.1158
12505TIP3    H158930   0.109   3.327  13.285  0.7056  0.1717 -0.0938
12505TIP3    H258931   0.157   3.229  13.180 -0.0587  0.9013 -1.1393
12506TIP3   OH258932   2.986   0.473   4.019 -0.2596 -0.1147  0.4972
12506TIP3    H158933   3.073   0.472   3.981 -0.8189  0.3430 -0.8540
12506TIP3    H258934   2.996   0.521   4.102  0.7293  0.0876  0.2689
12507TIP3   OH258935   5.809   3.817   5.068  0.1702 -0.5530 -0.0405
12507TIP3    H158936   5.818   3.807   4.974  1.4488 -2.9490  0.2342
12507TIP3    H258937   5.885   3.769   5.104 -0.8646 -0.6421  2.2039
12508TIP3   OH258938   1.277   0.930   5.533  0.7422 -0.1141  0.5832
12508TIP3    H158939   1.316   0.879   5.461 -1.0606 -0.5872 -0.0966
12508TIP3    H258940   1.317   0.893   5.612 -0.4151 -2.6085  0.1126
12509TIP3   OH258941   5.828   3.284  17.003 -0.3394 -0.1297 -0.0547
12509TIP3    H158942   5.750   3.229  17.009 -0.0591 -0.5268  0.0523
12509TIP3    H258943   5.830   3.331  17.086 -1.0027  0.6326 -0.4588
12510TIP3   OH258944   6.310   1.963   3.293  0.5777 -0.5047  0.5758
12510TIP3    H158945   6.345   1.899   3.231 -0.6535 -1.6663  1.0253
12510TIP3    H258946   6.341   1.932   3.378  0.7269  0.0310  0.7196
12511TIP3   OH258947   4.787   4.129   3.989 -0.0297 -0.7211  0.3682
12511TIP3    H158948   4.881   4.137   4.003  0.0501  0.1683 -0.5379
12511TIP3    H258949   4.766   4.039   4.015  1.2476 -1.2446 -0.3434
12512TIP3   OH258950   0.456   0.249   5.737 -0.1075 -0.6362 -0.2054
12512TIP3    H158951   0.410   0.177   5.780  1.2395 -0.7521  1.1346
12512TIP3    H258952   0.387   0.307   5.706 -1.1638 -1.3075  0.8063
12513TIP3   OH258953   1.450   5.915   0.508 -0.1841  0.3370 -0.1148
12513TIP3    H158954   1.440   5.821   0.491  4.2447 -0.1777 -0.9375
12513TIP3    H258955   1.491   5.919   0.595  0.1985  1.4851 -0.3396
12514TIP3   OH258956   5.899   3.129  12.866 -0.1669  0.8165 -0.1421
12514TIP3    H158957   5.932   3.192  12.930 -0.1344  0.3808  0.2795
12514TIP3    H258958   5.971   3.066  12.856 -0.2718  0.7401 -0.4171
12515TIP3   OH258959   3.923   0.245  12.705  0.1550  0.2378  0.2038
12515TIP3    H158960   3.905   0.286  12.790  0.0560 -0.9994  0.8022
12515TIP3    H258961   3.927   0.319  12.644  0.5894  1.1912  1.3336
12516TIP3   OH258962   5.806   2.408   2.306 -0.4221 -0.2538 -0.4357
12516TIP3    H158963   5.849   2.485   2.268 -0.3473 -1.5795 -3.2953
12516TIP3    H258964   5.833   2.409   2.398  1.4896  1.8194 -0.9163
12517TIP3   OH258965   1.540   2.927   1.099 -0.5093  0.1450 -0.5540
12517TIP3    H158966   1.539   2.885   1.186 -1.3684  0.0069 -0.6169
12517TIP3    H258967   1.462   2.892   1.056 -0.2438  0.4424 -1.2750
12518TIP3   OH258968   5.291   5.361   4.547 -0.3263  0.4594 -0.3802
12518TIP3    H158969   5.320   5.330   4.632  0.2534  2.0292  0.0375
12518TIP3    H258970   5.358   5.329   4.486  1.1699  2.1808  0.2706
12519TIP3   OH258971   4.111   6.379  14.725  0.3464  0.0416 -0.4568
12519TIP3    H158972   4.125   6.360  14.818 -0.5302 -2.0288 -0.6919
12519TIP3    H258973   4.161   6.459  14.710  1.6142 -0.2925  1.4889
12520TIP3   OH258974   5.164   4.900   0.239  0.5712 -0.2114  0.1007
12520TIP3    H158975   5.156   4.960   0.165  0.7935 -0.6444 -0.2743
12520TIP3    H258976   5.256   4.875   0.241  0.6120 -0.0461  0.6529
12521TIP3   OH258977   1.633   1.865  12.499 -0.5622  0.2383  0.2412
12521TIP3    H158978   1.716   1.872  12.548 -0.9095  1.5871  0.6804
12521TIP3    H258979   1.568   1.903  12.558 -1.4443 -0.4858 -0.2540
12522TIP3   OH258980   5.486   2.103   4.911 -0.2280 -0.5562 -0.4913
12522TIP3    H158981   5.576   2.116   4.939 -0.7668 -0.4389  1.2837
12522TIP3    H258982   5.450   2.040   4.974 -1.4591 -0.4052 -1.0134
12523TIP3   OH258983   2.103   0.443  16.471 -0.6429  0.3140  0.4398
12523TIP3    H158984   2.011   0.414  16.466 -0.3155 -0.6957 -0.0949
12523TIP3    H258985   2.098   0.531  16.508 -1.8339  0.2975  0.3797
12524TIP3   OH258986   4.392   2.025  16.970 -0.3361 -0.1694  0.0918
12524TIP3    H158987   4.406   2.119  16.986 -0.4140  0.0243 -0.8574
12524TIP3    H258988   4.298   2.013  16.982 -0.5340  0.1526 -0.9670
12525TIP3   OH258989   0.479   3.371  15.467 -0.2035  0.0146 -0.1464
12525TIP3    H158990   0.466   3.283  15.501 -0.3783  0.9738  2.4964
12525TIP3    H258991   0.542   3.412  15.528 -0.8038  1.9793 -0.7595
12526TIP3   OH258992   6.646   3.431  13.174  0.1431 -0.4776 -0.2363
12526TIP3    H158993   6.719   3.376  13.203 -0.5289 -1.6058 -0.6159
12526TIP3    H258994   6.616   3.390  13.093 -0.0021  0.8160 -0.8540
12527TIP3   OH258995   2.412   6.479  11.513  0.8878  0.8437 -0.4623
12527TIP3    H158996   2.465   6.399  11.518 -0.9067 -0.4005 -0.4418
12527TIP3    H258997   2.463   6.544  11.562  2.3490 -0.3074 -0.3876
12528TIP3   OH258998   5.393   1.687  15.404  0.2880  0.1489 -0.3925
12528TIP3    H158999   5.412   1.632  15.328  0.2114 -0.1025 -0.2308
12528TIP3    H259000   5.463   1.665  15.467  0.5301  0.5788 -0.5045
12529TIP3   OH259001   3.043   6.121  13.913  0.1123  0.8465  0.0486
12529TIP3    H159002   3.102   6.151  13.844 -1.4812  1.6393 -1.0368
12529TIP3    H259003   3.018   6.201  13.960  1.1093  0.3317  1.5496
12530TIP3   OH259004   6.641   0.092  14.725 -0.3557  0.3564  0.0837
12530TIP3    H159005   6.589   0.169  14.746 -1.2138 -0.0468 -0.5081
12530TIP3    H259006   6.597   0.020  14.771  1.1393  0.3762  1.6534
12531TIP3   OH259007   0.024   5.927  11.352  0.6038  0.2999 -0.4736
12531TIP3    H159008  -0.003   5.988  11.421  0.9936 -0.3097  0.2338
12531TIP3    H259009   0.085   5.867  11.395  0.3243 -0.5165 -1.1852
12532TIP3   OH259010   1.843   0.248   0.913  0.2505 -0.1488  0.3551
12532TIP3    H159011   1.934   0.242   0.942  0.1597 -1.5790  0.4151
12532TIP3    H259012   1.794   0.272   0.992  0.5059  0.0521  0.4528
12533TIP3   OH259013   2.147   6.391   2.782  0.4944 -0.3137 -0.5225
12533TIP3    H159014   2.195   6.433   2.711  1.1049 -1.7074 -0.9787
12533TIP3    H259015   2.188   6.304   2.790 -0.6212 -0.7755  0.4617
12534TIP3   OH259016   0.798   0.582   4.488  0.5605 -0.4164  0.6713
12534TIP3    H159017   0.863   0.518   4.519  1.2094 -0.2870 -0.3886
12534TIP3    H259018   0.821   0.598   4.397  0.6997  1.6718  1.0098
12535TIP3   OH259019   0.777   2.855   7.086  0.1775  0.6322  0.2166
12535TIP3    H159020   0.746   2.882   6.999 -0.7102  1.3310  0.7343
12535TIP3    H259021   0.868   2.829   7.071  0.0049  0.6241 -0.9464
12536TIP3   OH259022   2.702   1.690   2.852  0.1848  0.2823 -0.3590
12536TIP3    H159023   2.675   1.780   2.837  0.3315  0.6775  1.4917
12536TIP3    H259024   2.713   1.683   2.947  0.1304 -1.7018 -0.4437
12537TIP3   OH259025   4.893   5.178  16.081 -0.4552 -0.5012  0.0353
12537TIP3    H159026   4.817   5.221  16.122 -0.0795 -1.4846  1.8560
12537TIP3    H259027   4.952   5.251  16.059 -2.1015  0.3395 -1.9474
12538TIP3   OH259028   1.285   0.620   2.689 -0.5231 -0.1433 -0.1297
12538TIP3    H159029   1.274   0.703   2.643  0.8170 -0.6078 -1.3440
12538TIP3    H259030   1.354   0.636   2.753  0.9940 -0.7546 -1.5621
12539TIP3   OH259031   2.860   4.629   4.235 -0.2990  0.1154 -0.1899
12539TIP3    H159032   2.926   4.577   4.191  0.0082  0.1616  0.2152
12539TIP3    H259033   2.780   4.615   4.184 -0.0121 -0.0520 -0.5925
12540TIP3   OH259034   5.277   2.076  16.895 -0.1453 -0.6018  0.0694
12540TIP3    H159035   5.349   2.018  16.918  1.5993  1.5861  0.4146
12540TIP3    H259036   5.267   2.068  16.800  1.5198  0.0690 -0.1885
12541TIP3   OH259037   3.918   5.305  14.543 -0.4951  0.1567  0.5123
12541TIP3    H159038   4.013   5.305  14.531 -0.1930  0.2387  2.5495
12541TIP3    H259039   3.884   5.354  14.468  1.1005  0.4836 -0.0326
12542TIP3   OH259040   0.285   1.630  10.821  0.8327  0.5532 -0.2939
12542TIP3    H159041   0.307   1.537  10.819 -0.7796  0.1307 -0.2879
12542TIP3    H259042   0.243   1.646  10.737 -0.9831  0.6845  0.5868
12543TIP3   OH259043   0.816   0.974  16.696 -0.3947  0.3551 -0.5808
12543TIP3    H159044   0.771   0.929  16.768  1.4875  1.3449  1.3328
12543TIP3    H259045   0.814   1.067  16.721  1.4940  0.5707 -1.0491
12544TIP3   OH259046   1.252   6.594  13.823 -0.6645  0.9962 -0.3942
12544TIP3    H159047   1.193   6.557  13.757  0.6511  0.8614 -1.5365
12544TIP3    H259048   1.240   6.538  13.900  0.2396 -0.9942 -1.6221
12545TIP3   OH259049   1.510   4.103   4.820 -0.2922  0.1124  0.0766
12545TIP3    H159050   1.561   4.145   4.889 -0.2865 -1.4493  1.0671
12545TIP3    H259051   1.435   4.064   4.865  0.6884 -2.5830 -0.3946
12546TIP3   OH259052   1.081   3.689   4.654  0.4407  0.1460 -0.0183
12546TIP3    H159053   1.167   3.722   4.626  0.1442  0.6005 -0.4140
12546TIP3    H259054   1.022   3.715   4.583  0.2151 -1.3914 -0.4260
12547TIP3   OH259055   6.700   1.528   0.650 -0.7884  0.1965 -0.2915
12547TIP3    H159056   6.723   1.500   0.562  0.1697 -0.1121  0.0414
12547TIP3    H259057   6.639   1.600   0.637 -0.0996  0.6411 -1.2252
12548TIP3   OH259058   6.101   3.700  10.447  0.1153 -0.3727 -0.3148
12548TIP3    H159059   6.037   3.662  10.507  1.7056 -2.7697 -0.0045
12548TIP3    H259060   6.052   3.766  10.398 -2.1961 -1.0980  0.8964
12549TIP3   OH259061   6.786   2.017  15.857  0.2756 -0.2486  0.3617
12549TIP3    H159062   6.774   2.107  15.829  2.5392 -0.0995 -0.3412
12549TIP3    H259063   6.769   1.965  15.778  0.7140 -0.3000  0.3009
12550TIP3   OH259064   6.287   1.327   3.971  1.0296 -0.1763 -0.1683
12550TIP3    H159065   6.260   1.310   3.881  0.5871 -3.0513  0.4361
12550TIP3    H259066   6.205   1.330   4.021  1.3169  0.6694  0.2762
12551TIP3   OH259067   3.300   5.651   4.572  0.2953  0.2012  0.5506
12551TIP3    H159068   3.376   5.596   4.593 -0.0475 -1.4261 -1.9164
12551TIP3    H259069   3.338   5.731   4.536  0.8731 -0.2640  0.0888
12552TIP3   OH259070   6.677   3.861   3.724  0.0854  0.4110  0.4540
12552TIP3    H159071   6.690   3.895   3.636 -0.5248  0.9928  0.5829
12552TIP3    H259072   6.632   3.778   3.711  0.6182  0.1552  0.1932
12553TIP3   OH259073   4.152   4.127   1.358  0.0048  0.1591  0.2035
12553TIP3    H159074   4.234   4.161   1.392 -0.4299  2.8113 -1.1332
12553TIP3    H259075   4.086   4.155   1.422 -0.2664  1.2739 -0.5373
12554TIP3   OH259076   0.159   2.785  10.941  0.1789  0.1227  0.2188
12554TIP3    H159077   0.086   2.723  10.944  0.8796 -0.6973  0.4007
12554TIP3    H259078   0.226   2.742  10.889  0.9701  0.4087  0.9797
12555TIP3   OH259079   5.712   4.917   2.178 -0.1201 -0.3149 -0.0241
12555TIP3    H159080   5.620   4.927   2.204 -0.1200  0.4013 -0.2819
12555TIP3    H259081   5.762   4.931   2.258 -0.2251 -0.5089  0.0767
12556TIP3   OH259082   5.723   2.526   3.977  0.6934  0.2279 -0.1099
12556TIP3    H159083   5.736   2.443   4.023 -0.5212 -0.7084 -1.3700
12556TIP3    H259084   5.740   2.505   3.885 -0.9261  1.0386 -0.6261
12557TIP3   OH259085   0.539   2.208  15.826  0.4539  0.4192  0.2110
12557TIP3    H159086   0.482   2.144  15.783  0.6209  0.0916  0.4802
12557TIP3    H259087   0.555   2.274  15.758 -0.8490  0.9062  0.3551
12558TIP3   OH259088   3.132   5.614  14.594 -0.1974  0.5929  0.6705
12558TIP3    H159089   3.106   5.546  14.532 -0.5331 -1.3116  2.7849
12558TIP3    H259090   3.226   5.625  14.579  0.4491 -2.2570  1.9404
12559TIP3   OH259091   6.572   4.037  14.050  0.8400  0.1645 -1.1951
12559TIP3    H159092   6.483   4.031  14.014  1.4862  1.8389 -3.2444
12559TIP3    H259093   6.562   4.092  14.127  0.2927  1.8198 -2.3893
12560TIP3   OH259094   5.164   2.959   2.144 -0.4690  0.1996  0.0547
12560TIP3    H159095   5.087   2.906   2.121 -1.7011  1.4959  1.0236
12560TIP3    H259096   5.210   2.906   2.209 -1.6508  0.2407  0.9696
12561TIP3   OH259097   6.543   2.619  17.160 -0.0968  0.4760  0.1270
12561TIP3    H159098   6.494   2.697  17.187  1.7895  1.6091  0.4689
12561TIP3    H259099   6.571   2.579  17.242 -0.8761 -0.4804 -0.0545
12562TIP3   OH259100   4.908   1.088   6.517  0.3411  0.3497  0.6999
12562TIP3    H159101   4.961   1.128   6.587  1.7009  1.1681 -0.7274
12562TIP3    H259102   4.819   1.091   6.550  0.4883  3.6706  1.1407
12563TIP3   OH259103   3.795   0.157  15.673  1.1054 -0.1803 -0.1409
12563TIP3    H159104   3.770   0.155  15.581  1.0584  0.0894 -0.1329
12563TIP3    H259105   3.891   0.161  15.672  1.0570  1.2189 -0.1916
12564TIP3   OH259106   2.196   6.251  14.412 -0.6249  0.4080  0.2327
12564TIP3    H159107   2.176   6.167  14.454  0.3626  0.9392  1.8572
12564TIP3    H259108   2.130   6.311  14.448 -0.0627  0.7660  0.6805
12565TIP3   OH259109   3.976   3.918  16.656 -0.5139 -0.5289 -0.2875
12565TIP3    H159110   3.963   3.924  16.750 -1.7144  1.2459 -0.5150
12565TIP3    H259111   4.036   3.989  16.635 -0.3281 -0.8488 -0.8687
12566TIP3   OH259112   6.248   1.844  15.800 -0.2426  0.2547 -0.0082
12566TIP3    H159113   6.257   1.800  15.884  1.2604 -2.8034 -1.5974
12566TIP3    H259114   6.320   1.908  15.798  0.0848 -0.0835  0.7677
12567TIP3   OH259115   2.976   0.825   1.594 -0.5314  0.0313 -0.0574
12567TIP3    H159116   2.990   0.850   1.685  2.7350 -1.9734  0.1594
12567TIP3    H259117   3.045   0.870   1.546  0.3905 -2.1075 -0.8387
12568TIP3   OH259118   3.975   3.591  14.497  0.0531  0.1875  0.2208
12568TIP3    H159119   3.956   3.683  14.511  0.9814  0.1972  1.6885
12568TIP3    H259120   4.012   3.561  14.580  0.2845 -1.3713 -0.3990
12569TIP3   OH259121   2.365   4.958   2.767 -0.3007  0.2374 -0.0031
12569TIP3    H159122   2.400   4.883   2.718  1.4276  0.4367  0.8649
12569TIP3    H259123   2.409   5.034   2.730  0.8841  0.4134  1.6648
12570TIP3   OH259124   4.241   2.674  13.033  0.1853 -0.2228  0.2982
12570TIP3    H159125   4.306   2.620  12.988 -0.8458  0.8832 -2.7975
12570TIP3    H259126   4.183   2.704  12.963 -1.8940  1.2691  2.5184
12571TIP3   OH259127   4.436   0.010  13.997 -0.3041  0.1937 -0.4178
12571TIP3    H159128   4.475   0.041  14.079 -0.7601  2.1208 -0.8724
12571TIP3    H259129   4.349  -0.021  14.022  0.5137 -1.7460  0.2002
12572TIP3   OH259130   0.891   6.596  15.651 -0.5181  0.0418 -0.1642
12572TIP3    H159131   0.938   6.536  15.593 -1.5778 -0.1867 -0.8238
12572TIP3    H259132   0.803   6.558  15.659 -0.4789  0.2015  1.4104
12573TIP3   OH259133   2.604   0.416  15.613  0.2599 -0.0419 -0.0540
12573TIP3    H159134   2.548   0.477  15.661 -0.6607 -0.9550  0.0837
12573TIP3    H259135   2.666   0.384  15.679  1.7433  1.8134 -0.4570
12574TIP3   OH259136   4.718   6.392  13.487  0.0745 -0.0741  0.3474
12574TIP3    H159137   4.788   6.429  13.433 -0.0027 -1.2537 -0.6090
12574TIP3    H259138   4.665   6.467  13.513  1.0300  0.6979  0.1027
12575TIP3   OH259139   0.239   2.283  13.929  0.3128  0.8598  0.7241
12575TIP3    H159140   0.162   2.288  13.872 -0.2303 -1.2160  1.1928
12575TIP3    H259141   0.294   2.356  13.902 -0.6485  0.8559 -1.4104
12576TIP3   OH259142   0.971   2.142  11.593 -0.2211  0.1290  0.5445
12576TIP3    H159143   0.917   2.181  11.524  0.3065 -0.5702 -0.2730
12576TIP3    H259144   0.923   2.064  11.620  0.2242 -0.3298  0.0254
12577TIP3   OH259145   1.276   6.643  11.519  0.0381 -0.2617  0.3989
12577TIP3    H159146   1.304   6.724  11.560 -0.0881 -0.2559  0.4753
12577TIP3    H259147   1.278   6.661  11.425 -1.3080  0.2808  0.4433
12578TIP3   OH259148   5.629   1.354   5.958 -0.7611  0.0672 -0.6375
12578TIP3    H159149   5.679   1.381   5.881 -1.2867 -1.2501 -1.4832
12578TIP3    H259150   5.635   1.428   6.018 -0.4877  1.2166 -2.0238
12579TIP3   OH259151   1.601   2.893   2.529  0.8091 -0.0643  0.5972
12579TIP3    H159152   1.604   2.827   2.599 -0.0120  0.3295  1.0093
12579TIP3    H259153   1.644   2.970   2.568 -2.7315  1.3824  2.0273
12580TIP3   OH259154   1.495   1.540  17.099 -0.1017 -0.1766 -0.3278
12580TIP3    H159155   1.497   1.581  17.013  1.3434  0.2381 -0.1327
12580TIP3    H259156   1.569   1.580  17.146  1.2800 -2.8357 -0.0493
12581TIP3   OH259157   1.020   0.039   0.856  0.2099  0.2444  0.1654
12581TIP3    H159158   1.048   0.038   0.765 -0.1982 -0.0793  0.0380
12581TIP3    H259159   1.095   0.007   0.906  0.4441  0.4568 -0.0513
12582TIP3   OH259160   6.206   5.994   1.162 -0.1966 -0.0943 -0.7105
12582TIP3    H159161   6.251   5.939   1.226 -1.8824 -0.3780  0.2880
12582TIP3    H259162   6.273   6.055   1.131  1.2896 -1.5875 -0.5834
12583TIP3   OH259163   2.622   5.178   6.404 -0.2498 -0.1684 -0.0115
12583TIP3    H159164   2.604   5.258   6.453 -0.7478 -0.8210  0.8978
12583TIP3    H259165   2.541   5.162   6.355 -0.2122 -0.2082 -0.0607
12584TIP3   OH259166   5.120   1.213   2.982  0.2958  0.1344 -0.3882
12584TIP3    H159167   5.204   1.232   3.025  1.0207 -1.8225 -0.8184
12584TIP3    H259168   5.110   1.282   2.917  0.2514  1.9056  1.3925
12585TIP3   OH259169   2.831   0.982  16.175  0.1754  0.0711 -0.1849
12585TIP3    H159170   2.831   0.982  16.270  0.7272 -1.6751 -0.1512
12585TIP3    H259171   2.786   0.901  16.150  0.8420  0.0411 -1.3909
12586TIP3   OH259172   5.428   4.533  15.602 -0.1262  0.3057 -0.6558
12586TIP3    H159173   5.418   4.439  15.617 -0.4017  0.4086 -0.1823
12586TIP3    H259174   5.487   4.539  15.527  1.9096 -0.2278  0.8145
12587TIP3   OH259175   5.770   2.583  12.227 -0.3223 -0.4255  0.2826
12587TIP3    H159176   5.780   2.663  12.177  0.6297  0.6909  2.1765
12587TIP3    H259177   5.830   2.521  12.186 -0.2834  0.1523 -0.5444
12588TIP3   OH259178   2.112   3.427   0.551 -0.3147  0.3684 -0.2987
12588TIP3    H159179   2.096   3.343   0.594  0.2308  0.4155 -0.0006
12588TIP3    H259180   2.025   3.466   0.542 -0.3156  1.1351  2.3501
12589TIP3   OH259181   2.623   5.006   1.566 -0.3691 -0.2217 -0.0949
12589TIP3    H159182   2.566   4.963   1.630  0.4422 -0.1330  0.7046
12589TIP3    H259183   2.705   4.957   1.570 -0.4233 -0.4344 -1.3332
12590TIP3   OH259184   3.514   4.362  15.820  0.0015 -0.1687  0.2568
12590TIP3    H159185   3.603   4.365  15.855 -0.1278 -0.3157  0.5989
12590TIP3    H259186   3.518   4.414  15.740  0.1877  0.5464  0.7266
12591TIP3   OH259187   2.892   4.935  11.362  0.3346 -0.1243 -0.0681
12591TIP3    H159188   2.904   4.935  11.267  0.8898  0.3805 -0.0027
12591TIP3    H259189   2.821   4.873  11.377  0.3990 -0.3800 -0.7926
12592TIP3   OH259190   3.258   2.802  13.975 -0.2119 -0.5332  0.2610
12592TIP3    H159191   3.220   2.889  13.966  0.0998 -0.2944  1.2007
12592TIP3    H259192   3.185   2.742  13.959 -0.7523 -0.0917  1.0449
12593TIP3   OH259193   3.463   0.874  12.019 -0.2793 -0.2625  0.3843
12593TIP3    H159194   3.495   0.956  11.980 -0.6571 -0.8461 -1.2546
12593TIP3    H259195   3.372   0.892  12.040 -0.8027 -0.6751 -1.3736
12594TIP3   OH259196   5.319   5.997   4.858 -0.2606 -0.2609  0.0806
12594TIP3    H159197   5.289   6.088   4.856  0.6222  0.0261 -1.1814
12594TIP3    H259198   5.340   5.981   4.950 -1.8428  0.3201  0.5635
12595TIP3   OH259199   1.938   2.743   3.896 -0.6645 -0.3591  0.0064
12595TIP3    H159200   1.966   2.803   3.827 -1.9396 -1.2384 -1.3357
12595TIP3    H259201   1.978   2.660   3.873 -0.7347 -0.5663  0.6089
12596TIP3   OH259202   1.033   5.257  16.507 -0.5667 -0.6403 -0.1801
12596TIP3    H159203   0.993   5.237  16.422  1.0875  0.6610 -1.3435
12596TIP3    H259204   1.009   5.348  16.523 -0.3329 -0.6829  0.4239
12597TIP3   OH259205   0.814   0.224   3.243 -0.3325  0.0552  0.5273
12597TIP3    H159206   0.741   0.188   3.193  0.1073  0.0309 -0.1050
12597TIP3    H259207   0.802   0.190   3.331 -0.4043 -0.9404  0.1411
12598TIP3   OH259208   3.046   3.592  16.561  0.5539 -0.4295  0.4427
12598TIP3    H159209   3.004   3.653  16.622  1.2465  1.1664 -0.6141
12598TIP3    H259210   3.007   3.507  16.582 -1.2002  0.5239  1.2969
12599TIP3   OH259211   5.108   3.536  12.341 -0.5417  0.5125 -0.5815
12599TIP3    H159212   5.084   3.558  12.431  0.7660  0.7267 -0.2704
12599TIP3    H259213   5.050   3.464  12.318 -0.9015  0.4674  0.4234
12600TIP3   OH259214   0.684   1.807  12.616 -0.6260 -0.3266  0.2811
12600TIP3    H159215   0.606   1.751  12.624 -0.2935 -0.8165  0.1817
12600TIP3    H259216   0.700   1.810  12.521  0.7334 -2.0275  0.4059
12601TIP3   OH259217   1.272   1.832   4.107 -0.7588  0.3514 -0.2054
12601TIP3    H159218   1.301   1.902   4.165  0.0326  0.6266 -0.9222
12601TIP3    H259219   1.260   1.874   4.022 -0.2964 -0.3697 -0.6367
12602TIP3   OH259220   4.832   4.642  11.253  0.3548  0.0673 -0.0134
12602TIP3    H159221   4.856   4.608  11.339  0.6989 -2.2042 -0.9238
12602TIP3    H259222   4.911   4.631  11.200 -0.5609 -1.0275 -1.2471
12603TIP3   OH259223   0.638   5.489  13.405  0.1263 -0.6240  0.1069
12603TIP3    H159224   0.645   5.431  13.329  0.3214  0.3700 -0.6579
12603TIP3    H259225   0.726   5.526  13.415  0.0786 -0.6843  0.7670
12604TIP3   OH259226   3.096   1.040  16.972 -0.2342 -0.1853  0.0796
12604TIP3    H159227   3.188   1.042  16.999 -0.4322  2.0127  0.7611
12604TIP3    H259228   3.049   1.005  17.047 -0.3903  2.8299  1.5408
12605TIP3   OH259229   4.765   5.214   3.960 -0.3345 -0.1182 -0.0943
12605TIP3    H159230   4.726   5.193   4.045  0.3364 -1.0289  0.0025
12605TIP3    H259231   4.716   5.161   3.898 -0.6470  0.3458 -0.2480
12606TIP3   OH259232   5.436   0.890  11.990 -0.2055  0.4545 -0.2199
12606TIP3    H159233   5.493   0.948  12.040  0.8520 -0.1767 -0.6545
12606TIP3    H259234   5.397   0.945  11.922  1.6944  0.4551 -1.3671
12607TIP3   OH259235   0.522   1.707   2.404  0.4159  0.0854 -0.3657
12607TIP3    H159236   0.467   1.778   2.371  3.1366  1.6221 -1.8738
12607TIP3    H259237   0.567   1.744   2.479  0.4770 -0.7111  0.0065
12608TIP3   OH259238   0.881   3.364  11.321 -0.0503  0.3089  0.0336
12608TIP3    H159239   0.923   3.379  11.406 -0.7027 -1.3945  0.6837
12608TIP3    H259240   0.853   3.452  11.293  2.8658  1.3791  0.0988
12609TIP3   OH259241   2.350   0.776   5.006 -0.1733 -0.1912 -0.6377
12609TIP3    H159242   2.405   0.854   5.005 -0.2813 -0.0442  1.1723
12609TIP3    H259243   2.261   0.809   5.021 -0.2344 -0.6344  0.0495
12610TIP3   OH259244   4.720   0.663   2.104 -0.1616 -0.1394 -0.4210
12610TIP3    H159245   4.774   0.587   2.124 -1.1843 -0.5067  1.1378
12610TIP3    H259246   4.767   0.708   2.034  1.2053 -1.4125 -0.3774
12611TIP3   OH259247   4.026   4.613   2.649  0.3759 -0.1684  0.1668
12611TIP3    H159248   4.060   4.701   2.664 -0.1274  0.0692 -0.0756
12611TIP3    H259249   4.001   4.581   2.735 -0.1747  0.2290  0.1554
12612TIP3   OH259250   3.170   4.365  13.652  0.1116 -0.1443  0.6290
12612TIP3    H159251   3.168   4.279  13.611  2.5434  0.6123 -1.3528
12612TIP3    H259252   3.251   4.365  13.704  1.3664  1.5958 -1.1792
12613TIP3   OH259253   4.533   2.666  16.369 -0.3966 -0.3054  0.5291
12613TIP3    H159254   4.493   2.695  16.287  0.3563 -0.6150  0.0483
12613TIP3    H259255   4.461   2.627  16.418 -1.0398  0.6727  0.3998
12614TIP3   OH259256   5.852   3.673   1.731  0.3751 -0.6048 -0.0513
12614TIP3    H159257   5.835   3.673   1.637  0.1356 -1.0508 -0.0089
12614TIP3    H259258   5.917   3.743   1.744 -0.0850 -0.0991 -0.4535
12615TIP3   OH259259   5.033   3.268   4.146  0.2169  0.3168  0.4189
12615TIP3    H159260   5.083   3.271   4.227  0.4505 -0.3519  0.3048
12615TIP3    H259261   4.959   3.328   4.161  1.3504  1.7815  0.3639
12616TIP3   OH259262   0.793   2.710  10.797  0.0206 -0.1649 -0.4409
12616TIP3    H159263   0.886   2.693  10.813  0.2960  0.9848 -0.6914
12616TIP3    H259264   0.767   2.647  10.731  1.0831  0.6065 -1.6342
12617TIP3   OH259265   1.117   1.755   4.846  0.4322  0.0350 -0.0878
12617TIP3    H159266   1.169   1.677   4.865  0.8566  0.7176  1.7608
12617TIP3    H259267   1.041   1.747   4.904 -1.6445 -0.9229 -2.6914
12618TIP3   OH259268   4.496   1.895  11.555  0.0169 -0.1911  0.4453
12618TIP3    H159269   4.433   1.831  11.587 -0.9134 -0.9563 -2.5862
12618TIP3    H259270   4.444   1.958  11.506  1.1366  2.0254  1.9157
12619TIP3   OH259271   0.471   5.554   0.722 -0.0045  0.1349  0.7038
12619TIP3    H159272   0.532   5.587   0.656 -0.0224  1.8925  1.5054
12619TIP3    H259273   0.389   5.543   0.674 -0.0905  1.6609  0.4262
12620TIP3   OH259274   5.765   4.046   5.583 -0.1555 -0.2145 -0.0739
12620TIP3    H159275   5.793   4.035   5.675  0.7369  1.3625 -0.1272
12620TIP3    H259276   5.823   3.988   5.534  0.7195  0.4234  0.1812
12621TIP3   OH259277   3.642   0.087  11.257  0.1843 -0.0537 -0.5020
12621TIP3    H159278   3.664   0.178  11.240  2.3043 -0.5910 -0.9901
12621TIP3    H259279   3.589   0.060  11.182  1.4037  0.2080 -1.4945
12622TIP3   OH259280   3.008   0.245   3.068 -0.2030 -0.3602  0.7900
12622TIP3    H159281   3.043   0.296   2.996 -0.6298 -0.2486  0.6592
12622TIP3    H259282   2.951   0.306   3.116 -0.9556 -0.7804  0.4590
12623TIP3   OH259283   3.984   5.045   1.838 -0.0578 -0.1469  0.6882
12623TIP3    H159284   3.914   5.110   1.828 -0.7894 -1.2197 -2.0819
12623TIP3    H259285   4.058   5.083   1.790 -0.6105 -1.3999 -1.2919
12624TIP3   OH259286   1.387   1.422  16.090  0.4217 -0.3224 -0.0230
12624TIP3    H159287   1.367   1.383  16.175 -1.0585 -1.8100 -1.0074
12624TIP3    H259288   1.463   1.373  16.058  1.0611  0.3233  0.4489
12625TIP3   OH259289   6.026   4.029   2.115 -0.3817  0.7186 -0.1777
12625TIP3    H159290   6.013   4.124   2.121  2.2558  1.3137 -1.9060
12625TIP3    H259291   5.955   3.998   2.059 -2.1563  1.3597  1.6046
12626TIP3   OH259292   4.917   5.446   3.370  0.1766 -0.4013  0.6078
12626TIP3    H159293   4.884   5.534   3.351 -0.0566 -0.3472  1.2584
12626TIP3    H259294   4.921   5.403   3.284 -1.1940 -0.2777  0.4594
12627TIP3   OH259295   3.857   0.585  11.412  0.4422  0.2834 -0.0777
12627TIP3    H159296   3.898   0.506  11.448 -0.4693 -0.4532 -0.6026
12627TIP3    H259297   3.849   0.567  11.318  0.1008  0.9535 -0.1815
12628TIP3   OH259298   3.160   1.971   2.890 -0.0635  0.1568 -0.6934
12628TIP3    H159299   3.067   1.961   2.913 -0.1713 -2.0146 -1.8689
12628TIP3    H259300   3.207   1.927   2.961 -0.2086 -2.7860 -2.2901
12629TIP3   OH259301   3.644   2.296  12.284 -0.1223 -0.2228  0.2913
12629TIP3    H159302   3.555   2.280  12.316 -0.7159  0.9509 -0.6750
12629TIP3    H259303   3.696   2.224  12.320 -1.0099  0.2274  2.6741
12630TIP3   OH259304   2.961   6.190   3.589 -0.0135  0.2299 -0.4904
12630TIP3    H159305   3.047   6.212   3.554  0.5286 -1.6593 -0.4863
12630TIP3    H259306   2.940   6.262   3.648  1.3045  1.0042 -0.9167
12631TIP3   OH259307   0.495   4.568   1.918  0.1660  0.3057 -0.3711
12631TIP3    H159308   0.584   4.605   1.919 -0.4456  1.8633 -0.6460
12631TIP3    H259309   0.472   4.560   2.011  0.6869 -0.3513 -0.2944
12632TIP3   OH259310   6.661   6.504  12.031 -0.2921 -0.3055  0.1395
12632TIP3    H159311   6.749   6.539  12.048 -0.9672  0.6857  1.7793
12632TIP3    H259312   6.634   6.548  11.950  1.0111 -1.2805 -0.8897
12633TIP3   OH259313   1.309   2.653   3.836  0.0385  0.0467  0.1565
12633TIP3    H159314   1.378   2.690   3.780 -0.0044 -0.0510  0.0387
12633TIP3    H259315   1.291   2.567   3.797  1.3329 -0.8518  1.4103
12634TIP3   OH259316   3.912   4.266  16.337 -0.3292  0.0395  0.6394
12634TIP3    H159317   4.000   4.267  16.298 -1.3735  0.3592 -1.8714
12634TIP3    H259318   3.922   4.314  16.419  2.2307 -1.6112  1.4105
12635TIP3   OH259319   5.096   2.272  16.379 -0.4816  0.0364  0.0922
12635TIP3    H159320   5.142   2.355  16.393 -0.0393 -0.2448  0.3010
12635TIP3    H259321   5.135   2.211  16.441  1.9044 -1.3816 -2.5571
12636TIP3   OH259322   3.123   4.414   3.015 -0.3032 -0.4445 -0.3937
12636TIP3    H159323   3.032   4.404   3.041 -0.2201 -0.3748 -0.0764
12636TIP3    H259324   3.173   4.368   3.082 -0.1351 -0.9617 -0.8622
12637TIP3   OH259325   5.981   3.429   2.685  0.3282  0.2264  0.0750
12637TIP3    H159326   5.969   3.505   2.741  0.6720 -0.0415  0.5155
12637TIP3    H259327   6.069   3.398   2.703 -0.2211 -0.9900  0.8033
12638TIP3   OH259328   4.141   4.685  16.180  0.3413  0.3248  0.1769
12638TIP3    H159329   4.217   4.742  16.194  1.2138 -1.0232  1.2114
12638TIP3    H259330   4.102   4.674  16.267 -0.3832  0.1077 -0.1679
12639TIP3   OH259331   4.362   6.635   0.551 -0.3626  0.2454  0.7254
12639TIP3    H159332   4.285   6.581   0.531 -0.1285  0.3530 -0.5533
12639TIP3    H259333   4.387   6.674   0.467 -1.3775  3.5354  1.7669
12640TIP3   OH259334   2.184   1.549   5.348  0.3509 -0.0951 -0.4406
12640TIP3    H159335   2.149   1.575   5.434  1.0107  1.2703 -0.5661
12640TIP3    H259336   2.251   1.483   5.368 -1.1625 -1.6059 -0.0977
12641TIP3   OH259337   4.812   5.358   2.120  0.1785 -0.4261  0.4475
12641TIP3    H159338   4.812   5.269   2.088  1.7283 -0.4532  0.4276
12641TIP3    H259339   4.871   5.405   2.061 -0.7870  0.6795  0.3170
12642TIP3   OH259340   0.363   2.818   3.081 -0.3849  0.3233  0.6790
12642TIP3    H159341   0.442   2.778   3.115  0.4488 -0.6851 -2.1194
12642TIP3    H259342   0.330   2.873   3.152  2.3362  0.0986  2.2223
12643TIP3   OH259343   1.938   5.602  13.689  0.2717 -0.4255 -0.3088
12643TIP3    H159344   1.922   5.670  13.754 -2.0245 -0.7385 -0.4644
12643TIP3    H259345   1.947   5.649  13.606 -0.1092 -0.2077 -0.2330
12644TIP3   OH259346   4.884   3.902   0.961  0.2830  0.3170 -0.0310
12644TIP3    H159347   4.893   3.989   1.000 -1.9976  1.1523 -1.1398
12644TIP3    H259348   4.878   3.919   0.867  0.6298 -1.1314 -0.3348
12645TIP3   OH259349   6.722   5.946   1.993  0.1226  0.0956 -0.5177
12645TIP3    H159350   6.654   5.947   2.061 -0.8601 -0.7249 -1.4662
12645TIP3    H259351   6.762   6.033   1.998 -1.4289  0.8307 -0.3760
12646TIP3   OH259352   0.364   6.293  12.871 -0.0604  0.5567  0.5080
12646TIP3    H159353   0.412   6.290  12.953  0.0106 -0.4101  0.4367
12646TIP3    H259354   0.325   6.206  12.862 -0.5968  0.8549 -0.1659
12647TIP3   OH259355   1.668   4.810   1.428 -0.2095 -0.1784  0.4647
12647TIP3    H159356   1.584   4.768   1.406 -0.4298  0.7456 -0.5777
12647TIP3    H259357   1.732   4.739   1.425 -0.7311 -0.6401 -0.2123
12648TIP3   OH259358   6.191   5.982   0.580  0.3380  0.4260 -0.0602
12648TIP3    H159359   6.190   5.890   0.552  1.8533  0.2568  0.3539
12648TIP3    H259360   6.154   5.980   0.669 -0.7363  0.4084 -0.4886
12649TIP3   OH259361   2.895   5.951   3.345 -0.6251 -0.3049  0.5368
12649TIP3    H159362   2.865   5.879   3.401 -2.6348 -0.1991 -0.2936
12649TIP3    H259363   2.881   6.029   3.398  1.3956 -0.4540  1.3743
12650TIP3   OH259364   5.365   4.245   1.040  0.1744 -0.4484  0.5093
12650TIP3    H159365   5.438   4.295   1.076 -0.1077 -0.1296  0.6488
12650TIP3    H259366   5.349   4.176   1.105  2.0889 -2.2296 -0.7775
12651TIP3   OH259367   3.526   3.408   3.130  0.6020  0.4824 -0.0509
12651TIP3    H159368   3.469   3.403   3.053  2.0162 -0.2327 -1.0918
12651TIP3    H259369   3.612   3.431   3.095  1.1852  0.5808  1.3742
12652TIP3   OH259370   1.918   1.900  14.717 -0.0788 -0.4758  0.1722
12652TIP3    H159371   1.894   1.931  14.804 -0.6762  0.8903 -0.4579
12652TIP3    H259372   1.836   1.899  14.668  0.6167  1.4206 -1.1535
12653TIP3   OH259373   0.007   6.316  11.486 -0.0176  0.3043  0.0549
12653TIP3    H159374  -0.046   6.261  11.544  0.9861 -0.3465  0.3895
12653TIP3    H259375  -0.010   6.405  11.514  0.8669 -0.0169  1.7615
12654TIP3   OH259376   1.615   4.077  14.320  0.2809  0.5159  0.0582
12654TIP3    H159377   1.601   4.119  14.405  1.9771  0.2506  0.5077
12654TIP3    H259378   1.527   4.056  14.289 -0.4230  1.4618  1.3126
12655TIP3   OH259379   0.601   2.472   2.164  0.0428 -0.1297 -0.1337
12655TIP3    H159380   0.670   2.490   2.100 -0.9051  0.2608 -1.0743
12655TIP3    H259381   0.519   2.483   2.115 -0.6947 -0.4785  0.9824
12656TIP3   OH259382   4.107   0.950  12.798  0.4775 -0.2738 -0.0021
12656TIP3    H159383   4.185   0.904  12.767  0.2012  0.1866 -1.4404
12656TIP3    H259384   4.135   0.992  12.879  1.5503 -0.5870 -0.1898
12657TIP3   OH259385   2.255   4.396   4.630  0.1615  0.3671  0.0729
12657TIP3    H159386   2.334   4.357   4.591 -0.0799  0.8980 -0.9845
12657TIP3    H259387   2.205   4.429   4.556 -1.6647 -1.0182  0.6384
12658TIP3   OH259388   6.263   5.975  12.554 -0.2496  0.6116  0.1104
12658TIP3    H159389   6.315   5.899  12.580  1.4428  1.6797 -0.0297
12658TIP3    H259390   6.195   5.938  12.498  0.5589 -0.8040  0.0011
12659TIP3   OH259391   6.291   2.712  16.715 -0.3678  0.4703 -0.6006
12659TIP3    H159392   6.345   2.668  16.780 -0.7693 -0.7026 -1.0345
12659TIP3    H259393   6.203   2.713  16.752 -0.6340 -0.3578 -1.1796
12660TIP3   OH259394   2.553   4.025   1.978  0.3694 -0.5253 -0.0985
12660TIP3    H159395   2.494   3.980   2.038  0.5284 -0.9054 -0.2223
12660TIP3    H259396   2.496   4.064   1.912  0.1472  0.4174  0.6345
12661TIP3   OH259397   3.998   6.455   1.147  0.6967  0.5194  0.4602
12661TIP3    H159398   4.091   6.473   1.163  0.8698 -0.4484  0.5589
12661TIP3    H259399   3.997   6.372   1.099 -0.1780 -0.2431  1.7432
12662TIP3   OH259400   3.387   6.454  14.159  0.4711 -0.1107 -0.1238
12662TIP3    H159401   3.340   6.409  14.229 -2.5900  2.7035 -0.1065
12662TIP3    H259402   3.396   6.388  14.090  1.5435 -2.2956  1.9599
12663TIP3   OH259403   1.683   2.120   4.642  0.3339  0.1361 -0.3825
12663TIP3    H159404   1.685   2.056   4.570 -0.8938  0.9157 -1.1456
12663TIP3    H259405   1.711   2.202   4.601  2.8908 -0.0315  0.8010
12664TIP3   OH259406   5.380   5.242   1.273 -0.5802 -0.5311  0.2234
12664TIP3    H159407   5.465   5.206   1.300 -0.0132  1.4835  1.2791
12664TIP3    H259408   5.362   5.312   1.335 -3.0191 -0.8448 -0.0195
12665TIP3   OH259409   2.903   2.965   2.686  0.1112 -0.4539  0.6548
12665TIP3    H159410   2.909   2.897   2.619  0.6782  0.1488  0.0874
12665TIP3    H259411   2.887   3.046   2.637 -1.9490 -0.3563  1.3986
12666TIP3   OH259412   6.635   0.431   4.646 -0.1991 -0.2327 -0.4127
12666TIP3    H159413   6.696   0.428   4.572 -0.8429 -0.9487 -0.9388
12666TIP3    H259414   6.578   0.355   4.633  0.0428 -0.7277  1.1490
12667TIP3   OH259415   3.604   3.862  11.358  0.4239  0.6377  0.2251
12667TIP3    H159416   3.563   3.785  11.319 -0.3301  0.1554  1.9033
12667TIP3    H259417   3.543   3.933  11.340 -0.2706  0.2808  1.1141
12668TIP3   OH259418   3.227   6.429   2.142  0.3028  0.1427 -0.2353
12668TIP3    H159419   3.224   6.459   2.232  1.6979  1.8732 -0.7154
12668TIP3    H259420   3.158   6.478   2.098  0.1053 -0.1623 -0.2735
12669TIP3   OH259421   5.508   4.012   4.228 -0.0580 -0.1765  0.6135
12669TIP3    H159422   5.555   4.070   4.168 -1.9005  0.2362 -0.5455
12669TIP3    H259423   5.439   4.067   4.265 -0.8785 -1.2218  0.6924
12670TIP3   OH259424   6.346   1.666   5.175  0.5780 -0.0102 -0.3078
12670TIP3    H159425   6.406   1.620   5.233 -0.5605 -1.0107  0.1080
12670TIP3    H259426   6.258   1.640   5.204 -0.0669  1.0945 -1.1554
12671TIP3   OH259427   2.690   2.509   3.752 -0.1758 -0.1592 -0.2047
12671TIP3    H159428   2.752   2.440   3.729 -0.4826 -0.0154 -1.5808
12671TIP3    H259429   2.645   2.528   3.670  1.4680  3.2536 -0.4878
12672TIP3   OH259430   5.632   2.902  11.844 -0.1616  0.4066 -0.2761
12672TIP3    H159431   5.556   2.939  11.798  0.2415  2.1091  0.3475
12672TIP3    H259432   5.706   2.921  11.786  0.1817  1.5006  0.4869
12673TIP3   OH259433   4.823   3.223  14.536  0.3243 -0.1868  0.7455
12673TIP3    H159434   4.824   3.131  14.510  0.6333  0.4544 -1.8478
12673TIP3    H259435   4.881   3.266  14.474 -1.1952  2.0087  0.7178
12674TIP3   OH259436   2.817   5.370   5.325  0.1771 -0.4191  0.2192
12674TIP3    H159437   2.875   5.320   5.268 -0.2052 -2.4148  1.4683
12674TIP3    H259438   2.731   5.364   5.282  0.1185 -0.9239  0.3986
12675TIP3   OH259439   3.923   5.587  13.626 -0.1598  0.3617  0.1634
12675TIP3    H159440   3.828   5.599  13.630 -0.0287  1.2909  1.0245
12675TIP3    H259441   3.958   5.676  13.623  0.7117  0.0524  0.7354
12676TIP3   OH259442   1.110   6.232  13.052  0.2199 -0.2722 -0.7632
12676TIP3    H159443   1.132   6.210  12.961 -1.7323 -1.7559 -0.9526
12676TIP3    H259444   1.112   6.148  13.098  0.8127  0.4129  0.4937
12677TIP3   OH259445   5.440   1.224  13.405  0.3469 -0.1476 -0.3658
12677TIP3    H159446   5.412   1.195  13.318 -0.4577  1.1381 -0.5701
12677TIP3    H259447   5.420   1.150  13.462  1.4584 -1.2464 -1.3554
12678TIP3   OH259448   1.560   6.721  13.667 -0.8904 -0.2609 -0.4063
12678TIP3    H159449   1.485   6.681  13.623 -0.7739 -1.1759  0.2066
12678TIP3    H259450   1.522   6.769  13.741 -0.7725 -2.2381  1.0166
12679TIP3   OH259451   3.065   5.543   4.636  0.1782  0.2053 -0.2482
12679TIP3    H159452   3.017   5.520   4.557 -0.1033  1.5613 -0.4975
12679TIP3    H259453   3.149   5.578   4.604  1.0496 -1.4038  0.1561
12680TIP3   OH259454   3.743   1.861   4.173  0.0325 -0.3597  0.4516
12680TIP3    H159455   3.680   1.898   4.234  0.5251  0.2452  0.6009
12680TIP3    H259456   3.814   1.924   4.170  0.6788 -1.0744  0.3540
12681TIP3   OH259457   5.467   1.086   5.905 -0.1094  0.5498 -0.0159
12681TIP3    H159458   5.509   1.172   5.903 -1.5692  1.3002 -0.8003
12681TIP3    H259459   5.374   1.106   5.919 -0.2097 -1.0368  1.8612
12682TIP3   OH259460   6.029   1.657  13.855  0.2573  0.3537 -0.6211
12682TIP3    H159461   5.936   1.654  13.881  0.4698 -0.6139  0.1100
12682TIP3    H259462   6.056   1.747  13.874 -0.2222  0.3131  0.3288
12683TIP3   OH259463   2.609   3.427  16.629  0.2068  0.7497  0.6009
12683TIP3    H159464   2.591   3.502  16.686  1.0289  0.3019  1.4737
12683TIP3    H259465   2.644   3.466  16.549  2.6282  1.2690  1.8037
12684TIP3   OH259466   5.575   2.263  13.073 -0.3156  0.3123 -0.6612
12684TIP3    H159467   5.654   2.215  13.048  0.6717  1.3172  0.3728
12684TIP3    H259468   5.603   2.317  13.147 -1.8317  1.1485 -0.6640
12685TIP3   OH259469   6.104   1.342  13.144 -0.6126  0.0648  0.0232
12685TIP3    H159470   6.024   1.299  13.113 -1.6717  1.3983  0.7443
12685TIP3    H259471   6.081   1.376  13.231  0.2122  1.8091 -0.3852
12686TIP3   OH259472   3.401   0.062   0.588 -0.3624  0.3669  0.3058
12686TIP3    H159473   3.485   0.023   0.610 -0.4362  0.6691  1.1902
12686TIP3    H259474   3.408   0.152   0.619 -1.3184  0.1459  1.2467
12687TIP3   OH259475   4.173   0.424   6.194 -0.2557  0.4385 -0.3758
12687TIP3    H159476   4.258   0.425   6.150 -1.9462  3.7489 -4.1885
12687TIP3    H259477   4.176   0.499   6.254 -0.2050 -0.0188  0.2036
12688TIP3   OH259478   2.511   0.002   4.686 -0.1351 -0.6171 -0.3250
12688TIP3    H159479   2.536  -0.081   4.646 -0.1820 -0.3216 -0.9819
12688TIP3    H259480   2.509   0.064   4.613 -0.4167 -0.1094  0.1077
12689TIP3   OH259481   0.310   5.736   3.510  0.3237 -0.2797 -0.2631
12689TIP3    H159482   0.239   5.717   3.448  0.7962 -1.5631 -0.4431
12689TIP3    H259483   0.328   5.829   3.498 -1.5556  0.1688  0.0339
12690TIP3   OH259484   1.464   5.906   3.443 -0.0953  0.4932  0.3378
12690TIP3    H159485   1.401   5.968   3.407 -1.2932  0.3863  2.1142
12690TIP3    H259486   1.471   5.837   3.377 -1.1430  0.9607 -0.2879
12691TIP3   OH259487   4.415   0.489  16.524  0.4918 -0.4059  0.0365
12691TIP3    H159488   4.337   0.466  16.474 -0.1005  2.2639 -0.4229
12691TIP3    H259489   4.383   0.501  16.614  0.2792  0.9482 -0.2016
12692TIP3   OH259490   4.784   0.457  16.857 -0.2935 -0.1025 -0.4778
12692TIP3    H159491   4.877   0.478  16.846 -0.2569  0.0100  0.0262
12692TIP3    H259492   4.746   0.469  16.770 -0.0808  1.0769 -0.4143
12693TIP3   OH259493   3.057   3.767  14.935  0.5473  0.3058 -0.1994
12693TIP3    H159494   2.995   3.750  15.006 -0.6544  2.8640 -0.5256
12693TIP3    H259495   3.005   3.755  14.855  0.8559  1.0264 -0.5187
12694TIP3   OH259496   2.558   5.632  10.578  0.2207  0.3466 -0.0200
12694TIP3    H159497   2.558   5.704  10.640 -0.3497 -0.5605  1.0702
12694TIP3    H259498   2.624   5.570  10.612  0.9421  0.4763 -1.1137
12695TIP3   OH259499   0.266   5.726  13.669  0.0254 -0.4344 -0.0887
12695TIP3    H159500   0.249   5.818  13.648  0.1712  0.2019  2.2556
12695TIP3    H259501   0.361   5.716  13.655  0.4240  0.4329  1.6463
12696TIP3   OH259502   3.478   1.489  13.437  0.1014 -0.3285 -0.2966
12696TIP3    H159503   3.440   1.411  13.399 -0.6043  0.1010 -0.4860
12696TIP3    H259504   3.571   1.469  13.447 -0.0996 -1.2345 -0.2155
12697TIP3   OH259505   5.884   3.665  17.153  0.8684 -0.8270 -0.3238
12697TIP3    H159506   5.877   3.575  17.186 -0.1285 -0.8229 -0.4856
12697TIP3    H259507   5.977   3.685  17.157  1.1243 -1.9284 -0.4438
12698TIP3   OH259508   4.662   4.914  12.724  0.4452 -0.8921 -0.3287
12698TIP3    H159509   4.613   4.958  12.793  0.6870 -1.8006  0.4542
12698TIP3    H259510   4.711   4.983  12.680  2.1696 -0.5548  1.9689
12699TIP3   OH259511   5.485   1.997   4.608  0.0031  0.2657 -0.3586
12699TIP3    H159512   5.394   1.975   4.585 -0.1667  1.3759 -0.7983
12699TIP3    H259513   5.481   2.023   4.700  0.5322 -3.2923  0.8291
12700TIP3   OH259514   1.649   1.843  15.071  0.2149 -0.6175  0.1808
12700TIP3    H159515   1.621   1.769  15.125 -0.2156  0.6477  1.7540
12700TIP3    H259516   1.594   1.837  14.993 -0.7533 -1.2185  0.8777
12701TIP3   OH259517   1.951   3.172   6.340  0.0038 -0.3375 -0.1540
12701TIP3    H159518   2.015   3.244   6.346 -1.0128  0.5081  0.8661
12701TIP3    H259519   1.939   3.159   6.246 -0.9928  1.9562 -0.4046
12702TIP3   OH259520   5.072   5.131   5.233 -0.4177 -0.1792 -0.5369
12702TIP3    H159521   5.114   5.053   5.196  1.4703  1.0478 -1.1758
12702TIP3    H259522   5.027   5.100   5.311 -0.1488 -1.9774 -1.0495
12703TIP3   OH259523   3.961   4.255  14.159 -0.0048  0.3854  0.2515
12703TIP3    H159524   3.891   4.320  14.161 -0.1792  0.2562 -0.9875
12703TIP3    H259525   3.966   4.222  14.249 -0.1472  1.8582  0.8208
12704TIP3   OH259526   5.028   5.636  15.593 -0.4848 -0.2410  0.1929
12704TIP3    H159527   5.049   5.595  15.509 -0.1148  2.1569 -0.9840
12704TIP3    H259528   4.937   5.664  15.585 -0.7401 -0.8181  0.9697
12705TIP3   OH259529   1.117   0.143  16.768 -0.8062  0.3653 -0.6331
12705TIP3    H159530   1.116   0.058  16.725 -1.6685 -0.0937  0.2569
12705TIP3    H259531   1.163   0.128  16.851 -0.2240  0.9643 -0.8321
12706TIP3   OH259532   3.476   1.086   6.268 -0.3343  0.5655 -0.0426
12706TIP3    H159533   3.562   1.115   6.297 -0.8740  0.9085  1.3051
12706TIP3    H259534   3.464   1.001   6.311 -1.2949  1.2438  1.0857
12707TIP3   OH259535   5.568   4.773   5.485 -0.1325 -0.1090  0.1281
12707TIP3    H159536   5.483   4.730   5.499 -0.7818  0.8293 -0.7416
12707TIP3    H259537   5.545   4.865   5.469  1.1014  0.2698  0.4552
12708TIP3   OH259538   3.521   4.665  13.773  0.3371 -0.6282 -0.2420
12708TIP3    H159539   3.569   4.592  13.811  0.7784  0.1930  0.8371
12708TIP3    H259540   3.506   4.639  13.682  1.5628 -1.5232 -0.2105
12709TIP3   OH259541   5.607   3.894   1.555 -0.0944  0.4461  0.3807
12709TIP3    H159542   5.594   3.928   1.643  1.3365  0.5961  0.5520
12709TIP3    H259543   5.608   3.799   1.566  1.2858  0.4908  0.7179
12710TIP3   OH259544   6.084   1.341  15.355 -0.3668  0.1935 -0.1857
12710TIP3    H159545   6.022   1.379  15.292  1.6458  0.4843 -2.0949
12710TIP3    H259546   6.060   1.248  15.358 -0.9749  0.3197 -0.7846
12711TIP3   OH259547   4.506   6.743  16.914 -0.2511 -0.4128  0.0968
12711TIP3    H159548   4.550   6.754  16.829 -0.1653  0.9558  0.2975
12711TIP3    H259549   4.569   6.775  16.978 -0.9295  0.1059  0.5233
12712TIP3   OH259550   0.014   3.921   1.315 -0.3386  0.3112  0.2593
12712TIP3    H159551   0.009   3.827   1.332  3.2346  0.3723  2.8667
12712TIP3    H259552  -0.045   3.960   1.379 -0.2618 -0.1321  0.6076
12713TIP3   OH259553   5.230   0.646  12.666 -0.0990 -0.5289  1.1181
12713TIP3    H159554   5.313   0.655  12.713 -0.7998 -0.2013  2.3614
12713TIP3    H259555   5.204   0.555  12.681 -0.2457 -0.4677  1.2401
12714TIP3   OH259556   4.044   0.974   0.418 -0.5653  0.5463  0.1927
12714TIP3    H159557   3.997   1.057   0.408 -2.2680 -0.3652  0.4658
12714TIP3    H259558   3.978   0.906   0.404  1.0422 -0.8181 -1.2879
12715TIP3   OH259559   2.682   6.306   1.144 -0.1168  0.7766 -0.0152
12715TIP3    H159560   2.624   6.231   1.159  1.6753 -0.5337  0.6851
12715TIP3    H259561   2.674   6.358   1.224  0.2353  0.1980  0.4051
12716TIP3   OH259562   1.131   1.482   2.418  0.0340 -0.0928 -0.3961
12716TIP3    H159563   1.164   1.541   2.485  1.8185 -0.2677 -1.0497
12716TIP3    H259564   1.061   1.433   2.461  0.6539  0.2918  1.1202
12717TIP3   OH259565   3.379   4.379   2.550  0.1599  0.4498  0.5335
12717TIP3    H159566   3.294   4.407   2.518  0.4135  0.7910  0.1418
12717TIP3    H259567   3.373   4.384   2.645 -1.2323 -2.3891  0.6962
12718TIP3   OH259568   1.604   6.418  14.429  0.4996 -0.9158  0.2308
12718TIP3    H159569   1.590   6.464  14.512 -2.0392  1.0180 -1.1278
12718TIP3    H259570   1.676   6.465  14.387 -0.3889  0.2446 -0.0343
12719TIP3   OH259571   3.736   2.577   3.179  0.2344 -0.3361  0.0252
12719TIP3    H159572   3.660   2.553   3.127  0.4532  0.1980 -0.5523
12719TIP3    H259573   3.709   2.561   3.270 -1.4894  2.1789  0.0596
12720TIP3   OH259574   2.822   5.086   4.506  0.4512 -0.1753  0.0310
12720TIP3    H159575   2.813   5.073   4.600  0.1448 -0.3442 -0.0198
12720TIP3    H259576   2.797   5.002   4.468 -0.7640  0.2941 -0.2615
12721TIP3   OH259577   0.906   3.659   1.963  0.1571 -0.1207 -0.2837
12721TIP3    H159578   0.880   3.693   1.877 -0.0842  0.5917  0.0587
12721TIP3    H259579   0.990   3.701   1.982  0.1150 -0.1234 -0.0849
12722TIP3   OH259580   3.134   3.707  14.180 -0.3009 -0.0496  0.1250
12722TIP3    H159581   3.229   3.711  14.171  0.0206 -1.2009  2.2437
12722TIP3    H259582   3.100   3.768  14.115  1.8436 -0.2838 -1.2959
12723TIP3   OH259583   6.686   5.698  12.829 -0.2741  0.1704  0.2363
12723TIP3    H159584   6.692   5.719  12.736  1.1925 -0.6302  0.1157
12723TIP3    H259585   6.643   5.774  12.868 -1.8614  0.1011 -1.2166
12724TIP3   OH259586   0.723   5.543  10.961 -0.4716 -0.0217 -0.2277
12724TIP3    H159587   0.767   5.614  11.008  0.8916 -1.2109  0.3690
12724TIP3    H259588   0.730   5.566  10.869 -1.4628  1.3879  0.0193
12725TIP3   OH259589   3.483   6.037  11.409 -0.2710 -0.0484  0.1184
12725TIP3    H159590   3.482   5.946  11.438 -1.0967  0.0329  0.3584
12725TIP3    H259591   3.567   6.046  11.364 -0.5804 -1.1849 -0.7363
12726TIP3   OH259592   2.028   6.051   4.309 -0.1164 -0.1158  0.4334
12726TIP3    H159593   2.024   6.004   4.392 -0.2318 -0.2971  0.3262
12726TIP3    H259594   1.944   6.096   4.303 -0.5306 -0.9304 -0.0683
12727TIP3   OH259595   1.889   5.790  13.907 -0.1986  0.6615 -0.6894
12727TIP3    H159596   1.800   5.811  13.935  0.6120  1.2440  1.6561
12727TIP3    H259597   1.911   5.859  13.845 -0.4262  2.1995  0.8582
12728TIP3   OH259598   1.787   5.981  10.594  0.0580  0.2439  0.3645
12728TIP3    H159599   1.785   6.060  10.540 -0.0379  1.2224  1.7348
12728TIP3    H259600   1.695   5.960  10.611  0.0838 -0.1474  0.0454
12729TIP3   OH259601   6.036   3.879  12.876 -0.4067 -0.1987  0.3206
12729TIP3    H159602   6.020   3.851  12.786  0.0162 -0.8768  0.4462
12729TIP3    H259603   6.105   3.944  12.870  0.6461 -1.2972  0.2741
12730TIP3   OH259604   6.349   4.577   5.686  0.1258  0.0864  0.3617
12730TIP3    H159605   6.421   4.555   5.745  0.8062  0.5148 -0.2899
12730TIP3    H259606   6.322   4.492   5.650 -0.0520 -0.1356  0.9995
12731TIP3   OH259607   0.836   2.899  11.854  0.1143  0.1829 -0.3649
12731TIP3    H159608   0.865   2.972  11.799 -1.1345  0.5886 -0.5242
12731TIP3    H259609   0.761   2.934  11.902  1.1444 -0.1662  1.6056
12732TIP3   OH259610   6.700   4.193  12.033 -0.0370  0.6893  0.1284
12732TIP3    H159611   6.690   4.287  12.044 -0.5538  0.6491  0.0191
12732TIP3    H259612   6.792   4.181  12.007 -0.1765  1.2310 -0.6441
12733TIP3   OH259613   3.388   5.291  10.714  0.4852  0.0054 -0.4512
12733TIP3    H159614   3.413   5.300  10.622  0.6709 -0.4042 -0.4402
12733TIP3    H259615   3.464   5.250  10.756  1.5293  2.6419  0.4312
12734TIP3   OH259616   2.497   4.289  16.706 -0.6052  0.4192  0.3424
12734TIP3    H159617   2.528   4.257  16.791 -2.3521  0.6063  1.1053
12734TIP3    H259618   2.506   4.384  16.712 -1.9326  0.5392  0.8760
12735TIP3   OH259619   2.988   1.950   4.736 -0.8922 -0.1087 -0.3490
12735TIP3    H159620   3.060   1.985   4.684 -0.9503 -0.2612 -0.5309
12735TIP3    H259621   3.007   1.979   4.825 -0.2561 -0.7164 -0.2827
12736TIP3   OH259622   2.370   1.463  15.549  0.1151 -0.0172 -0.5213
12736TIP3    H159623   2.324   1.430  15.472 -1.4671 -0.1325  0.4392
12736TIP3    H259624   2.302   1.478  15.614  1.2726  1.2277  0.4729
12737TIP3   OH259625   1.782   6.526   3.035 -0.6349  0.2319 -0.2685
12737TIP3    H159626   1.855   6.587   3.028 -0.3381 -0.2511 -1.7663
12737TIP3    H259627   1.764   6.520   3.129  2.6618 -1.2591  0.4265
12738TIP3   OH259628   4.697   6.572   1.591  0.4730  0.2969  0.5287
12738TIP3    H159629   4.726   6.602   1.677 -1.1718  1.5386  0.7098
12738TIP3    H259630   4.767   6.600   1.531  1.2269  0.1811  1.3399
12739TIP3   OH259631   4.540   6.158   2.197  0.0776  0.3543  0.1995
12739TIP3    H159632   4.510   6.205   2.119 -0.4426  0.3170  0.3755
12739TIP3    H259633   4.627   6.125   2.173  0.6821  1.8354  0.2441
12740TIP3   OH259634   2.946   6.673   5.354 -0.2207 -0.4348 -0.4541
12740TIP3    H159635   3.035   6.661   5.322  0.1289  0.0131  0.3167
12740TIP3    H259636   2.894   6.610   5.305  0.0449  1.0900 -2.8674
12741TIP3   OH259637   4.414   4.735  11.127 -0.0762 -0.3832  0.3223
12741TIP3    H159638   4.374   4.674  11.189  0.9826 -0.1997  1.2293
12741TIP3    H259639   4.421   4.685  11.046  0.8411 -1.5411  1.0692
12742TIP3   OH259640   2.731   4.318  16.056 -0.3830 -0.0463  0.3147
12742TIP3    H159641   2.690   4.259  16.119  0.1529 -0.3576  0.3844
12742TIP3    H259642   2.747   4.264  15.979 -0.0714  0.0576  0.3038
12743TIP3   OH259643   5.469   1.011   5.302  0.3222  0.4449  0.2947
12743TIP3    H159644   5.424   1.060   5.233 -2.5543 -1.9922  0.2412
12743TIP3    H259645   5.509   0.937   5.255 -2.6761 -1.9279  1.1234
12744TIP3   OH259646   1.801   3.099   2.383  0.3528 -0.3284 -0.7861
12744TIP3    H159647   1.720   3.060   2.349 -0.4094 -0.0832  0.6843
12744TIP3    H259648   1.805   3.185   2.342 -1.6178  0.7841  1.1499
12745TIP3   OH259649   4.387   5.620  13.874 -0.1944  0.0083  0.6880
12745TIP3    H159650   4.334   5.641  13.951  0.0515 -0.9205  1.1285
12745TIP3    H259651   4.329   5.639  13.800  0.3553  3.2027  0.9484
12746TIP3   OH259652   4.903   3.681   6.417  0.4794 -0.7024  0.2818
12746TIP3    H159653   4.872   3.673   6.327 -0.6848 -2.3494  0.8033
12746TIP3    H259654   4.978   3.741   6.411 -0.2832  0.1256 -1.5965
12747TIP3   OH259655   4.198   3.331  13.013  0.1359  0.1030  0.3576
12747TIP3    H159656   4.137   3.291  12.950 -1.2093  0.4529  1.3791
12747TIP3    H259657   4.212   3.420  12.980 -2.6400  1.1992  1.8135
12748TIP3   OH259658   0.052   2.971   2.874 -0.4061 -0.0474 -0.0541
12748TIP3    H159659  -0.027   2.991   2.925 -0.0933 -0.6232  0.6743
12748TIP3    H259660   0.100   2.909   2.928  0.9633  0.9326 -0.1008
12749TIP3   OH259661   6.333   2.637   5.926 -0.1196  0.5520  0.1360
12749TIP3    H159662   6.404   2.646   5.862 -0.1751  1.5673  0.2017
12749TIP3    H259663   6.372   2.663   6.009 -0.4591  0.7374  0.2392
12750TIP3   OH259664   4.233   4.865   1.865 -0.6643 -0.2459  1.0365
12750TIP3    H159665   4.229   4.948   1.914  1.5246  1.1995 -1.0448
12750TIP3    H259666   4.303   4.816   1.907  0.8019  0.7408 -0.1496
12751TIP3   OH259667   3.501   4.569   0.481  0.1487 -0.0253 -0.1807
12751TIP3    H159668   3.466   4.503   0.420  0.6510  0.7232 -1.3188
12751TIP3    H259669   3.582   4.598   0.440  1.0352 -0.2146  1.3648
12752TIP3   OH259670   6.627   2.717  16.489  0.2257  0.2403  0.1187
12752TIP3    H159671   6.704   2.712  16.545 -0.1269  1.0576  0.7017
12752TIP3    H259672   6.600   2.626  16.477  1.0746 -0.0293  0.1831
12753TIP3   OH259673   5.468   0.764   4.046 -0.6159 -0.1755 -0.1839
12753TIP3    H159674   5.545   0.733   4.095 -1.1433 -1.6417 -0.2377
12753TIP3    H259675   5.487   0.856   4.028  1.9607 -0.8801 -1.7160
12754TIP3   OH259676   1.202   4.447   4.632 -0.2097  0.0383 -0.5415
12754TIP3    H159677   1.169   4.532   4.602  0.9276  0.7277  0.1056
12754TIP3    H259678   1.123   4.393   4.641 -1.0900  1.3727  0.1472
12755TIP3   OH259679   2.030   6.003  10.332  0.3923 -0.3361  0.3710
12755TIP3    H159680   1.982   5.997  10.415  0.7134 -1.1213  0.5079
12755TIP3    H259681   1.998   6.084  10.292 -1.6314 -1.2088  0.1040
12756TIP3   OH259682   1.137   3.910   1.042  0.2384 -0.0967 -0.2279
12756TIP3    H159683   1.204   3.933   0.978  0.7306  1.3068  0.7510
12756TIP3    H259684   1.185   3.869   1.114 -0.1534 -0.5268 -0.2055
12757TIP3   OH259685   3.571   1.480  11.665  0.2771  0.3564  0.0119
12757TIP3    H159686   3.492   1.482  11.611  0.5860 -0.2943 -0.4796
12757TIP3    H259687   3.642   1.501  11.604  0.5650  0.1702  0.2825
12758TIP3   OH259688   6.150   5.143   2.225 -0.2493 -0.6635  0.0723
12758TIP3    H159689   6.075   5.144   2.165 -0.7590  1.9146  0.6285
12758TIP3    H259690   6.227   5.149   2.169 -0.6642  0.4663 -0.3954
12759TIP3   OH259691   0.357   5.486   1.066  0.0706 -0.2436 -1.4021
12759TIP3    H159692   0.436   5.472   1.118 -1.6641  0.1553  1.5563
12759TIP3    H259693   0.351   5.581   1.056 -2.1625  0.2015  2.3053
12760TIP3   OH259694   1.566   1.170  14.437  0.3604  0.0275 -0.3934
12760TIP3    H159695   1.652   1.212  14.448  0.1906  0.6139 -1.2072
12760TIP3    H259696   1.504   1.243  14.438 -0.4913 -0.5878  3.2627
12761TIP3   OH259697   6.396   0.161  14.192  0.2304  0.2005  0.0381
12761TIP3    H159698   6.452   0.203  14.258  0.4433  1.7284 -1.0714
12761TIP3    H259699   6.314   0.142  14.240  1.1267 -0.7097  1.2805
12762TIP3   OH259700   2.522   0.289  12.390  0.2645 -0.5119 -0.1650
12762TIP3    H159701   2.520   0.193  12.397  0.9845 -0.7984 -2.8215
12762TIP3    H259702   2.430   0.314  12.381  0.0964 -0.9901  0.1886
12763TIP3   OH259703   0.095   4.889  13.320  0.0873 -0.4389 -0.1795
12763TIP3    H159704   0.105   4.975  13.279 -1.0360  0.1425  0.7103
12763TIP3    H259705   0.094   4.827  13.246 -0.2196  0.4191 -0.9078
12764TIP3   OH259706   4.777   5.374  17.063  0.1228 -0.6350  0.4484
12764TIP3    H159707   4.712   5.444  17.059 -2.7122 -3.0512  0.7281
12764TIP3    H259708   4.791   5.358  17.156  2.8431  1.2099  0.4577
12765TIP3   OH259709   5.108   3.856  11.035 -0.7029  0.0360 -0.0086
12765TIP3    H159710   5.188   3.902  11.009  0.0857 -1.0813  0.3660
12765TIP3    H259711   5.039   3.921  11.026 -0.2049  0.2866 -2.9932
12766TIP3   OH259712   1.611   6.012   0.133 -0.4484 -0.1634  0.6986
12766TIP3    H159713   1.559   6.060   0.197 -0.4150  3.5275 -1.7504
12766TIP3    H259714   1.698   6.007   0.172 -0.7244  0.8435  1.4835
12767TIP3   OH259715   4.364   0.532  16.860 -0.0805  0.0728  0.1226
12767TIP3    H159716   4.429   0.476  16.903 -0.2520  0.6683  1.1860
12767TIP3    H259717   4.298   0.548  16.927 -0.8936  0.1754 -0.6890
12768TIP3   OH259718   3.874   3.853   3.512 -0.0371 -0.0825 -0.1058
12768TIP3    H159719   3.811   3.922   3.490 -0.9965 -0.2268  1.8981
12768TIP3    H259720   3.916   3.831   3.429 -1.9383  0.7214 -1.3639
12769TIP3   OH259721   1.342   6.346  11.394 -0.0520 -0.0590 -0.3105
12769TIP3    H159722   1.293   6.284  11.448  0.1355 -2.1441 -2.3525
12769TIP3    H259723   1.286   6.423  11.389 -0.2108  0.1150  2.4849
12770TIP3   OH259724   4.794   0.391   4.963 -0.1633 -0.5085  0.1295
12770TIP3    H159725   4.756   0.314   5.005  0.2205 -1.2935 -0.9200
12770TIP3    H259726   4.723   0.426   4.909  0.5735 -2.0932 -1.9909
12771TIP3   OH259727   3.802   5.565   2.364 -0.2951  0.6907  0.7031
12771TIP3    H159728   3.821   5.477   2.334  0.0030  0.8102  0.5346
12771TIP3    H259729   3.719   5.588   2.321 -0.6671  0.2876  1.1887
12772TIP3   OH259730   3.416   1.520  12.409  0.3050  0.8075  0.0672
12772TIP3    H159731   3.474   1.535  12.335 -0.2870  2.6699 -0.0628
12772TIP3    H259732   3.467   1.544  12.486  0.5587 -0.1028  0.2005
12773TIP3   OH259733   4.711   0.185   6.687 -0.1800  0.2673  0.2675
12773TIP3    H159734   4.782   0.122   6.675 -0.5753  0.3662 -4.1855
12773TIP3    H259735   4.756   0.270   6.693  0.1555  0.0313  1.3313
12774TIP3   OH259736   1.336   2.575   3.065 -0.1556 -0.2056  0.0084
12774TIP3    H159737   1.414   2.613   3.104 -0.8660  0.5119  0.7659
12774TIP3    H259738   1.270   2.580   3.134 -0.7282 -1.2960 -0.4388
12775TIP3   OH259739   3.937   2.584  10.924 -0.5612  0.2275 -0.7571
12775TIP3    H159740   3.895   2.648  10.866 -0.4787  0.6699 -0.3357
12775TIP3    H259741   3.993   2.532  10.866 -0.5993  0.5646 -1.1014
12776TIP3   OH259742   0.176   3.862  17.018 -0.1223  0.2463 -0.0033
12776TIP3    H159743   0.181   3.945  16.970 -1.9464  0.1107 -0.4858
12776TIP3    H259744   0.267   3.834  17.026  0.4497  1.7806 -0.7347
12777TIP3   OH259745   1.567   2.380  11.261  0.2058  0.2122 -0.4310
12777TIP3    H159746   1.490   2.437  11.253 -0.9741 -1.0143  1.3338
12777TIP3    H259747   1.559   2.319  11.187  0.0888  0.7546 -0.8734
12778TIP3   OH259748   1.513   3.063   3.811 -0.1014  0.3293 -0.0217
12778TIP3    H159749   1.483   2.990   3.758 -0.5257 -0.4344  1.2174
12778TIP3    H259750   1.551   3.022   3.889  0.8130  1.3996  0.1227
12779TIP3   OH259751   0.906   2.161   5.409 -0.0214  0.2675  0.0637
12779TIP3    H159752   0.981   2.202   5.452  0.4147  0.1451 -0.5603
12779TIP3    H259753   0.866   2.106   5.477  0.7764 -0.0899  0.2537
12780TIP3   OH259754   4.342   0.030   3.226  0.2289 -0.7867 -0.0096
12780TIP3    H159755   4.427   0.040   3.269 -0.5277 -0.3166  1.4591
12780TIP3    H259756   4.283   0.085   3.278 -0.7927 -0.3564 -1.5598
12781TIP3   OH259757   6.196   3.617   2.440  0.2282  0.1887 -0.1379
12781TIP3    H159758   6.274   3.643   2.488  0.4018  0.7479 -0.7141
12781TIP3    H259759   6.174   3.692   2.386 -0.2109 -0.2751 -0.6203
12782TIP3   OH259760   1.167   0.153   5.417 -0.3780  0.2468 -0.0013
12782TIP3    H159761   1.101   0.217   5.388  0.0048  0.4252 -0.5074
12782TIP3    H259762   1.225   0.203   5.475  0.6444  0.7055 -1.3688
12783TIP3   OH259763   1.083   6.085   4.571 -0.3200 -0.4338  0.2661
12783TIP3    H159764   1.021   6.107   4.502 -0.4245 -1.7853 -0.1059
12783TIP3    H259765   1.039   6.019   4.623  0.0579  0.0222  1.1834
12784TIP3   OH259766   2.252   4.353   1.984  0.7449 -0.1281  0.5848
12784TIP3    H159767   2.292   4.304   2.056  0.3064  0.2775  1.1128
12784TIP3    H259768   2.321   4.410   1.952  0.9191 -0.2530  0.7399
12785TIP3   OH259769   5.489   4.525   4.846  0.4501 -0.1008  0.3917
12785TIP3    H159770   5.539   4.526   4.764 -0.3962 -1.7364 -0.1983
12785TIP3    H259771   5.550   4.491   4.911  1.7403  2.9753  0.9677
12786TIP3   OH259772   2.530   3.544  13.792 -0.6994  1.1888 -0.5901
12786TIP3    H159773   2.537   3.450  13.779  0.0985  1.0422  0.7430
12786TIP3    H259774   2.445   3.556  13.835 -0.5879  1.0223 -0.3205
12787TIP3   OH259775   4.782   1.065  16.083  0.1298  0.3741 -0.1257
12787TIP3    H159776   4.701   1.022  16.057  0.3240  0.0891 -0.2676
12787TIP3    H259777   4.838   1.060  16.005  1.0964 -1.3824  0.6292
12788TIP3   OH259778   3.916   5.375   2.012 -0.2984  0.2553 -0.3372
12788TIP3    H159779   3.858   5.440   2.050 -2.3747 -1.5236 -0.2840
12788TIP3    H259780   3.866   5.338   1.939  0.1791 -2.2751  0.5330
12789TIP3   OH259781   4.321   2.521   5.575 -0.0354 -0.0391 -1.0088
12789TIP3    H159782   4.395   2.474   5.537  0.0239  0.5763 -1.6712
12789TIP3    H259783   4.308   2.481   5.661  0.7678 -0.4575 -1.0800
12790TIP3   OH259784   4.777   1.225   5.793 -0.0092  0.2140 -0.0671
12790TIP3    H159785   4.770   1.320   5.778 -0.4084  0.5086  1.7165
12790TIP3    H259786   4.868   1.204   5.772  0.6622  1.4046  1.4426
12791TIP3   OH259787   4.596   6.072   4.022  0.0304  0.5447  0.3588
12791TIP3    H159788   4.682   6.110   4.001 -0.6418  1.0739 -1.6528
12791TIP3    H259789   4.537   6.148   4.025 -0.4744  0.1321  1.2527
12792TIP3   OH259790   2.132   5.025  10.843 -0.8783 -0.1651 -0.2947
12792TIP3    H159791   2.211   5.052  10.794 -0.4542  1.1508  1.0578
12792TIP3    H259792   2.135   4.929  10.841  1.5701 -0.1903  0.9195
12793TIP3   OH259793   4.073   6.570   4.224  0.0823  0.3817  0.3945
12793TIP3    H159794   4.053   6.557   4.131  0.5757 -0.7602  0.4338
12793TIP3    H259795   3.988   6.581   4.266 -0.1064  1.8740 -0.3055
12794TIP3   OH259796   5.951   5.561   0.764 -0.1928 -0.3650  0.1785
12794TIP3    H159797   5.918   5.539   0.851  0.4168 -0.8321  0.3051
12794TIP3    H259798   5.977   5.477   0.727 -1.2970 -0.2820 -0.8272
12795TIP3   OH259799   5.844   4.287  17.027  0.1548 -0.6214 -0.0407
12795TIP3    H159800   5.790   4.214  17.055  1.1313 -1.1408  0.5375
12795TIP3    H259801   5.854   4.341  17.106  0.0517 -0.2582 -0.2739
12796TIP3   OH259802   4.295   4.898  12.227  0.0787  0.7984 -0.3775
12796TIP3    H159803   4.275   4.811  12.191 -1.2195  1.1193 -0.4996
12796TIP3    H259804   4.211   4.930  12.259  0.6540  1.7798  0.1943
12797TIP3   OH259805   3.785   3.405  15.366 -0.3959 -0.1691  0.1212
12797TIP3    H159806   3.714   3.346  15.340 -0.3522 -0.0467 -0.2902
12797TIP3    H259807   3.741   3.474  15.415 -0.4127 -0.6817  0.8500
12798TIP3   OH259808   2.552   1.358  13.097 -0.5125 -0.3192  0.2878
12798TIP3    H159809   2.606   1.286  13.066 -0.4454 -0.7218  1.2800
12798TIP3    H259810   2.469   1.317  13.123 -0.3258 -0.1260  1.2449
12799TIP3   OH259811   3.696   5.352  12.106 -0.6255 -0.2004  0.1266
12799TIP3    H159812   3.650   5.309  12.178 -0.3564  0.3107  0.6147
12799TIP3    H259813   3.786   5.361  12.138 -0.7416  0.9766  0.1496
12800TIP3   OH259814   5.133   3.872   5.701 -0.0924  0.2166 -0.1524
12800TIP3    H159815   5.225   3.858   5.722 -0.4758  0.1991  1.6830
12800TIP3    H259816   5.122   3.967   5.703 -0.0459  0.2329 -0.6862
12801TIP3   OH259817   1.580   6.284   0.557 -0.3581  0.0096 -0.2382
12801TIP3    H159818   1.545   6.232   0.630  1.8356 -2.5670 -0.8824
12801TIP3    H259819   1.674   6.288   0.574  0.0843  0.0710 -2.4931
12802TIP3   OH259820   6.782   1.927  11.937  0.5419 -0.3273 -0.8698
12802TIP3    H159821   6.746   1.841  11.962 -1.8681  0.2594 -2.0040
12802TIP3    H259822   6.786   1.976  12.019 -2.2371 -0.1590 -0.7389
12803TIP3   OH259823   3.481   2.578   4.386 -0.2718 -0.2280  0.4034
12803TIP3    H159824   3.423   2.513   4.424  0.2907 -0.9013  0.1290
12803TIP3    H259825   3.477   2.652   4.446  0.7236 -1.3251  1.8774
12804TIP3   OH259826   2.692   5.965   4.854  0.1119 -0.2625 -0.1510
12804TIP3    H159827   2.652   6.043   4.815 -1.4950 -0.0092  1.8349
12804TIP3    H259828   2.652   5.891   4.808 -1.5075  0.0349  0.6888
12805TIP3   OH259829   0.012   0.256   2.939 -0.6105  0.0046  0.1621
12805TIP3    H159830   0.048   0.339   2.969 -0.1932  0.3853 -1.3110
12805TIP3    H259831   0.008   0.202   3.017  0.9995  0.7286  0.7800
12806TIP3   OH259832   1.383   0.994  12.594 -0.9366  0.6262 -0.2844
12806TIP3    H159833   1.350   1.045  12.668 -2.1030  1.4100 -1.2959
12806TIP3    H259834   1.397   1.059  12.525 -1.3391 -0.2805 -1.2430
12807TIP3   OH259835   0.122   5.661   1.043 -0.1028 -0.1014 -0.1293
12807TIP3    H159836   0.093   5.572   1.023  1.2638 -0.8050  0.8383
12807TIP3    H259837   0.191   5.678   0.978 -1.2684  0.8106 -1.1816
12808TIP3   OH259838   5.814   0.955  12.401 -0.1616  0.2432  0.0933
12808TIP3    H159839   5.773   0.906  12.473 -1.7838  0.4631 -0.6322
12808TIP3    H259840   5.881   0.896  12.367 -1.5147 -1.1702 -0.2353
12809TIP3   OH259841   6.282   6.426  14.576  0.0553  1.1040 -0.3243
12809TIP3    H159842   6.225   6.364  14.530  1.8680 -0.3241 -0.7965
12809TIP3    H259843   6.353   6.443  14.514  3.3043 -1.8950  2.1300
12810TIP3   OH259844   2.569   0.912   1.739 -0.6050 -0.0365 -0.2306
12810TIP3    H159845   2.504   0.979   1.716 -1.7127 -0.8863  0.3667
12810TIP3    H259846   2.630   0.958   1.796 -1.9880  0.2050  1.1071
12811TIP3   OH259847   2.546   2.107   4.338  0.2923 -0.5718 -0.4530
12811TIP3    H159848   2.537   2.201   4.321 -0.4173 -0.5437  0.0368
12811TIP3    H259849   2.600   2.103   4.417  0.5161 -0.5854 -0.6060
12812TIP3   OH259850   0.364   1.760  16.851  0.0986 -0.5293 -0.4234
12812TIP3    H159851   0.380   1.817  16.925  0.5734 -0.5182 -0.5296
12812TIP3    H259852   0.270   1.770  16.832 -0.4498 -1.9340  1.3241
12813TIP3   OH259853   4.054   5.862   1.713  0.0059 -0.8124 -0.3636
12813TIP3    H159854   4.006   5.835   1.635 -3.0824  1.0866  0.6899
12813TIP3    H259855   3.986   5.886   1.776  2.3761  1.0234  1.7186
12814TIP3   OH259856   5.299   5.102   3.712  0.2069  0.2151  0.3663
12814TIP3    H159857   5.339   5.169   3.767  1.5821 -1.8308  1.9995
12814TIP3    H259858   5.205   5.115   3.724  0.4543  1.4028  1.2101
12815TIP3   OH259859   5.715   3.961  11.133 -0.4404  0.1900  0.4440
12815TIP3    H159860   5.642   3.961  11.195 -0.9947 -0.4618 -0.1866
12815TIP3    H259861   5.673   3.971  11.048  0.2432  0.2169  0.1063
12816TIP3   OH259862   5.869   3.072   5.296 -0.2254  0.1897 -0.0490
12816TIP3    H159863   5.946   3.033   5.255 -0.7344  1.5081 -2.4663
12816TIP3    H259864   5.800   3.007   5.288 -0.1195  0.1496 -0.6066
12817TIP3   OH259865   2.353   6.151   2.254 -0.1320 -0.1162 -0.0416
12817TIP3    H159866   2.377   6.068   2.295 -0.4511 -0.0633  0.2586
12817TIP3    H259867   2.288   6.189   2.313 -0.0271  0.3236 -0.2026
12818TIP3   OH259868   1.534   5.924   4.817 -0.1475 -0.5417  0.0849
12818TIP3    H159869   1.551   5.999   4.874  0.2148  0.1397 -0.8951
12818TIP3    H259870   1.477   5.867   4.868 -0.7116  0.5677  0.7108
12819TIP3   OH259871   4.717   6.151   1.177  0.0584 -0.1127 -0.4082
12819TIP3    H159872   4.660   6.163   1.101 -0.2408 -0.7957 -0.2967
12819TIP3    H259873   4.745   6.240   1.200  1.0465  0.0453 -1.9890
12820TIP3   OH259874   1.822   2.263  15.142  0.0995 -0.1081 -0.6635
12820TIP3    H159875   1.803   2.326  15.073 -0.6934 -1.0491 -1.3293
12820TIP3    H259876   1.740   2.217  15.156  0.4802 -0.5263  0.3158
12821TIP3   OH259877   3.359   5.824   3.182  0.0489 -0.4246  0.1561
12821TIP3    H159878   3.357   5.909   3.225 -1.1928 -0.2055 -0.2999
12821TIP3    H259879   3.277   5.782   3.207  0.2516 -1.1388 -0.3277
12822TIP3   OH259880   2.922   2.524   3.478  0.1004  0.1659  0.2898
12822TIP3    H159881   2.871   2.542   3.557  0.2286  1.5655  0.0940
12822TIP3    H259882   2.873   2.456   3.432  0.4247 -1.2116  1.9174
12823TIP3   OH259883   0.855   1.305  12.550 -0.7536 -0.1102  0.0650
12823TIP3    H159884   0.861   1.211  12.569 -0.7708 -0.0797  0.2253
12823TIP3    H259885   0.765   1.317  12.517 -1.0594 -0.0024  0.9055
12824TIP3   OH259886   0.393   0.553  14.558 -0.2592 -0.0353  0.6990
12824TIP3    H159887   0.375   0.492  14.629 -0.5053 -1.1011 -0.2604
12824TIP3    H259888   0.436   0.500  14.491  0.7412  1.1301  0.3866
12825TIP3   OH259889   2.155   0.299  13.428 -0.1394 -1.1685  0.1256
12825TIP3    H159890   2.185   0.381  13.466 -1.5916 -0.4478 -0.2118
12825TIP3    H259891   2.071   0.320  13.387 -0.5112 -2.7978 -0.0526
12826TIP3   OH259892   1.698   4.809  11.624  0.3702 -0.0050  0.7341
12826TIP3    H159893   1.713   4.763  11.706 -0.8743  0.7457  1.4056
12826TIP3    H259894   1.712   4.901  11.645 -0.0719  0.2035  0.1298
12827TIP3   OH259895   6.292   6.387  12.867 -0.4291 -0.1003 -0.5896
12827TIP3    H159896   6.365   6.407  12.809 -0.6281  0.2475 -0.7294
12827TIP3    H259897   6.231   6.336  12.814 -0.5195  0.0481 -0.6322
12828TIP3   OH259898   3.029   3.335   2.048  0.3799 -0.6242 -0.2364
12828TIP3    H159899   3.103   3.355   2.106 -0.1369  0.3440  0.1116
12828TIP3    H259900   3.039   3.242   2.027  1.6884 -0.5062 -0.1912
12829TIP3   OH259901   0.217   1.631  12.042  0.2544  0.4406 -0.1250
12829TIP3    H159902   0.215   1.550  11.990  0.0260  0.0257  0.5113
12829TIP3    H259903   0.275   1.689  11.993 -0.1719  0.1642 -0.9846
12830TIP3   OH259904   0.181   2.878  11.720  0.0366  0.4070  0.4927
12830TIP3    H159905   0.129   2.803  11.692 -0.0335  1.1825 -1.6633
12830TIP3    H259906   0.117   2.943  11.749 -0.2848  1.3020 -2.0121
12831TIP3   OH259907   3.786   1.077   0.419 -0.5645  0.4851 -0.1568
12831TIP3    H159908   3.724   1.029   0.364 -1.2544  1.0133  0.1513
12831TIP3    H259909   3.775   1.038   0.506 -1.4328  1.4599  0.1889
12832TIP3   OH259910   5.373   1.564   4.592 -0.2519  0.3279  0.2087
12832TIP3    H159911   5.288   1.545   4.632 -0.4841  1.8369  0.5289
12832TIP3    H259912   5.433   1.572   4.667  0.1480 -0.5917 -0.0081
12833TIP3   OH259913   4.453   0.782  16.779  0.1348  0.1100 -0.5110
12833TIP3    H159914   4.453   0.806  16.872  1.0042  1.3758 -0.8115
12833TIP3    H259915   4.441   0.687  16.779 -0.8652  0.2020  0.8481
12834TIP3   OH259916   4.521   4.500  15.254  0.5299  0.6254  0.0816
12834TIP3    H159917   4.549   4.502  15.162  2.0625 -1.9139  0.3857
12834TIP3    H259918   4.435   4.458  15.252  0.4183  0.8725 -0.2417
12835TIP3   OH259919   2.552   4.539   4.565 -0.3542  0.4336 -0.0501
12835TIP3    H159920   2.578   4.475   4.500 -1.3376  0.8244 -0.8686
12835TIP3    H259921   2.634   4.572   4.601  0.1705 -1.3916  0.5364
12836TIP3   OH259922   6.015   1.253   6.610  0.3960 -0.1618 -0.2809
12836TIP3    H159923   5.943   1.305   6.574  1.0633 -0.1393 -1.6922
12836TIP3    H259924   5.982   1.163   6.611  0.3902 -0.1768 -1.0860
12837TIP3   OH259925   3.735   0.283  14.186 -0.5633  0.2248  0.5713
12837TIP3    H159926   3.714   0.280  14.279 -0.1257  1.4533  0.7344
12837TIP3    H259927   3.781   0.366  14.175  0.9614 -0.7090 -0.4218
12838TIP3   OH259928   0.954   2.705  12.951 -0.7220  0.7978  0.1168
12838TIP3    H159929   0.930   2.792  12.981  0.0140  1.2452 -0.5689
12838TIP3    H259930   0.904   2.646  13.008  0.9105  1.5765  2.5391
12839TIP3   OH259931   2.225   2.797  13.973 -0.2365 -1.0229 -0.0521
12839TIP3    H159932   2.148   2.741  13.986  0.0047 -1.2950  0.1949
12839TIP3    H259933   2.290   2.739  13.932  0.4571 -1.2674  1.3462
12840TIP3   OH259934   0.937   5.527  16.040  0.6247  0.7544 -0.3499
12840TIP3    H159935   0.859   5.549  16.092  1.0186  1.0521  0.1126
12840TIP3    H259936   0.967   5.611  16.006  1.8512  0.9111  1.0289
12841TIP3   OH259937   3.171   1.573   5.436  0.3028  0.2431  0.3526
12841TIP3    H159938   3.235   1.545   5.371  1.7336 -1.4487  2.3454
12841TIP3    H259939   3.091   1.590   5.385  1.2946 -1.0878 -1.8071
12842TIP3   OH259940   6.406   5.880  11.200 -0.2901  0.3270  0.3618
12842TIP3    H159941   6.325   5.876  11.251 -0.0679 -0.2940  0.6823
12842TIP3    H259942   6.472   5.911  11.263 -0.0763 -0.1525  0.3788
12843TIP3   OH259943   6.397   2.427   0.907 -0.1755 -0.0967 -0.3445
12843TIP3    H159944   6.311   2.460   0.882  0.7949  2.4362 -0.5779
12843TIP3    H259945   6.393   2.421   1.003 -0.1607  1.5577 -0.2052
12844TIP3   OH259946   1.319   4.667  10.525  0.8213  0.4298 -0.3896
12844TIP3    H159947   1.411   4.661  10.550  0.8742  1.4144 -0.3111
12844TIP3    H259948   1.278   4.716  10.595  0.0796 -0.5913 -0.0796
12845TIP3   OH259949   5.693   1.957   1.627 -0.0351  0.4302  0.0593
12845TIP3    H159950   5.672   2.012   1.552 -1.0955  0.6375  0.4815
12845TIP3    H259951   5.630   1.984   1.694  1.2689  0.6568  1.2192
12846TIP3   OH259952   1.775   2.260  14.773  0.6114  0.3227  0.0773
12846TIP3    H159953   1.807   2.241  14.684 -0.1361  0.3706 -0.2133
12846TIP3    H259954   1.805   2.349  14.791  0.3980  0.4728 -0.2987
12847TIP3   OH259955   6.640   0.080   4.267 -0.3121  0.1205  0.0225
12847TIP3    H159956   6.610   0.140   4.199 -0.8958  0.5220  0.6259
12847TIP3    H259957   6.587   0.001   4.254 -0.6838  0.3303  0.2271
12848TIP3   OH259958   6.420   3.058  13.796  0.6890 -0.2514  0.4444
12848TIP3    H159959   6.331   3.036  13.824  1.4881 -0.9137  2.6962
12848TIP3    H259960   6.429   3.151  13.815  1.1418 -0.6390  2.4386
12849TIP3   OH259961   0.026   4.992  14.844 -0.4129 -0.4013 -0.0875
12849TIP3    H159962  -0.013   5.070  14.884 -1.5946  0.0772 -2.0415
12849TIP3    H259963  -0.047   4.949  14.799  0.5284 -1.8083 -0.3300
12850TIP3   OH259964   4.516   2.585   1.865  0.0657  0.2249 -0.1928
12850TIP3    H159965   4.578   2.556   1.932 -1.6903 -2.1977  0.4933
12850TIP3    H259966   4.519   2.517   1.798 -1.7325  0.0979 -0.1981
12851TIP3   OH259967   2.097   1.913  13.163 -0.1574  0.1854  0.0390
12851TIP3    H159968   2.013   1.890  13.204 -0.5263  0.2581 -0.6720
12851TIP3    H259969   2.100   2.008  13.166 -1.9666  0.5231 -3.4703
12852TIP3   OH259970   6.572   6.072   5.116  0.1657  0.3016 -0.3763
12852TIP3    H159971   6.555   6.135   5.186  0.0443  0.7146 -0.7791
12852TIP3    H259972   6.665   6.083   5.096  0.3339 -0.1984  0.0870
12853TIP3   OH259973   1.565   1.508  12.423  0.0477  0.4887 -0.0434
12853TIP3    H159974   1.470   1.520  12.409  0.2256 -0.2852 -2.4883
12853TIP3    H259975   1.573   1.489  12.516 -2.1568  1.0326  0.3291
12854TIP3   OH259976   2.990   4.702  11.550 -0.7096  0.0602 -0.2837
12854TIP3    H159977   2.899   4.676  11.542 -0.7846  0.8656 -3.3750
12854TIP3    H259978   3.018   4.722  11.460  2.2180  0.8216  0.6605
12855TIP3   OH259979   3.316   4.801   4.992  0.0598 -0.3523  0.1399
12855TIP3    H159980   3.331   4.801   5.086 -0.1267 -1.9155  0.2035
12855TIP3    H259981   3.399   4.773   4.954 -0.5675 -2.2484  0.0446
12856TIP3   OH259982   3.942   1.085  13.239 -0.2557  0.6801 -0.2603
12856TIP3    H159983   3.867   1.135  13.270 -0.2577  0.8261 -0.4967
12856TIP3    H259984   3.905   1.000  13.213 -0.2907  0.6434 -0.0902
12857TIP3   OH259985   2.634   5.700   3.222  0.0792 -0.3037 -0.4670
12857TIP3    H159986   2.568   5.636   3.194 -0.1884  0.1625 -0.9410
12857TIP3    H259987   2.644   5.686   3.316  2.5480 -3.3716 -1.0487
12858TIP3   OH259988   3.986   1.385   2.489  0.2657  0.1124 -0.2639
12858TIP3    H159989   4.038   1.345   2.419  0.3890 -0.3479  0.0905
12858TIP3    H259990   4.043   1.384   2.565 -0.1399 -0.0879  0.0402
12859TIP3   OH259991   0.007   3.385  15.988  0.0238 -0.1200 -0.2540
12859TIP3    H159992   0.074   3.316  15.991 -0.0740 -0.2240 -0.4574
12859TIP3    H259993  -0.064   3.353  16.043  0.0026 -0.1558 -0.3025
12860TIP3   OH259994   0.025   4.952   2.557  0.1713 -0.3304  0.5508
12860TIP3    H159995   0.028   5.003   2.476  0.5571 -2.0036 -0.5140
12860TIP3    H259996  -0.048   4.991   2.606 -1.0539 -0.2154 -1.2466
12861TIP3   OH259997   3.050   3.313  16.349 -0.2564  0.5862 -0.0765
12861TIP3    H159998   2.969   3.346  16.310 -1.5621 -0.1865  1.8610
12861TIP3    H259999   3.106   3.391  16.357 -1.1743  1.3181 -0.5538
12862TIP3   OH260000   3.765   5.268   3.089  0.9906 -0.8372  0.5257
12862TIP3    H160001   3.860   5.265   3.092  1.0068 -0.7980  0.1545
12862TIP3    H260002   3.737   5.185   3.127  1.1901 -1.1603 -0.0245
12863TIP3   OH260003   3.651   0.860   4.964 -0.5607  0.6383  0.1605
12863TIP3    H160004   3.598   0.829   5.038 -0.2210 -2.9672 -0.9271
12863TIP3    H260005   3.736   0.881   5.002  0.2736 -3.0759  0.7362
12864TIP3   OH260006   5.003   1.334   3.965  0.0073 -0.1208 -0.2201
12864TIP3    H160007   5.098   1.341   3.971  0.0553 -1.3159  0.7531
12864TIP3    H260008   4.973   1.425   3.961  1.1426  0.2977  0.2184
12865TIP3   OH260009   2.492   3.507   4.001 -0.0647 -0.2507 -0.4485
12865TIP3    H160010   2.525   3.514   4.091  0.0487  0.8688 -0.5648
12865TIP3    H260011   2.397   3.502   4.010  0.0336 -2.3109 -0.1717
12866TIP3   OH260012   4.389   2.657  13.730  0.2705  0.0774 -0.3926
12866TIP3    H160013   4.457   2.687  13.789 -0.5201 -0.8763  1.0562
12866TIP3    H260014   4.394   2.717  13.655  2.4328  0.2418 -0.1802
12867TIP3   OH260015   0.441   2.509   2.456 -0.0399  0.1242  0.3720
12867TIP3    H160016   0.380   2.454   2.408 -1.4931  1.7174  0.2914
12867TIP3    H260017   0.435   2.479   2.547 -0.4486 -0.1514  0.2555
12868TIP3   OH260018   5.849   6.414  15.462  0.5823 -0.3849 -0.0907
12868TIP3    H160019   5.914   6.471  15.502  0.8963 -0.8423  0.0556
12868TIP3    H260020   5.899   6.360  15.401 -0.0317  1.0384 -1.9450
12869TIP3   OH260021   1.528   3.097  14.738  0.1569 -0.9736  0.5380
12869TIP3    H160022   1.508   3.184  14.706 -0.2493 -0.5085  1.9547
12869TIP3    H260023   1.464   3.040  14.696  0.1979 -0.5370 -0.1215
12870TIP3   OH260024   0.012   0.859   0.523 -0.1105  0.1231  0.2203
12870TIP3    H160025   0.091   0.822   0.484  0.4560  0.4906  1.0201
12870TIP3    H260026   0.035   0.949   0.546 -0.8834  0.3654  0.0961
12871TIP3   OH260027   3.394   5.694  14.012 -0.2169 -0.1624  0.5992
12871TIP3    H160028   3.431   5.738  13.935  0.0541 -1.8329 -0.2610
12871TIP3    H260029   3.460   5.706  14.080  0.3543 -0.1990  0.0600
12872TIP3   OH260030   2.877   3.310   0.503 -0.6160  0.7710 -0.3694
12872TIP3    H160031   2.816   3.250   0.544 -0.0686  0.6861  0.3472
12872TIP3    H260032   2.950   3.316   0.565  0.6436 -0.0151 -1.7014
12873TIP3   OH260033   2.201   3.126  16.255  0.0749  0.1307  0.0738
12873TIP3    H160034   2.224   3.094  16.342  0.6183  2.4901  0.8623
12873TIP3    H260035   2.280   3.169  16.224 -0.6684  0.9024 -0.8124
12874TIP3   OH260036   1.263   1.094   0.103  0.0486 -0.1283 -0.1455
12874TIP3    H160037   1.273   1.048   0.019  0.0113  1.1256 -0.8546
12874TIP3    H260038   1.346   1.140   0.115 -0.3109  0.4875  0.0128
12875TIP3   OH260039   4.750   6.489   5.108 -0.1578 -0.0382 -0.6881
12875TIP3    H160040   4.776   6.568   5.060 -0.9266  0.2132 -0.6936
12875TIP3    H260041   4.831   6.459   5.150  0.4248 -0.0019 -1.7620
12876TIP3   OH260042   3.805   1.890   4.518 -0.5319 -0.7178  0.2975
12876TIP3    H160043   3.856   1.867   4.440  0.0083  1.6806 -0.1624
12876TIP3    H260044   3.714   1.890   4.487 -0.8695 -4.2872  0.9349
12877TIP3   OH260045   4.970   0.627  13.711 -0.2688  0.2589  0.5686
12877TIP3    H160046   4.912   0.590  13.777  1.2759 -2.0902  0.7585
12877TIP3    H260047   4.986   0.554  13.650  2.3145  0.7978  0.4651
12878TIP3   OH260048   6.678   5.749  12.544 -0.1532 -0.0898  0.0703
12878TIP3    H160049   6.623   5.672  12.560  1.5490 -1.3886 -0.0970
12878TIP3    H260050   6.746   5.718  12.485  0.0704  1.7994 -0.7247
12879TIP3   OH260051   0.384   4.473  11.898 -0.0294 -0.3264 -0.5280
12879TIP3    H160052   0.428   4.398  11.940  0.6188  0.5691  0.4495
12879TIP3    H260053   0.429   4.483  11.815 -0.1438 -1.0438 -0.6854
12880TIP3   OH260054   0.375   1.782  13.296 -0.2246  0.2186  0.1954
12880TIP3    H160055   0.360   1.854  13.357  0.0162  0.4872 -0.0537
12880TIP3    H260056   0.414   1.824  13.219 -0.5233 -0.1128 -0.1434
12881TIP3   OH260057   3.950   0.267   5.531 -0.1756  0.2539  0.1311
12881TIP3    H160058   3.931   0.194   5.472  0.9657  1.6314 -2.0981
12881TIP3    H260059   3.887   0.258   5.602 -1.4940 -1.6422 -1.1807
12882TIP3   OH260060   0.419   4.794   3.471  0.2606  0.0539  0.2296
12882TIP3    H160061   0.369   4.713   3.458  0.2122 -0.4130  2.8135
12882TIP3    H260062   0.376   4.858   3.414 -2.3004 -0.7412  1.1421
12883TIP3   OH260063   3.469   1.884   1.380  0.1550  0.1163  0.6435
12883TIP3    H160064   3.465   1.928   1.295 -1.2696 -0.3421  0.4481
12883TIP3    H260065   3.544   1.924   1.424  0.8053  0.4974 -0.7464
12884TIP3   OH260066   3.728   4.122  16.711  0.8668 -0.0173  0.5389
12884TIP3    H160067   3.725   4.026  16.701 -0.6618 -0.1882  2.1172
12884TIP3    H260068   3.708   4.156  16.624  0.2073 -1.1625  0.2242
12885TIP3   OH260069   2.681   5.722   1.999 -0.2910  0.4990  0.4055
12885TIP3    H160070   2.639   5.805   1.974 -0.9392  0.1789  0.4134
12885TIP3    H260071   2.622   5.685   2.065 -0.4492 -0.3813 -0.2176
12886TIP3   OH260072   6.391   1.408  10.559  0.4398 -0.4254  0.1319
12886TIP3    H160073   6.297   1.395  10.575  0.7008 -1.8936  0.5969
12886TIP3    H260074   6.394   1.464  10.481 -0.8701 -2.3322 -1.3991
12887TIP3   OH260075   1.302   1.668   3.639 -0.1065 -0.6133 -0.1242
12887TIP3    H160076   1.273   1.736   3.579  1.0305 -0.2192 -0.2383
12887TIP3    H260077   1.231   1.603   3.637 -1.6201  0.9211  0.6413
12888TIP3   OH260078   1.742   2.985   4.038 -0.0006 -0.3522 -0.2771
12888TIP3    H160079   1.731   2.902   4.085  2.1107  0.0562  1.0462
12888TIP3    H260080   1.786   2.960   3.957 -1.0960 -0.7204 -0.7790
12889TIP3   OH260081   0.026   6.168   4.996 -0.3210  0.5028  0.5884
12889TIP3    H160082   0.102   6.224   4.978 -0.3824  0.7720  1.1188
12889TIP3    H260083  -0.028   6.175   4.918  0.6069 -0.3795 -0.1487
12890TIP3   OH260084   4.094   5.817   0.947 -0.2723  0.6105  0.5466
12890TIP3    H160085   4.044   5.746   0.987 -0.8898  0.5312 -0.3399
12890TIP3    H260086   4.131   5.865   1.021 -0.7147 -0.0076  1.1817
12891TIP3   OH260087   4.995   3.204  13.952 -0.1203  0.2110  0.2821
12891TIP3    H160088   4.991   3.250  14.036 -1.2398 -1.3375  1.1363
12891TIP3    H260089   4.907   3.166  13.942 -0.1575  0.7633 -1.8419
12892TIP3   OH260090   0.630   1.840   4.112 -0.1663  0.8080 -0.4066
12892TIP3    H160091   0.612   1.861   4.204 -1.1734 -0.1130 -0.3665
12892TIP3    H260092   0.677   1.916   4.079 -1.3191  1.9257  0.4271
12893TIP3   OH260093   6.469   4.715  10.189 -0.0528  0.6663  0.0503
12893TIP3    H160094   6.506   4.791  10.145  0.9763 -0.3252 -0.8443
12893TIP3    H260095   6.528   4.643  10.168 -1.3916 -0.5485  0.2675
12894TIP3   OH260096   2.503   4.451   5.050  0.3348 -0.1786 -0.0536
12894TIP3    H160097   2.450   4.470   4.972  1.7008 -0.8071 -1.1713
12894TIP3    H260098   2.567   4.523   5.053  0.7724 -0.5709  0.0379
12895TIP3   OH260099   6.424   4.923  11.054  0.0292  0.2729 -0.1968
12895TIP3    H160100   6.420   4.963  10.967 -1.1293  0.6930  0.0212
12895TIP3    H260101   6.387   4.990  11.112  2.4171  0.7051  0.9116
12896TIP3   OH260102   0.453   5.914  11.926  0.4046 -0.1590 -0.3597
12896TIP3    H160103   0.423   5.839  11.977  1.1243  0.4400  0.9952
12896TIP3    H260104   0.542   5.892  11.899  0.9760  0.5385  0.8356
12897TIP3   OH260105   2.424   0.694  11.952 -0.1454 -0.7408 -0.4432
12897TIP3    H160106   2.455   0.614  11.993  1.0775  0.0672  0.2661
12897TIP3    H260107   2.328   0.689  11.957 -0.0667 -1.9757 -0.0998
12898TIP3   OH260108   6.378   2.244   3.305  0.0903  0.5901  0.4509
12898TIP3    H160109   6.333   2.170   3.263 -0.7256  1.4438 -0.2208
12898TIP3    H260110   6.470   2.217   3.308 -0.1562 -0.3612  0.0258
12899TIP3   OH260111   1.380   5.448   2.858 -0.1847  0.4513 -0.0134
12899TIP3    H160112   1.443   5.501   2.907 -1.3911 -0.9405  3.3776
12899TIP3    H260113   1.433   5.402   2.793  1.7739  1.6283  0.6501
12900TIP3   OH260114   1.616   0.657  16.776 -0.1461 -0.4415  0.5834
12900TIP3    H160115   1.704   0.680  16.745 -0.9074  0.5102 -0.9999
12900TIP3    H260116   1.574   0.740  16.794 -1.0682 -0.8342  0.3002
12901TIP3   OH260117   3.707   5.166  15.199 -0.1486 -0.1277 -0.1484
12901TIP3    H160118   3.653   5.144  15.123  0.6369 -2.0776 -0.2058
12901TIP3    H260119   3.649   5.154  15.274 -0.2836 -0.4913 -0.3078
12902TIP3   OH260120   3.714   4.277   1.820  0.4886 -0.4849  0.1226
12902TIP3    H160121   3.678   4.342   1.760  1.4964 -1.4476 -1.5883
12902TIP3    H260122   3.706   4.318   1.907 -5.2692 -0.8269  0.1295
12903TIP3   OH260123   1.407   0.831  12.179 -0.0049 -0.1848  0.3395
12903TIP3    H160124   1.360   0.862  12.256 -0.6039  1.3232 -0.5826
12903TIP3    H260125   1.383   0.739  12.171 -2.1896  0.3254  0.3853
12904TIP3   OH260126   0.580   4.856   4.514 -0.2835  0.4520  0.3576
12904TIP3    H160127   0.571   4.863   4.609 -0.5903  0.3638  0.3357
12904TIP3    H260128   0.528   4.929   4.480  0.3735  0.8953  0.2739
12905TIP3   OH260129   0.270   4.622   0.414  0.1562 -0.1585 -0.8018
12905TIP3    H160130   0.235   4.708   0.393  1.1834  1.2026  2.3985
12905TIP3    H260131   0.193   4.564   0.410 -0.7891  1.1090 -1.8924
12906TIP3   OH260132   5.892   3.833  12.143 -0.1019  0.1552  0.1262
12906TIP3    H160133   5.797   3.834  12.138 -0.3056 -2.8804  1.1040
12906TIP3    H260134   5.921   3.903  12.084 -2.9025  2.6516  1.4847
12907TIP3   OH260135   6.133   3.756  16.483 -0.1424  0.4908  0.1369
12907TIP3    H160136   6.189   3.831  16.464 -0.2854  0.6602  0.3832
12907TIP3    H260137   6.112   3.765  16.576  1.5909 -0.9978  0.7323
12908TIP3   OH260138   0.243   4.905   0.639 -0.3202  0.1225  0.3904
12908TIP3    H160139   0.182   4.838   0.608 -1.3790  1.5682 -0.8203
12908TIP3    H260140   0.220   4.983   0.588  2.4642  0.7694 -0.0156
12909TIP3   OH260141   6.172   3.058  13.910 -0.4538  0.0598  0.2327
12909TIP3    H160142   6.154   3.152  13.905  1.8525  0.5368 -0.2536
12909TIP3    H260143   6.091   3.017  13.878 -1.3339  1.8749 -0.0338
12910TIP3   OH260144   1.903   4.846  13.972  0.6543 -0.6035  0.0643
12910TIP3    H160145   1.892   4.834  13.878 -2.4872 -0.5562  0.3519
12910TIP3    H260146   1.921   4.758  14.005  1.7001 -0.6307 -0.5141
12911TIP3   OH260147   3.069   3.755   0.694  0.8900  0.1713 -0.1101
12911TIP3    H160148   3.145   3.754   0.752  0.5271  0.0023  0.3725
12911TIP3    H260149   3.042   3.664   0.687  1.0554  0.1631 -0.7230
12912TIP3   OH260150   5.233   4.693  15.679 -0.6700 -0.1743  0.1037
12912TIP3    H160151   5.152   4.666  15.636  0.4237  2.1788 -3.8532
12912TIP3    H260152   5.297   4.627  15.653 -0.3941  0.2596 -0.3161
12913TIP3   OH260153   2.954   3.824  12.518 -0.3000  0.5013  0.2654
12913TIP3    H160154   3.022   3.757  12.509  0.4249  1.2986 -0.3800
12913TIP3    H260155   2.948   3.864  12.431 -0.0840  1.8703  0.8627
12914TIP3   OH260156   0.398   1.812   3.999 -0.5165  0.3653 -0.1714
12914TIP3    H160157   0.401   1.721   4.027  2.1984  0.1329 -0.8982
12914TIP3    H260158   0.468   1.855   4.048 -0.1945  1.4972 -1.5300
12915TIP3   OH260159   6.316   1.477  15.607 -0.0847  0.0255 -0.4185
12915TIP3    H160160   6.251   1.419  15.569  0.3821 -0.8043  0.0278
12915TIP3    H260161   6.303   1.561  15.561 -1.4767 -0.1045 -0.3108
12916TIP3   OH260162   2.032   5.309   5.650  0.2510 -0.0571  0.3096
12916TIP3    H160163   2.004   5.281   5.563 -2.1121  0.7417  0.7287
12916TIP3    H260164   2.010   5.236   5.707  1.3553 -0.3912  0.3182
12917TIP3   OH260165   4.194   1.419   4.396  0.6336 -0.1057  0.3807
12917TIP3    H160166   4.282   1.452   4.414  0.4362 -0.6900  2.6451
12917TIP3    H260167   4.136   1.476   4.446  0.0061 -1.5918  1.4220
12918TIP3   OH260168   4.693   2.095   5.644 -0.1334 -0.2039  1.0720
12918TIP3    H160169   4.701   2.190   5.653  0.0546  0.0790 -1.2382
12918TIP3    H260170   4.635   2.068   5.715 -3.3975  2.2119 -0.4202
12919TIP3   OH260171   4.594   6.606   3.133  0.2493  0.3623  0.4677
12919TIP3    H160172   4.514   6.555   3.148  0.2823 -0.0758 -0.7690
12919TIP3    H260173   4.591   6.674   3.200 -1.6019  0.8822 -0.0823
12920TIP3   OH260174   4.041   5.069   3.247  0.1783  0.4868 -0.3601
12920TIP3    H160175   4.038   5.018   3.327 -3.1681 -0.6274 -1.0547
12920TIP3    H260176   4.081   5.011   3.182 -1.4508 -0.4405 -0.5746
12921TIP3   OH260177   0.304   0.239  16.645 -0.4459  0.4960  0.9549
12921TIP3    H160178   0.329   0.248  16.736 -0.4078  1.8279  0.8200
12921TIP3    H260179   0.373   0.184  16.607  0.4495  1.3075  1.3615
12922TIP3   OH260180   6.350   3.116   1.509  0.4081 -0.3039 -0.5612
12922TIP3    H160181   6.439   3.135   1.537  0.2769 -0.0390 -0.3226
12922TIP3    H260182   6.304   3.091   1.590  0.0371  0.4325 -0.5375
12923TIP3   OH260183   4.625   2.034  13.388  0.0650  0.7009 -0.1574
12923TIP3    H160184   4.629   2.130  13.389 -2.6253  0.8985 -1.1315
12923TIP3    H260185   4.551   2.012  13.444  0.5139 -0.8298 -0.1083
12924TIP3   OH260186   6.558   6.266   1.440  0.4605  0.4534 -0.3371
12924TIP3    H160187   6.604   6.218   1.371 -1.1765 -0.4949 -0.8425
12924TIP3    H260188   6.506   6.199   1.485  0.5441  1.2624  1.0359
12925TIP3   OH260189   2.106   0.766  12.960  0.3304 -0.7752  0.1018
12925TIP3    H160190   2.072   0.676  12.958 -0.5656 -0.4397 -0.0697
12925TIP3    H260191   2.040   0.815  13.009 -0.0162  0.1234 -1.2223
12926TIP3   OH260192   4.250   6.469   1.234 -0.2034  0.3079 -0.1301
12926TIP3    H160193   4.231   6.415   1.310 -0.3549  0.5531  0.0083
12926TIP3    H260194   4.300   6.412   1.175  1.2750  0.5526  0.8206
12927TIP3   OH260195   5.455   2.081   2.515  0.8345 -0.2748 -0.3660
12927TIP3    H160196   5.410   2.124   2.588 -1.0706  1.2857 -2.3195
12927TIP3    H260197   5.498   2.005   2.554 -0.8969 -0.0527  2.1884
12928TIP3   OH260198   0.931   1.357   0.193  0.0163  0.0392  0.1221
12928TIP3    H160199   0.857   1.415   0.215  0.2686  0.8884 -1.1280
12928TIP3    H260200   0.925   1.348   0.098 -1.4220 -3.9654  0.4299
12929TIP3   OH260201   0.638   5.191  11.899  0.2128  0.0854  0.2234
12929TIP3    H160202   0.701   5.119  11.897 -0.6171 -0.6404  0.0619
12929TIP3    H260203   0.654   5.234  11.983  0.7614 -0.2348  0.2867
12930TIP3   OH260204   0.672   0.850  13.851 -0.0455 -0.1639  0.4918
12930TIP3    H160205   0.725   0.858  13.931 -1.0625 -0.1095  1.1746
12930TIP3    H260206   0.646   0.757  13.850  0.0278 -0.1801  0.1837
12931TIP3   OH260207   0.563   0.442   6.075 -0.0902 -0.1159  0.1006
12931TIP3    H160208   0.590   0.534   6.073 -1.3673  0.2856  0.1461
12931TIP3    H260209   0.612   0.401   6.003  0.2066  0.6858 -0.1649
12932TIP3   OH260210   3.768   2.811  12.763 -0.1667  0.2557 -0.1862
12932TIP3    H160211   3.777   2.884  12.824  1.2060  0.3306 -0.4415
12932TIP3    H260212   3.846   2.817  12.707 -1.4924  0.3534 -2.1388
12933TIP3   OH260213   3.183   5.025  10.737  0.1406  0.6251 -0.4572
12933TIP3    H160214   3.126   4.949  10.722  1.1144 -0.2244 -0.0055
12933TIP3    H260215   3.143   5.095  10.685 -1.1344 -0.0122 -0.3899
12934TIP3   OH260216   1.039   5.632   5.550  0.3559  0.1174 -0.7574
12934TIP3    H160217   1.026   5.726   5.540 -0.5924 -0.0577 -1.2185
12934TIP3    H260218   1.123   5.624   5.596 -0.7762  1.2831  1.7009
12935TIP3   OH260219   6.516   5.249   3.283  0.1851 -0.0604  0.0420
12935TIP3    H160220   6.559   5.257   3.198 -0.6483 -1.2974 -0.5424
12935TIP3    H260221   6.584   5.266   3.347  1.4736 -1.5521 -0.8540
12936TIP3   OH260222   1.146   0.062  12.146  0.5137 -0.1235 -0.4491
12936TIP3    H160223   1.109   0.150  12.151  0.1946 -0.2900  0.3599
12936TIP3    H260224   1.082   0.006  12.191  0.4736 -0.8527 -1.3819
12937TIP3   OH260225   0.085   2.460  12.791 -0.1850 -0.0218 -0.4524
12937TIP3    H160226   0.033   2.425  12.863 -0.4730 -1.0945 -1.1645
12937TIP3    H260227   0.055   2.412  12.713 -0.7592  1.9657 -1.5231
12938TIP3   OH260228   1.568   2.410   2.122  0.4727 -0.0780 -0.0338
12938TIP3    H160229   1.475   2.407   2.096  0.7315  1.4941 -1.3355
12938TIP3    H260230   1.566   2.440   2.213 -0.3370 -2.3109  0.7677
12939TIP3   OH260231   3.461   4.392   1.047 -0.0772 -0.4573  0.2002
12939TIP3    H160232   3.542   4.385   1.099 -0.1433 -1.3929  0.1955
12939TIP3    H260233   3.468   4.477   1.004  0.7548 -0.3785  0.4601
12940TIP3   OH260234   0.753   2.406  14.077 -0.4635  0.4587 -0.4810
12940TIP3    H160235   0.750   2.486  14.025 -1.0026  1.8437  1.5686
12940TIP3    H260236   0.691   2.421  14.148  0.3954 -1.2477  0.6922
12941TIP3   OH260237   1.130   6.782  16.369 -0.0334 -0.1981  0.5750
12941TIP3    H160238   1.167   6.731  16.296 -0.5780 -0.0922  0.2158
12941TIP3    H260239   1.148   6.729  16.447  0.4780 -0.3561  0.3566
12942TIP3   OH260240   5.039   3.626   3.115 -0.5349  0.2826  0.4941
12942TIP3    H160241   4.988   3.628   3.035 -0.2480 -1.0657  0.2527
12942TIP3    H260242   4.975   3.639   3.185 -1.4346 -2.3778  0.2729
12943TIP3   OH260243   3.374   0.234  15.344 -0.1994 -0.1633 -0.3773
12943TIP3    H160244   3.296   0.239  15.400  0.1228 -0.2746  0.0863
12943TIP3    H260245   3.341   0.250  15.256 -0.8321 -0.7570 -0.2533
12944TIP3   OH260246   6.387   1.524  12.021  0.1222 -0.2056 -0.1118
12944TIP3    H160247   6.325   1.509  11.950 -0.5827 -0.1509  0.4911
12944TIP3    H260248   6.442   1.445  12.022 -1.5526 -1.4117  0.9939
12945TIP3   OH260249   4.001   5.991  13.336  0.5199  0.1568 -0.2082
12945TIP3    H160250   4.085   5.956  13.365  0.6716  0.4843 -0.2485
12945TIP3    H260251   4.020   6.032  13.251  0.5709  1.2300  0.3001
12946TIP3   OH260252   3.547   0.342   1.013 -0.0408 -0.6293 -0.3737
12946TIP3    H160253   3.622   0.366   0.958 -0.3984  1.6962  0.0538
12946TIP3    H260254   3.472   0.347   0.954 -0.2508  0.4121 -0.0253
12947TIP3   OH260255   4.514   5.112  12.898 -0.0842  0.1063  0.0289
12947TIP3    H160256   4.484   5.182  12.957 -2.9376 -0.3832 -0.6958
12947TIP3    H260257   4.601   5.141  12.871 -0.4136  2.4837  1.1469
12948TIP3   OH260258   4.857   5.135  14.829 -0.3452  0.1520 -0.3945
12948TIP3    H160259   4.866   5.044  14.801  1.0786  0.9775 -2.8817
12948TIP3    H260260   4.766   5.157  14.809  0.4345  0.5151 -4.2410
12949TIP3   OH260261   2.287   3.617  15.412 -0.2859  0.4312 -0.5937
12949TIP3    H160262   2.334   3.700  15.412 -0.6657  0.7163  1.7972
12949TIP3    H260263   2.219   3.627  15.479 -0.0629 -1.9441  0.1089
12950TIP3   OH260264   2.750   4.097  13.820  0.0416 -0.2379  0.1989
12950TIP3    H160265   2.795   4.019  13.787 -1.7808 -2.2233  2.0487
12950TIP3    H260266   2.672   4.105  13.765  1.0066  1.3350 -1.0226
12951TIP3   OH260267   3.507   4.062  11.755 -0.3156 -0.1264 -0.3751
12951TIP3    H160268   3.581   4.117  11.779 -2.0430  1.2691  2.1850
12951TIP3    H260269   3.535   3.973  11.775  0.2144  0.5167  1.9891
12952TIP3   OH260270   1.469   6.739   3.372 -0.0142 -0.4869  0.1800
12952TIP3    H160271   1.378   6.762   3.386  0.0523  0.2045 -0.4279
12952TIP3    H260272   1.467   6.655   3.327 -0.3789 -0.0924 -0.5447
12953TIP3   OH260273   4.552   2.623  12.376 -0.4459 -0.3968  0.5020
12953TIP3    H160274   4.496   2.694  12.344  0.1452 -0.5227 -0.9168
12953TIP3    H260275   4.565   2.641  12.469  0.4723  1.8894 -0.0063
12954TIP3   OH260276   4.565   2.144   4.815 -0.3488  0.3901  0.3793
12954TIP3    H160277   4.628   2.213   4.833  0.3128 -0.2133  0.4275
12954TIP3    H260278   4.506   2.144   4.890  1.6948 -1.3553  2.0846
12955TIP3   OH260279   1.568   2.368  11.534  0.2381 -0.4070  0.3061
12955TIP3    H160280   1.641   2.306  11.542  1.8401  1.4171  0.7130
12955TIP3    H260281   1.559   2.382  11.440  2.4725  1.5153  0.2783
12956TIP3   OH260282   2.361   4.070   2.727 -0.7151 -0.2198  0.4435
12956TIP3    H160283   2.363   4.164   2.712 -2.1541 -0.1360  0.6857
12956TIP3    H260284   2.355   4.032   2.639  2.6901 -0.2609  0.1105
12957TIP3   OH260285   6.153   3.390  12.893  0.4476  0.0189  0.2098
12957TIP3    H160286   6.131   3.346  12.811 -1.0922  1.4304 -0.1824
12957TIP3    H260287   6.074   3.384  12.946  0.0408  2.4911  0.0086
12958TIP3   OH260288   5.698   4.069  12.659  0.3304  0.2433  0.7252
12958TIP3    H160289   5.773   4.090  12.715  0.0717 -2.0144  2.0302
12958TIP3    H260290   5.627   4.125  12.691  0.6128  0.1050  1.5953
12959TIP3   OH260291   6.153   2.334  16.599 -0.7157  0.4605 -0.6174
12959TIP3    H160292   6.068   2.364  16.631  0.5739  1.5134  2.0969
12959TIP3    H260293   6.206   2.413  16.593  1.0451 -0.5155  1.0553
12960TIP3   OH260294   6.578   5.198  17.183 -0.1602 -0.2426 -0.1435
12960TIP3    H160295   6.656   5.254  17.180  0.2217 -0.7626 -0.0727
12960TIP3    H260296   6.590   5.135  17.113  0.1170 -1.1325  0.6771
12961TIP3   OH260297   6.405   4.344   0.149  0.7509  0.1324  0.4428
12961TIP3    H160298   6.372   4.433   0.148  0.3903  0.1058  3.2787
12961TIP3    H260299   6.405   4.318   0.057 -2.4911  1.8133 -0.1954
12962TIP3   OH260300   0.306   1.150   5.942  0.6079  0.4578 -0.5054
12962TIP3    H160301   0.272   1.102   6.018  1.9752  1.8902  1.0997
12962TIP3    H260302   0.363   1.217   5.980 -1.0265  3.2572 -2.6204
12963TIP3   OH260303   5.814   1.415   0.230  0.5102  0.1182 -0.2861
12963TIP3    H160304   5.721   1.409   0.254  0.0298  1.0250 -1.8359
12963TIP3    H260305   5.838   1.325   0.206 -0.3255  0.1104 -1.1333
12964TIP3   OH260306   0.892   5.802  16.214 -0.2652  0.1039 -0.0211
12964TIP3    H160307   0.954   5.824  16.145 -0.0395 -0.7663 -0.1091
12964TIP3    H260308   0.831   5.875  16.216 -0.3834  0.0570 -1.2673
12965TIP3   OH260309   3.753   0.004  16.683  0.5487  0.1124  0.2090
12965TIP3    H160310   3.776   0.095  16.664  0.0218  0.1826 -0.1093
12965TIP3    H260311   3.742  -0.036  16.597  1.9577 -0.5719  0.3183
12966TIP3   OH260312   2.192   5.211   2.672 -0.2370  0.6334  0.4622
12966TIP3    H160313   2.281   5.197   2.642  0.3525  3.9726  0.2736
12966TIP3    H260314   2.137   5.182   2.599  0.6390 -1.3649  0.5485
12967TIP3   OH260315   3.884   2.651  16.127 -0.4593  0.1441 -0.1370
12967TIP3    H160316   3.941   2.619  16.058  0.6824 -0.4415  1.0231
12967TIP3    H260317   3.833   2.721  16.087  0.5340  0.1600 -1.4175
12968TIP3   OH260318   1.737   5.192   3.416 -0.0677  0.3313 -0.1776
12968TIP3    H160319   1.658   5.139   3.429  0.6199 -0.7256 -0.2126
12968TIP3    H260320   1.703   5.281   3.402 -1.2835 -0.2042 -0.8318
12969TIP3   OH260321   4.144   2.427  16.652  0.4866 -0.5832 -0.2536
12969TIP3    H160322   4.121   2.364  16.584  0.4888 -1.4652  0.5270
12969TIP3    H260323   4.076   2.493  16.647  1.1047 -0.0222 -1.8331
12970TIP3   OH260324   1.951   1.937  12.325 -0.3823  0.2229 -0.9640
12970TIP3    H160325   1.862   1.973  12.321 -0.3675  0.2295 -1.2386
12970TIP3    H260326   1.950   1.865  12.262 -1.0704 -1.6893  1.1014
12971TIP3   OH260327   6.679   1.321   4.635  0.2325 -0.5405 -0.3463
12971TIP3    H160328   6.711   1.324   4.725 -0.5732 -1.3430 -0.0206
12971TIP3    H260329   6.758   1.303   4.583  0.8171  0.5961  0.1039
12972TIP3   OH260330   0.016   5.893   1.401 -0.4552  0.7479 -0.5287
12972TIP3    H160331  -0.026   5.861   1.321 -0.7455 -1.9733  0.6321
12972TIP3    H260332   0.079   5.826   1.425  0.5633  2.1200  0.8573
12973TIP3   OH260333   1.119   5.553  13.235  0.2372  0.7999  0.0371
12973TIP3    H160334   1.143   5.479  13.290  0.1547  0.8805  0.1804
12973TIP3    H260335   1.127   5.520  13.145 -0.1759  0.5027  0.1076
12974TIP3   OH260336   0.110   2.689  12.356 -0.5270 -0.4973  0.3931
12974TIP3    H160337   0.052   2.622  12.321 -0.8194 -1.2645  2.2346
12974TIP3    H260338   0.076   2.771  12.320 -1.1087 -1.1792 -0.6616
12975TIP3   OH260339   3.305   0.678  17.143  0.5826 -0.1995 -0.1553
12975TIP3    H160340   3.269   0.620  17.210 -2.3567 -0.1444 -1.5283
12975TIP3    H260341   3.289   0.633  17.060 -0.7571  1.9771 -1.1784
12976TIP3   OH260342   0.156   0.565  11.736  0.3811 -0.5015 -0.3369
12976TIP3    H160343   0.230   0.521  11.777  0.5027  0.8669  0.9908
12976TIP3    H260344   0.194   0.619  11.667  0.7341  0.7310  0.7927
12977TIP3   OH260345   4.885   2.197  13.428 -0.1614  0.0248  0.1912
12977TIP3    H160346   4.815   2.134  13.413 -0.2248 -0.1411  1.0942
12977TIP3    H260347   4.853   2.279  13.390 -1.5558  0.3539  1.9353
12978TIP3   OH260348   4.720   0.876  11.100 -0.4596 -0.0949 -0.0772
12978TIP3    H160349   4.666   0.811  11.055  1.0841 -1.6661  0.2276
12978TIP3    H260350   4.781   0.824  11.152  0.6073  1.6312  0.4704
12979TIP3   OH260351   6.182   1.506   4.546  0.2529  0.1766  0.1958
12979TIP3    H160352   6.141   1.526   4.462 -0.6937 -2.0240  0.0673
12979TIP3    H260353   6.109   1.503   4.608  0.7902  0.5340  0.8681
12980TIP3   OH260354   5.713   5.139  16.538  0.2782  0.4150  0.2567
12980TIP3    H160355   5.794   5.140  16.487  0.2224  0.4735  0.1695
12980TIP3    H260356   5.652   5.193  16.488 -0.3992 -1.0761 -0.6103
12981TIP3   OH260357   3.859   0.170   0.755 -0.3292  0.4545 -0.3006
12981TIP3    H160358   3.820   0.127   0.680 -1.0934  0.1250  0.2692
12981TIP3    H260359   3.934   0.116   0.779 -0.2662  0.3951 -0.6398
12982TIP3   OH260360   4.308   3.338   0.851  0.5185 -0.1003  0.1348
12982TIP3    H160361   4.320   3.292   0.767  1.5744 -1.5370  1.0193
12982TIP3    H260362   4.213   3.340   0.863  0.4076 -2.6743  0.3266
12983TIP3   OH260363   2.731   6.155  14.296 -0.2504  0.6475 -0.1633
12983TIP3    H160364   2.791   6.096  14.342 -1.5585 -1.1662 -0.6635
12983TIP3    H260365   2.644   6.134  14.331 -1.1691 -0.1035 -2.6485
12984TIP3   OH260366   4.510   5.837  11.886 -0.0094 -0.2875  0.4715
12984TIP3    H160367   4.518   5.820  11.980 -0.6974 -0.4950  0.4983
12984TIP3    H260368   4.595   5.812  11.850  0.3354  0.0008  1.0629
12985TIP3   OH260369   3.434   1.922  13.079  0.0085  0.0666  0.7010
12985TIP3    H160370   3.352   1.912  13.030  0.0803 -1.3197  0.8302
12985TIP3    H260371   3.424   1.864  13.155 -0.0265  2.0412  2.2712
12986TIP3   OH260372   5.351   2.582  13.892  0.1386  0.0035  0.1781
12986TIP3    H160373   5.319   2.550  13.977  0.0546 -0.2042  0.0678
12986TIP3    H260374   5.361   2.677  13.905 -0.1769  0.0189  0.3279
12987TIP3   OH260375   5.563   6.447  16.758 -0.3901 -0.0019 -0.2513
12987TIP3    H160376   5.483   6.395  16.766 -1.1649  0.9590 -1.4408
12987TIP3    H260377   5.573   6.488  16.844 -1.6182  0.4761 -0.3188
12988TIP3   OH260378   5.628   6.464  17.037 -0.0415 -0.2520  0.4475
12988TIP3    H160379   5.669   6.409  17.103 -1.2919 -2.4420 -0.5063
12988TIP3    H260380   5.535   6.464  17.059 -0.3862 -0.4561 -0.8745
12989TIP3   OH260381   3.351   4.005   4.305 -0.3922  0.0208  0.7586
12989TIP3    H160382   3.292   4.016   4.380  0.9267  0.7871  1.7416
12989TIP3    H260383   3.425   4.063   4.324  0.4903 -0.5906 -0.6198
12990TIP3   OH260384   4.996   0.342   0.252 -0.0175  0.2087 -0.5889
12990TIP3    H160385   4.994   0.437   0.240  0.6372  0.1883 -0.9214
12990TIP3    H260386   5.017   0.330   0.344 -0.0384  0.3866 -0.5601
12991TIP3   OH260387   5.700   0.759   4.212 -0.3874  0.0805  0.4058
12991TIP3    H160388   5.745   0.813   4.147 -1.0076 -0.1217 -0.1997
12991TIP3    H260389   5.756   0.764   4.289  1.2875 -1.0327 -0.6546
12992TIP3   OH260390   2.415   1.150  15.539 -0.1679 -0.2154 -0.4585
12992TIP3    H160391   2.423   1.120  15.630 -0.4685 -1.2748 -0.7634
12992TIP3    H260392   2.416   1.246  15.545 -0.2967 -0.2699  0.6659
12993TIP3   OH260393   3.066   2.256   3.028 -0.4159  0.1794  0.3367
12993TIP3    H160394   3.041   2.323   3.091  2.0246 -0.3200  1.9719
12993TIP3    H260395   3.021   2.177   3.057  0.1484  0.1202  1.0928
12994TIP3   OH260396   1.693   1.027   3.550  0.7095 -0.0978 -0.1837
12994TIP3    H160397   1.660   1.100   3.498 -0.7997 -0.2547  0.4916
12994TIP3    H260398   1.788   1.033   3.543  0.5727  0.9881 -1.4115
12995TIP3   OH260399   4.638   2.925  17.067 -0.4692 -0.0130  0.1128
12995TIP3    H160400   4.720   2.962  17.036  0.0500 -0.9136  0.3946
12995TIP3    H260401   4.639   2.835  17.036 -1.5424  0.0741 -0.2351
12996TIP3   OH260402   1.308   2.706   2.269  0.1954  0.2982 -0.1164
12996TIP3    H160403   1.296   2.765   2.343 -0.9143 -0.2425  0.1634
12996TIP3    H260404   1.225   2.711   2.220  1.0105  0.8566 -1.4906
12997TIP3   OH260405   0.574   0.147  16.758 -0.3940 -0.0605  0.1152
12997TIP3    H160406   0.600   0.124  16.669 -0.1670  2.0079 -0.3997
12997TIP3    H260407   0.576   0.064  16.806 -1.0418 -1.3110 -1.9099
12998TIP3   OH260408   2.233   5.120  12.252  0.5250 -0.2749 -0.3174
12998TIP3    H160409   2.193   5.174  12.320 -0.9966 -1.5111 -0.1611
12998TIP3    H260410   2.162   5.105  12.189  1.0235 -1.7147 -0.5654
12999TIP3   OH260411   2.869   3.288  12.283  0.0592 -0.1676  0.4823
12999TIP3    H160412   2.916   3.209  12.256 -0.6581 -0.7089  0.7829
12999TIP3    H260413   2.931   3.359  12.268  0.1804 -0.5864 -1.2735
13000TIP3   OH260414   0.940   5.029   1.907  0.2092 -0.0558  0.2341
13000TIP3    H160415   0.882   5.064   1.975  1.4739 -0.0545  1.3531
13000TIP3    H260416   0.904   5.064   1.825 -0.8308  0.6705  0.9698
13001TIP3   OH260417   5.529   1.418   3.069  0.0366  0.2025 -0.0471
13001TIP3    H160418   5.451   1.473   3.063 -0.8204 -0.6940  1.8962
13001TIP3    H260419   5.599   1.478   3.092 -0.5352  0.7143  0.3977
13002TIP3   OH260420   5.940   5.657   2.588 -0.4187  0.1375 -0.0467
13002TIP3    H160421   6.004   5.649   2.660  0.1927  3.1324 -0.1246
13002TIP3    H260422   5.864   5.698   2.629  0.7839  4.1041 -1.3500
13003TIP3   OH260423   6.375   3.765  14.422  0.0249 -0.2846  0.0798
13003TIP3    H160424   6.396   3.788  14.512 -1.2075  1.3656 -0.0149
13003TIP3    H260425   6.430   3.688  14.403  1.4961  0.3196  1.6810
13004TIP3   OH260426   3.174   3.683   0.149 -0.2263 -0.5692 -0.1731
13004TIP3    H160427   3.107   3.651   0.209  0.0867  0.1448  0.5837
13004TIP3    H260428   3.204   3.766   0.188  0.0109 -0.1026 -1.3037
13005TIP3   OH260429   0.749   1.966   6.378  0.2156  0.2702  0.2300
13005TIP3    H160430   0.739   1.934   6.288  0.7706 -0.6968  0.4995
13005TIP3    H260431   0.703   1.902   6.432 -1.3740  1.6035  0.5492
13006TIP3   OH260432   1.864   3.901  16.577  1.0297 -0.0191 -0.0842
13006TIP3    H160433   1.805   3.833  16.611 -0.3255  0.8534 -0.6573
13006TIP3    H260434   1.937   3.852  16.539 -0.3778 -1.2076 -1.3415
13007TIP3   OH260435   1.532   1.515  10.718  0.3014  0.7565  0.1232
13007TIP3    H160436   1.623   1.543  10.706  1.0760 -1.9450 -1.1648
13007TIP3    H260437   1.480   1.588  10.684  2.1393  0.9249 -2.6485
13008TIP3   OH260438   1.747   0.495   0.802  0.6740  0.0836  0.3850
13008TIP3    H160439   1.787   0.411   0.822  0.7369  0.3611  1.5155
13008TIP3    H260440   1.818   0.558   0.811  0.2202  0.4709  1.4855
13009TIP3   OH260441   4.968   0.884   4.681  0.0065 -0.0271 -0.3002
13009TIP3    H160442   4.900   0.854   4.742 -0.6307 -0.3559 -1.1565
13009TIP3    H260443   4.948   0.977   4.668  0.4719  0.1787  0.4025
13010TIP3   OH260444   2.742   5.252   5.617 -0.5844 -0.0711  0.1381
13010TIP3    H160445   2.741   5.187   5.547 -1.6606 -1.3804  1.3178
13010TIP3    H260446   2.803   5.320   5.586 -0.7589 -0.7792 -1.8731
13011TIP3   OH260447   2.430   4.953  13.935  0.0315 -0.2588 -0.2025
13011TIP3    H160448   2.480   4.990  13.862 -0.7801  0.5083 -0.3971
13011TIP3    H260449   2.439   5.016  14.006  0.1620 -0.6093  0.0967
13012TIP3   OH260450   5.845   6.394  16.792 -0.4527  0.1376  0.4459
13012TIP3    H160451   5.840   6.478  16.747  0.5628  0.6916  1.3473
13012TIP3    H260452   5.765   6.390  16.845  0.5986  1.6060  2.2154
13013TIP3   OH260453   3.539   4.841  12.095  0.3462  0.2289  0.2010
13013TIP3    H160454   3.458   4.871  12.054 -1.0529 -1.2909  1.7099
13013TIP3    H260455   3.582   4.922  12.123 -0.7415  1.0579 -0.4314
13014TIP3   OH260456   4.398   2.435   1.321  0.1584  0.1353  0.1089
13014TIP3    H160457   4.493   2.445   1.327  0.0220  0.6918  2.5011
13014TIP3    H260458   4.381   2.350   1.362 -0.3195 -0.4167 -1.1986
13015TIP3   OH260459   4.258   2.873  14.132  0.0771 -0.2498  0.1531
13015TIP3    H160460   4.246   2.778  14.132 -1.4851 -0.0815 -0.1151
13015TIP3    H260461   4.277   2.894  14.223  0.5663 -0.8273  0.1912
13016TIP3   OH260462   0.174   4.902  11.253  0.1381  0.1275 -0.1070
13016TIP3    H160463   0.138   4.968  11.312 -0.1111 -1.6848  1.9100
13016TIP3    H260464   0.238   4.854  11.307 -0.4558 -1.9337 -1.1324
13017TIP3   OH260465   3.292   6.209  11.369 -0.3196 -0.4479 -0.6594
13017TIP3    H160466   3.366   6.150  11.387 -0.2978  0.3351  2.2229
13017TIP3    H260467   3.332   6.286  11.330  0.1463 -0.7584 -0.8079
13018TIP3   OH260468   6.291   6.247  17.033  0.2095 -0.0765  0.0250
13018TIP3    H160469   6.350   6.269  16.961  1.7128  1.0141  1.5082
13018TIP3    H260470   6.205   6.238  16.991  1.5364 -3.1710 -2.4536
13019TIP3   OH260471   1.503   6.339   1.136 -0.0233 -0.1512  0.8026
13019TIP3    H160472   1.425   6.331   1.081  0.2643 -1.0980  0.4947
13019TIP3    H260473   1.570   6.373   1.077 -0.2337  0.8016  1.1042
13020TIP3   OH260474   4.085   4.743   1.667  0.3083 -0.3967 -0.8965
13020TIP3    H160475   4.111   4.810   1.731 -0.4781 -1.7539  0.9566
13020TIP3    H260476   4.016   4.785   1.616 -0.1837  0.2382  0.2315
13021TIP3   OH260477   1.828   4.919  13.295  0.0379 -0.0592 -0.9609
13021TIP3    H160478   1.739   4.950  13.312 -0.0979 -0.8635 -0.1224
13021TIP3    H260479   1.875   4.936  13.376  0.3087 -0.7867 -0.9569
13022TIP3   OH260480   5.389   4.897  14.445 -0.4569 -0.1715 -0.9284
13022TIP3    H160481   5.317   4.957  14.464 -0.0981 -0.0845  0.2709
13022TIP3    H260482   5.436   4.938  14.372 -0.1340  1.0984 -0.0388
13023TIP3   OH260483   4.218   1.002   0.663  0.3729  0.1988  0.0302
13023TIP3    H160484   4.195   0.999   0.570  0.1965  1.3971  0.0198
13023TIP3    H260485   4.307   1.037   0.664  0.7464 -0.7451  0.2717
13024TIP3   OH260486   6.062   6.393  15.127 -0.3522  0.3504 -0.3815
13024TIP3    H160487   6.156   6.378  15.140 -0.4751  1.2489  2.0584
13024TIP3    H260488   6.027   6.309  15.099  0.9760 -0.3533  0.0205
13025TIP3   OH260489   4.454   2.378   4.603  0.2121 -0.1121 -0.4345
13025TIP3    H160490   4.481   2.458   4.558  1.6779 -0.6729 -0.6131
13025TIP3    H260491   4.463   2.309   4.537 -2.4020 -0.2817 -0.7236
13026TIP3   OH260492   4.156   4.423   5.585  0.4363 -0.8447  0.3298
13026TIP3    H160493   4.081   4.381   5.627 -1.2419  2.0497  0.4479
13026TIP3    H260494   4.209   4.455   5.658 -0.3310  0.5622  0.3045
13027TIP3   OH260495   0.002   5.179   3.949  0.3504 -0.3813 -0.2293
13027TIP3    H160496   0.038   5.118   3.884 -0.1664 -1.5631  0.5660
13027TIP3    H260497   0.079   5.213   3.995  0.5780 -1.9025  0.5843
13028TIP3   OH260498   0.401   2.400  16.462  0.0626 -0.3177 -0.0841
13028TIP3    H160499   0.482   2.440  16.494  0.0711 -0.9103  0.6777
13028TIP3    H260500   0.347   2.391  16.541 -1.7032  2.1415 -0.8650
13029TIP3   OH260501   0.343   3.781  12.752  0.1026  0.2525 -0.1773
13029TIP3    H160502   0.391   3.828  12.820  0.2942 -1.6676  1.0933
13029TIP3    H260503   0.382   3.812  12.670 -0.3742  2.8829  0.5066
13030TIP3   OH260504   2.429   1.803  11.216 -0.3258  0.3469  0.3233
13030TIP3    H160505   2.435   1.861  11.140 -0.4540 -0.5533 -0.3777
13030TIP3    H260506   2.446   1.861  11.291  0.8362  1.0591 -0.4498
13031TIP3   OH260507   6.388   6.724   2.059 -0.5456 -0.0961 -0.6101
13031TIP3    H160508   6.326   6.777   2.107 -0.1543 -0.4324  0.2978
13031TIP3    H260509   6.357   6.724   1.969 -1.1531  0.7542 -0.3997
13032TIP3   OH260510   5.992   1.192  13.374 -0.6343 -0.0484 -0.0601
13032TIP3    H160511   5.928   1.163  13.439  0.2212 -0.6320  0.5426
13032TIP3    H260512   6.010   1.115  13.320  1.4337 -0.6526  1.3682
13033TIP3   OH260513   5.165   6.031  14.353  0.6388  0.4071 -0.2120
13033TIP3    H160514   5.203   5.943  14.361  0.8692  0.4691 -0.5940
13033TIP3    H260515   5.194   6.061  14.267  0.5325  0.8452 -0.0944
13034TIP3   OH260516   3.403   6.610  16.709 -0.2028  0.3933  0.2151
13034TIP3    H160517   3.452   6.672  16.763 -0.8314 -0.0015  1.2630
13034TIP3    H260518   3.319   6.600  16.754 -0.5329 -0.3716 -0.5428
13035TIP3   OH260519   2.622   3.655  15.358 -0.1370  0.2195  0.5999
13035TIP3    H160520   2.657   3.566  15.361  1.6427  0.8014 -0.9893
13035TIP3    H260521   2.559   3.653  15.285  0.2318  0.3627  0.2759
13036TIP3   OH260522   3.789   6.537  12.159 -0.0218  0.7511 -0.0620
13036TIP3    H160523   3.843   6.589  12.098 -1.4723  1.6248 -0.6475
13036TIP3    H260524   3.813   6.571  12.246  0.7395  0.7756 -0.2756
13037TIP3   OH260525   4.184   5.482   4.045  0.2983 -0.2407  0.3319
13037TIP3    H160526   4.225   5.399   4.022  0.6113 -0.7340  2.5081
13037TIP3    H260527   4.090   5.465   4.040  0.3411 -1.1230  1.9186
13038TIP3   OH260528   3.895   5.908   5.147  0.1179  0.0724 -0.1375
13038TIP3    H160529   3.826   5.879   5.207  0.0550  0.0872 -0.2028
13038TIP3    H260530   3.967   5.933   5.205  0.2993 -0.5342 -0.0945
13039TIP3   OH260531   0.649   3.910   4.316  0.3660  0.3354  0.8936
13039TIP3    H160532   0.588   3.980   4.337  0.7060  0.6620  0.8129
13039TIP3    H260533   0.712   3.951   4.257 -0.7170 -0.6250 -1.0135
13040TIP3   OH260534   6.380   2.173   5.719  0.0861  0.2796 -0.6203
13040TIP3    H160535   6.399   2.096   5.667  0.7479  1.1448 -1.7099
13040TIP3    H260536   6.459   2.186   5.772 -0.6748 -0.7369  0.8385
13041TIP3   OH260537   1.228   4.563   0.178 -0.9139  0.0472 -0.1244
13041TIP3    H160538   1.151   4.606   0.216 -0.4155 -0.6471  1.7921
13041TIP3    H260539   1.284   4.635   0.149 -0.6661  0.7271  1.8509
13042TIP3   OH260540   1.318   2.570  15.553 -0.3972 -0.0875  0.0423
13042TIP3    H160541   1.274   2.538  15.474 -2.4236  0.1519  1.0072
13042TIP3    H260542   1.314   2.665  15.545  0.0506 -0.0632  0.1002
13043TIP3   OH260543   1.114   4.459   0.471 -0.1808  0.1827 -0.2196
13043TIP3    H160544   1.040   4.430   0.419 -1.1104  0.7662  0.7379
13043TIP3    H260545   1.085   4.542   0.509  0.2715 -0.4441  1.5998
13044TIP3   OH260546   1.228   1.045   2.933 -0.6183  0.5432 -0.0301
13044TIP3    H160547   1.144   1.001   2.948 -0.3241 -0.7240 -1.8019
13044TIP3    H260548   1.233   1.056   2.838  1.1676  0.6821  0.0454
13045TIP3   OH260549   6.309   0.501   0.791 -0.8236 -0.5665 -0.5770
13045TIP3    H160550   6.300   0.591   0.759 -1.1949  0.5213  2.2882
13045TIP3    H260551   6.404   0.487   0.797 -0.7036  0.6075  1.2092
13046TIP3   OH260552   3.805   2.457  11.295 -0.3321  0.3644  0.5650
13046TIP3    H160553   3.870   2.398  11.259 -0.9831 -0.6597  1.0271
13046TIP3    H260554   3.744   2.474  11.224 -0.4947 -0.0290  0.6114
13047TIP3   OH260555   1.915   1.012   1.026  0.4305 -0.1370 -0.3001
13047TIP3    H160556   2.006   0.994   1.002  0.5352 -1.0861  0.6909
13047TIP3    H260557   1.914   1.105   1.049  1.6295 -0.5109  1.5138
13048TIP3   OH260558   2.998   1.940   5.796 -0.6463 -0.3126 -0.5945
13048TIP3    H160559   2.982   1.864   5.852  2.9759 -1.7108 -1.2304
13048TIP3    H260560   2.979   2.015   5.853 -0.6660 -1.6841  1.3172
13049TIP3   OH260561   6.396   5.020  16.383  0.1478  0.0148  0.0572
13049TIP3    H160562   6.305   5.020  16.410  0.1351  1.4213  0.0808
13049TIP3    H260563   6.441   5.072  16.450  0.5339  1.4062 -1.2287
13050TIP3   OH260564   6.616   2.112  11.060 -0.3508  0.1349 -0.3950
13050TIP3    H160565   6.536   2.139  11.015  0.6574  0.1058 -2.3059
13050TIP3    H260566   6.642   2.031  11.017  0.6347  0.0742  0.2788
13051TIP3   OH260567   1.069   2.022   2.038 -0.6605 -0.4637  0.3930
13051TIP3    H160568   1.114   1.942   2.010 -0.6072 -0.2427 -0.1524
13051TIP3    H260569   0.983   2.017   1.995 -0.5160 -0.0438  0.0475
13052TIP3   OH260570   4.859   2.607  15.612  0.2168 -0.5066  0.5684
13052TIP3    H160571   4.828   2.696  15.598 -0.6711 -0.6798  1.3632
13052TIP3    H260572   4.910   2.586  15.533 -0.8768  0.1341 -0.3306
13053TIP3   OH260573   2.550   0.433   4.335  0.0570 -0.2632  0.3077
13053TIP3    H160574   2.466   0.473   4.356  0.2564 -0.2479  1.1121
13053TIP3    H260575   2.593   0.495   4.276 -0.2087  0.0514  0.4424
13054TIP3   OH260576   0.139   2.940   3.425 -0.5869 -0.4219 -0.1869
13054TIP3    H160577   0.123   2.860   3.476  1.1719 -1.3280 -0.9672
13054TIP3    H260578   0.058   2.990   3.434 -0.8259 -1.0873  2.4736
13055TIP3   OH260579   5.814   3.190  16.499 -0.0475  0.1853  0.0231
13055TIP3    H160580   5.881   3.182  16.567  1.5216 -0.8648 -1.5849
13055TIP3    H260581   5.798   3.100  16.470  0.0731  0.6796 -1.6709
13056TIP3   OH260582   4.511   5.020   0.368  0.5387 -0.0135 -0.4664
13056TIP3    H160583   4.531   5.114   0.373 -0.9897  0.3048  0.4665
13056TIP3    H260584   4.434   5.010   0.424  0.0278 -1.6473 -1.4205
13057TIP3   OH260585   3.892   5.051  11.925  0.2750 -0.5825 -0.7929
13057TIP3    H160586   3.899   5.014  12.013 -1.1158 -0.1323 -0.4777
13057TIP3    H260587   3.959   5.120  11.923 -1.1685  0.9844  0.7511
13058TIP3   OH260588   3.293   1.319  13.301  0.3411 -0.0230 -0.5717
13058TIP3    H160589   3.249   1.236  13.318  0.4059 -0.1792 -1.1496
13058TIP3    H260590   3.305   1.321  13.206  0.7850  0.4185 -0.5125
13059TIP3   OH260591   3.297   1.836  11.933  0.2156  0.3544 -0.5023
13059TIP3    H160592   3.224   1.783  11.964 -1.1928  1.1998 -2.1908
13059TIP3    H260593   3.356   1.774  11.889 -0.0236 -0.1782 -0.0806
13060TIP3   OH260594   5.480   1.009  13.580  1.0474 -0.5576 -0.2898
13060TIP3    H160595   5.492   0.994  13.674 -4.3185 -0.3465  0.7769
13060TIP3    H260596   5.448   0.925  13.547 -3.1679  0.8215 -0.2841
13061TIP3   OH260597   1.700   6.556   4.330 -0.3103 -0.2951 -0.0731
13061TIP3    H160598   1.738   6.601   4.405 -0.3550  0.3745 -0.4484
13061TIP3    H260599   1.623   6.512   4.365 -0.3234  0.0040  0.2762
13062TIP3   OH260600   5.609   4.599   3.868 -0.6109 -0.1385  0.1619
13062TIP3    H160601   5.561   4.526   3.828 -1.3342 -0.7306  2.0268
13062TIP3    H260602   5.548   4.637   3.931  0.2247  1.2491  0.1782
13063TIP3   OH260603   4.493   5.238  16.808  0.1308  0.0285  0.6350
13063TIP3    H160604   4.437   5.274  16.876 -1.1200  0.7389 -0.7154
13063TIP3    H260605   4.434   5.185  16.755  0.8854  0.1924 -0.3850
13064TIP3   OH260606   1.722   1.078   4.244 -0.1870 -0.0496  0.5860
13064TIP3    H160607   1.749   1.104   4.332 -0.5093  0.1996  0.6155
13064TIP3    H260608   1.774   1.000   4.225  0.3627  0.2713  0.7374
13065TIP3   OH260609   6.011   2.075   1.316 -0.4806 -0.3643  0.3535
13065TIP3    H160610   6.028   1.985   1.286  2.1854  0.1934 -0.0537
13065TIP3    H260611   5.988   2.065   1.408  1.3222 -1.3952  0.7340
13066TIP3   OH260612   2.140   4.587  13.270  0.3976  0.1902 -0.4555
13066TIP3    H160613   2.197   4.642  13.217 -0.0427  1.3867  0.2731
13066TIP3    H260614   2.200   4.540  13.329  0.6440  1.9905  0.8210
13067TIP3   OH260615   4.509   5.399   2.940 -0.4972 -0.1847  0.0685
13067TIP3    H160616   4.433   5.342   2.931 -1.6228  1.4084 -0.9636
13067TIP3    H260617   4.478   5.485   2.914  1.8170  0.4236 -0.9363
13068TIP3   OH260618   3.088   4.673  14.156 -0.2728 -0.3017  0.1664
13068TIP3    H160619   3.096   4.580  14.134  1.4857 -0.4215  1.1244
13068TIP3    H260620   3.074   4.674  14.250  0.5186  0.4043  0.2923
13069TIP3   OH260621   3.631   0.725   2.930 -0.1418  0.2773 -0.1593
13069TIP3    H160622   3.566   0.754   2.994  0.3918  2.1565 -0.4047
13069TIP3    H260623   3.658   0.805   2.885  1.4918 -0.6086 -0.8487
13070TIP3   OH260624   3.081   2.559   2.497  0.5513  0.0360  0.5001
13070TIP3    H160625   3.149   2.579   2.432 -0.0689  0.3949 -0.0521
13070TIP3    H260626   3.130   2.529   2.573  1.6412  3.6572  1.4514
13071TIP3   OH260627   3.006   5.699  15.159 -0.1014 -0.5107 -0.3036
13071TIP3    H160628   3.076   5.670  15.101  0.2730 -0.5735  0.1709
13071TIP3    H260629   2.983   5.787  15.129  1.9757  0.6102  1.1187
13072TIP3   OH260630   5.459   1.097  11.779 -0.6445 -0.1478  0.4605
13072TIP3    H160631   5.387   1.046  11.743 -0.4741 -0.1271  0.0826
13072TIP3    H260632   5.430   1.188  11.773 -1.0439 -0.2147  1.3536
13073TIP3   OH260633   5.306   1.088   6.595 -0.2553 -0.5369 -0.1850
13073TIP3    H160634   5.389   1.126   6.567 -0.0914 -0.9695 -0.2937
13073TIP3    H260635   5.240   1.149   6.563 -0.0603 -0.8844 -1.3100
13074TIP3   OH260636   1.793   1.293  13.702  0.0581  0.0231  0.4058
13074TIP3    H160637   1.812   1.205  13.669  2.5262  1.2445 -1.8535
13074TIP3    H260638   1.831   1.294  13.790  3.1434 -0.2939 -0.7923
13075TIP3   OH260639   5.155   1.042   4.032 -0.1270  0.2177  0.4535
13075TIP3    H160640   5.134   1.058   3.940  3.3111 -0.7271 -0.6358
13075TIP3    H260641   5.167   0.947   4.038 -0.8737  0.1838  2.0746
13076TIP3   OH260642   1.177   6.335  15.098  0.1941  0.0185  0.1480
13076TIP3    H160643   1.098   6.371  15.058 -0.0765 -0.9742 -0.2554
13076TIP3    H260644   1.248   6.389  15.063 -0.0771 -0.5876 -1.4222
13077TIP3   OH260645   0.742   2.001  16.600 -0.0260  0.1562 -0.1063
13077TIP3    H160646   0.670   1.955  16.556  1.2686 -0.0766 -2.0907
13077TIP3    H260647   0.702   2.082  16.632 -0.9929  0.4739 -1.9888
13078TIP3   OH260648   5.200   5.235   0.711  0.0029 -0.4476  0.0892
13078TIP3    H160649   5.183   5.141   0.706 -1.7355 -0.1127 -2.2246
13078TIP3    H260650   5.265   5.245   0.780  0.2828 -3.3496  0.3413
13079TIP3   OH260651   1.563   3.314  17.106  0.0116 -0.0916 -0.1861
13079TIP3    H160652   1.653   3.340  17.128 -0.4066  0.3827  1.0082
13079TIP3    H260653   1.527   3.280  17.187 -1.0298  0.1027 -0.5565
13080TIP3   OH260654   1.981   2.673   5.793 -0.3864 -0.1877 -0.0661
13080TIP3    H160655   1.906   2.634   5.748 -0.1843 -0.0886 -0.4916
13080TIP3    H260656   1.946   2.700   5.878 -1.0506  0.6386 -0.5862
13081TIP3   OH260657   6.036   6.558  10.922 -0.1070  0.0151  0.7242
13081TIP3    H160658   5.959   6.501  10.927 -0.1924  0.1476  0.9223
13081TIP3    H260659   6.101   6.505  10.875 -0.2925 -0.1253  0.6229
13082TIP3   OH260660   1.549   4.327  13.244 -0.2580 -0.1631 -0.0560
13082TIP3    H160661   1.484   4.377  13.195 -1.0221  0.6383  1.6916
13082TIP3    H260662   1.633   4.364  13.217 -0.7992  3.0327  1.9566
13083TIP3   OH260663   4.644   1.310  14.874 -0.1432 -0.4880 -0.1265
13083TIP3    H160664   4.614   1.349  14.791 -0.0876  0.9844  0.5111
13083TIP3    H260665   4.572   1.253  14.901 -0.2022 -0.9105 -1.1337
13084TIP3   OH260666   2.944   0.925   0.716  0.5380 -0.0523 -0.2874
13084TIP3    H160667   2.863   0.936   0.666 -0.6926 -0.3918  1.5153
13084TIP3    H260668   3.001   0.995   0.684 -0.2245 -0.1645 -2.0227
13085TIP3   OH260669   3.058   4.131   0.518  0.3931 -0.5290  0.2253
13085TIP3    H160670   3.032   4.058   0.574 -2.4075 -0.0013 -0.2373
13085TIP3    H260671   3.137   4.166   0.559 -0.4300 -1.3694  2.7286
13086TIP3   OH260672   6.039   0.386  12.007  0.1258  0.1217 -0.0879
13086TIP3    H160673   6.117   0.330  11.999 -0.6430 -0.8524 -1.1646
13086TIP3    H260674   5.978   0.350  11.943 -2.4343 -1.0834  2.8272
13087TIP3   OH260675   1.856   1.190  16.496  0.1355  0.1596 -0.1437
13087TIP3    H160676   1.857   1.187  16.592 -0.5133 -1.1017 -0.1398
13087TIP3    H260677   1.946   1.209  16.471  1.1547 -2.9760  0.6970
13088TIP3   OH260678   3.868   5.847   4.671  0.2596 -0.4463 -0.3722
13088TIP3    H160679   3.957   5.843   4.706 -0.3629  0.0374  1.3325
13088TIP3    H260680   3.870   5.920   4.609  0.4862  1.1014  1.4010
13089TIP3   OH260681   5.978   3.826  11.173 -0.4072 -0.6966 -0.1170
13089TIP3    H160682   5.885   3.843  11.165 -0.4908 -1.1385 -0.1338
13089TIP3    H260683   5.991   3.743  11.126  0.2110  0.0146 -1.2445
13090TIP3   OH260684   4.731   4.840  17.171  0.6312  0.0167 -0.1138
13090TIP3    H160685   4.806   4.786  17.196 -0.0045 -0.6838  0.3278
13090TIP3    H260686   4.724   4.905  17.241  0.8710  0.1322 -0.1966
13091TIP3   OH260687   0.177   3.809  15.733 -0.7546  0.4246  0.3802
13091TIP3    H160688   0.219   3.884  15.775 -0.3668  0.2810  0.2488
13091TIP3    H260689   0.189   3.737  15.794  0.0999  0.1365 -0.1158
13092TIP3   OH260690   0.045   0.904   1.137 -0.1807  0.0096 -0.0137
13092TIP3    H160691   0.108   0.881   1.206 -0.6919 -0.4200  0.3213
13092TIP3    H260692  -0.004   0.978   1.172  0.0906  0.3075 -0.2518
13093TIP3   OH260693   2.044   6.787  15.376 -0.2850 -0.2505 -0.0938
13093TIP3    H160694   2.056   6.855  15.309 -1.3993 -0.3433 -0.4121
13093TIP3    H260695   1.950   6.768  15.374 -0.1383 -1.1210  0.6602
13094TIP3   OH260696   1.899   0.071  15.858  0.5181 -0.0666 -0.1768
13094TIP3    H160697   1.867   0.099  15.772  0.2532  0.0808 -0.0318
13094TIP3    H260698   1.958   0.142  15.885  1.0875 -0.4032 -0.5057
13095TIP3   OH260699   1.737   6.064  12.395  0.3507  0.0375  0.2845
13095TIP3    H160700   1.780   5.990  12.437  0.2779 -0.7842 -1.0372
13095TIP3    H260701   1.720   6.034  12.306  1.0174  1.9245 -0.5168
13096TIP3   OH260702   6.609   2.145  12.965 -0.2032 -0.5427  0.0003
13096TIP3    H160703   6.549   2.170  13.036 -0.5670 -2.6631  0.4931
13096TIP3    H260704   6.552   2.126  12.891  0.0284 -0.4857 -0.1948
13097TIP3   OH260705   5.349   6.439  16.507  0.3933  0.5141 -0.0269
13097TIP3    H160706   5.438   6.457  16.479 -0.0539  1.5839 -0.8095
13097TIP3    H260707   5.359   6.389  16.588  1.6988 -0.3758 -0.6953
13098TIP3   OH260708   3.114   4.231  14.388 -0.5881  0.3329 -0.1974
13098TIP3    H160709   3.024   4.210  14.362 -1.0916  1.7230  0.3357
13098TIP3    H260710   3.168   4.179  14.329 -1.6805 -2.7074  1.2008
13099TIP3   OH260711   3.391   2.437  13.232  0.4175 -0.1355  0.1984
13099TIP3    H160712   3.435   2.354  13.220  0.5173 -0.4324  2.3431
13099TIP3    H260713   3.370   2.441  13.325  0.4437  2.2544  0.1741
13100TIP3   OH260714   3.014   6.507  12.713 -0.2323  0.3463  0.2975
13100TIP3    H160715   3.109   6.511  12.706 -0.2730  1.2089  0.0197
13100TIP3    H260716   2.983   6.516  12.623 -0.5795  0.1741  0.3980
13101TIP3   OH260717   5.537   0.510  16.182 -0.6264  0.0529 -0.2166
13101TIP3    H160718   5.528   0.540  16.092  0.1056 -0.2135 -0.3819
13101TIP3    H260719   5.488   0.428  16.186  0.6335 -0.7534 -0.7865
13102TIP3   OH260720   4.397   2.896   3.522 -0.1736 -0.3100  0.1676
13102TIP3    H160721   4.379   2.816   3.572  0.4203  0.7455  2.1975
13102TIP3    H260722   4.361   2.879   3.435 -0.9027 -2.4117  0.8170
13103TIP3   OH260723   1.642   4.444   3.274 -0.9034  0.2181  0.7725
13103TIP3    H160724   1.567   4.386   3.287 -0.0129 -0.6339  2.3868
13103TIP3    H260725   1.705   4.418   3.342 -0.0718  2.4324  0.9300
13104TIP3   OH260726   3.912   4.969   5.077  0.4289 -0.7670 -0.3152
13104TIP3    H160727   3.947   4.992   5.163 -1.2768  0.8846  0.0096
13104TIP3    H260728   3.820   4.996   5.081 -0.0318 -1.9064 -2.2062
13105TIP3   OH260729   2.086   2.105   5.491 -0.2284 -0.4363 -0.9137
13105TIP3    H160730   2.124   2.192   5.485  1.6432 -1.0714  0.5614
13105TIP3    H260731   2.005   2.117   5.540 -0.3629  0.5407 -1.3540
13106TIP3   OH260732   1.093   5.452  15.197 -0.0496 -0.3987  0.3170
13106TIP3    H160733   1.176   5.405  15.199 -0.2915 -0.9046 -1.0330
13106TIP3    H260734   1.118   5.544  15.206  0.5433 -0.6326  1.2733
13107TIP3   OH260735   2.810   3.775   3.779 -0.1144 -0.1074 -0.2293
13107TIP3    H160736   2.811   3.844   3.713 -0.2189  1.7429  1.5888
13107TIP3    H260737   2.724   3.783   3.821 -0.4961 -1.9800 -0.5646
13108TIP3   OH260738   2.371   3.743   4.505  0.7139 -0.1108  0.5001
13108TIP3    H160739   2.418   3.665   4.534  0.9558  0.2019  0.9605
13108TIP3    H260740   2.439   3.800   4.469  0.7127  0.3777  1.2441
13109TIP3   OH260741   4.159   0.539  16.421 -0.6843 -0.2957  0.2424
13109TIP3    H160742   4.109   0.619  16.432  1.6738  1.1601  1.1165
13109TIP3    H260743   4.189   0.541  16.330  1.0734  0.9478  0.8001
13110TIP3   OH260744   5.718   2.268   4.088 -0.1912  0.1567 -0.1838
13110TIP3    H160745   5.731   2.217   4.008  0.1204  0.2956 -0.2213
13110TIP3    H260746   5.682   2.206   4.151 -2.2948  0.4486 -1.0000
13111TIP3   OH260747   4.522   4.565   0.193  0.1820  0.0261  0.4021
13111TIP3    H160748   4.518   4.629   0.122 -0.7004  0.4374  0.8053
13111TIP3    H260749   4.613   4.569   0.223  0.1268  1.1692  0.4716
13112TIP3   OH260750   1.577   2.787   3.661 -0.1003 -0.1640  0.0502
13112TIP3    H160751   1.574   2.771   3.567  3.3964 -0.4192 -0.1272
13112TIP3    H260752   1.616   2.709   3.698 -0.3721  0.4001  1.6015
13113TIP3   OH260753   0.857   0.787  14.520 -0.2756 -0.0534 -0.0915
13113TIP3    H160754   0.854   0.882  14.514 -1.5568 -0.1539 -1.4073
13113TIP3    H260755   0.767   0.760  14.537 -0.6406 -1.1907 -3.2153
13114TIP3   OH260756   4.611   6.448  14.323 -0.0653  0.1809  0.2365
13114TIP3    H160757   4.683   6.492  14.368  0.3567  0.1393 -0.3754
13114TIP3    H260758   4.572   6.517  14.269  0.0712  0.0077 -0.0902
13115TIP3   OH260759   1.236   3.034   3.470 -0.6546 -0.4471  0.0851
13115TIP3    H160760   1.218   3.024   3.563 -0.0874 -0.4082  0.2038
13115TIP3    H260761   1.245   2.945   3.437  0.8498 -0.4382  0.4203
13116TIP3   OH260762   2.120   5.592  15.135 -0.2882  0.1258  0.1047
13116TIP3    H160763   2.127   5.637  15.219 -0.8270  0.6017 -0.1022
13116TIP3    H260764   2.038   5.544  15.139 -0.7310  0.8129 -0.4588
13117TIP3   OH260765   4.718   0.212   4.661 -0.3293  0.3831 -0.2455
13117TIP3    H160766   4.647   0.149   4.678 -0.6025  0.3157 -1.5430
13117TIP3    H260767   4.674   0.296   4.650 -0.2116  0.3593 -0.9535
13118TIP3   OH260768   4.219   5.615  13.659 -0.4628 -0.2369  0.3240
13118TIP3    H160769   4.146   5.677  13.655 -0.0579  0.3073  1.0642
13118TIP3    H260770   4.229   5.583  13.570  0.0805  1.6657 -0.3463
13119TIP3   OH260771   3.008   6.448   1.771  0.1394  0.4278  0.7831
13119TIP3    H160772   3.098   6.448   1.803 -0.4021 -0.1782  2.4222
13119TIP3    H260773   2.971   6.529   1.806 -0.0903  0.4266  0.5414
13120TIP3   OH260774   2.133   3.979  17.150  0.2380 -0.2307 -0.2183
13120TIP3    H160775   2.063   4.039  17.124 -0.9858 -2.5717 -2.8588
13120TIP3    H260776   2.111   3.955  17.240 -0.6356  1.2992  0.0281
13121TIP3   OH260777   4.311   4.567   3.146 -0.3644  0.2425 -0.2596
13121TIP3    H160778   4.295   4.590   3.237  0.8400  0.1394 -0.0031
13121TIP3    H260779   4.266   4.483   3.134  0.4281 -0.3276  0.5880
13122TIP3   OH260780   5.957   2.441   4.607 -0.1554  0.1806 -0.1240
13122TIP3    H160781   5.909   2.515   4.571  3.0361  2.6974  0.3134
13122TIP3    H260782   5.948   2.450   4.702 -0.0803 -0.2227 -0.0762
13123TIP3   OH260783   3.707   4.020   5.748  0.4523 -0.1033 -0.0245
13123TIP3    H160784   3.612   4.014   5.745  0.5066 -0.5758 -1.8685
13123TIP3    H260785   3.738   3.945   5.697  1.7432  1.2768 -1.4010
13124TIP3   OH260786   1.794   1.831   6.206 -0.3575  0.2716  0.3814
13124TIP3    H160787   1.797   1.919   6.169 -0.4769  0.0958 -0.0613
13124TIP3    H260788   1.877   1.822   6.254 -0.8110  0.9893  1.3095
13125TIP3   OH260789   4.702   3.846  12.293  0.0801  0.2912 -0.4419
13125TIP3    H160790   4.611   3.847  12.263  0.2707  1.0327 -1.0384
13125TIP3    H260791   4.727   3.754  12.291  0.0444  0.2772 -2.5023
13126TIP3   OH260792   4.781   2.597   4.271 -0.1749  0.2026 -0.1409
13126TIP3    H160793   4.731   2.665   4.317 -0.6086  0.4382 -0.9311
13126TIP3    H260794   4.823   2.643   4.199  0.7955 -0.0932  0.2171
13127TIP3   OH260795   1.681   6.144  14.032  1.0453 -0.4924 -0.4096
13127TIP3    H160796   1.765   6.157  14.077 -0.4158  0.6641  2.2417
13127TIP3    H260797   1.639   6.072  14.079 -0.9763  1.4248  0.9240
13128TIP3   OH260798   3.312   5.599  11.088  0.7553 -0.9389 -0.2766
13128TIP3    H160799   3.239   5.555  11.131  1.9293 -0.9411  1.8742
13128TIP3    H260800   3.348   5.533  11.029  0.2966 -1.6400  0.2073
13129TIP3   OH260801   6.123   3.041   3.977  0.4783  0.2204  0.5860
13129TIP3    H160802   6.147   3.017   4.067  4.3997  0.0388 -0.3060
13129TIP3    H260803   6.096   3.132   3.984  2.1193  0.6774  1.8482
13130TIP3   OH260804   1.973   3.137  15.628 -0.4461  0.2592 -0.0655
13130TIP3    H160805   1.967   3.101  15.716  0.1961  1.4252  0.4703
13130TIP3    H260806   2.006   3.226  15.640 -1.4824  0.8611 -1.3967
13131TIP3   OH260807   4.807   0.481   3.202  0.1022  0.0753  0.3198
13131TIP3    H160808   4.900   0.487   3.220  0.2566  0.0816 -0.4586
13131TIP3    H260809   4.789   0.554   3.143  0.0306 -1.1495 -1.2284
13132TIP3   OH260810   2.440   1.821  12.164 -1.1423 -0.2239 -0.0948
13132TIP3    H160811   2.476   1.830  12.076 -0.3290  0.8547  0.3249
13132TIP3    H260812   2.436   1.726  12.179 -0.3096 -0.4012 -0.9040
13133TIP3   OH260813   2.971   1.770  14.567  0.6876 -0.4087  0.1623
13133TIP3    H160814   2.971   1.706  14.496  3.1034 -1.6954  1.1906
13133TIP3    H260815   3.025   1.730  14.635  1.1545  2.1520  1.4221
13134TIP3   OH260816   2.198   0.889  13.543 -0.0721 -0.3836  0.9799
13134TIP3    H160817   2.200   0.798  13.574 -1.2155  0.1150  2.6876
13134TIP3    H260818   2.165   0.884  13.454  1.1738 -1.7401  0.5665
13135TIP3   OH260819   1.502   6.130  13.165 -0.0260  0.1079 -0.6639
13135TIP3    H160820   1.576   6.072  13.184 -1.0042 -0.7074  0.8551
13135TIP3    H260821   1.447   6.080  13.105 -0.2070 -0.0134 -0.4013
13136TIP3   OH260822   4.355   6.485   3.180 -0.3568 -0.5835  0.1440
13136TIP3    H160823   4.278   6.525   3.139 -0.2675 -0.6042 -0.0453
13136TIP3    H260824   4.343   6.500   3.273  0.4411  1.3018 -0.0164
13137TIP3   OH260825   5.414   1.669  16.136  0.1482 -0.3761 -0.6663
13137TIP3    H160826   5.345   1.609  16.164  0.7241 -1.8055 -2.1374
13137TIP3    H260827   5.396   1.750  16.183  1.8026 -2.7683  5.0109
13138TIP3   OH260828   1.425   5.985  15.868  0.3525  0.3932 -0.3675
13138TIP3    H160829   1.478   5.926  15.814 -0.7669  0.0856 -1.1535
13138TIP3    H260830   1.342   5.993  15.821  0.0826  1.7262  0.2965
13139TIP3   OH260831   5.732   5.675  15.494  0.6796  0.2933 -0.2152
13139TIP3    H160832   5.819   5.655  15.528  0.5191  2.3254  1.5797
13139TIP3    H260833   5.676   5.682  15.571 -0.6608  0.9576 -1.1911
13140TIP3   OH260834   3.450   4.031   3.351  0.1661  0.6182 -0.2883
13140TIP3    H160835   3.424   3.985   3.432 -0.4128  1.3598 -0.0427
13140TIP3    H260836   3.515   3.974   3.312  1.4607  0.8759  1.3818
13141TIP3   OH260837   2.043   1.368  14.320 -0.1151  0.1533  0.3289
13141TIP3    H160838   2.119   1.310  14.313  0.9940  1.6925 -3.2275
13141TIP3    H260839   2.080   1.451  14.351 -0.8643  0.1765  1.1777
13142TIP3   OH260840   2.184   0.186  14.285  0.4259 -0.6443 -0.1081
13142TIP3    H160841   2.134   0.176  14.204 -0.2783 -3.0554  0.5483
13142TIP3    H260842   2.263   0.132  14.272  0.9230 -0.0485  0.3548
13143TIP3   OH260843   3.783   2.443   4.984  0.6427 -0.0837  0.0541
13143TIP3    H160844   3.838   2.369   5.011  0.3034 -0.5450 -0.4904
13143TIP3    H260845   3.695   2.406   4.979  0.7289 -0.1097 -1.9570
13144TIP3   OH260846   3.688   4.830  12.742 -0.3462 -0.6522  0.4083
13144TIP3    H160847   3.666   4.756  12.684 -1.5279 -0.1445  0.1876
13144TIP3    H260848   3.780   4.815  12.765  0.6072 -0.1669 -2.6681
13145TIP3   OH260849   0.474   2.329  14.441 -0.3237 -0.0547  0.2268
13145TIP3    H160850   0.505   2.278  14.516  1.6011 -0.6870 -0.9126
13145TIP3    H260851   0.380   2.313  14.438  0.1578 -3.7161 -0.0643
13146TIP3   OH260852   4.404   6.290   2.995 -0.1176 -0.0619 -0.1346
13146TIP3    H160853   4.415   6.348   3.070  1.6492 -1.5519  0.8293
13146TIP3    H260854   4.342   6.223   3.024  1.2603 -1.1575  0.3603
13147TIP3   OH260855   2.297   1.080   6.748  0.0173 -0.4330 -0.5351
13147TIP3    H160856   2.388   1.075   6.778 -0.6288 -2.5548  1.3448
13147TIP3    H260857   2.285   1.001   6.696 -0.3512  0.6745 -2.2203
13148TIP3   OH260858   1.528   1.652   5.001  0.1441 -0.2021 -0.2476
13148TIP3    H160859   1.537   1.662   4.907 -0.1749  2.5414 -0.0704
13148TIP3    H260860   1.615   1.671   5.036 -0.2629  1.1899  0.0865
13149TIP3   OH260861   3.401   4.146   0.961  0.4344 -0.2451  0.3312
13149TIP3    H160862   3.430   4.236   0.974  0.7460 -0.1879 -0.6637
13149TIP3    H260863   3.476   4.103   0.919  0.9045 -1.3941  2.2298
13150TIP3   OH260864   5.792   1.172   5.048  0.0321 -0.7077 -0.4905
13150TIP3    H160865   5.744   1.112   4.990 -0.6583 -0.8089  0.1684
13150TIP3    H260866   5.841   1.114   5.107  2.0487 -0.6146 -1.9941
13151TIP3   OH260867   3.216   3.128  13.835 -0.1401 -1.1826  0.0788
13151TIP3    H160868   3.205   3.109  13.742  1.6250  1.9250 -0.8753
13151TIP3    H260869   3.158   3.202  13.852  0.5475 -0.8551  1.1187
13152TIP3   OH260870   3.484   3.495  12.762 -0.2804  0.2718 -0.1705
13152TIP3    H160871   3.476   3.426  12.827  1.4817 -1.4932 -1.6807
13152TIP3    H260872   3.577   3.518  12.763 -0.4070  0.9375 -1.3469
13153TIP3   OH260873   2.313   5.697   3.138  0.1689 -0.0077  0.1377
13153TIP3    H160874   2.325   5.627   3.074  2.6544 -1.2825  1.7970
13153TIP3    H260875   2.353   5.662   3.218  0.0203  2.6966  1.4899
13154TIP3   OH260876   5.693   3.268   4.275  0.0696 -0.1392 -0.0406
13154TIP3    H160877   5.768   3.290   4.331 -0.6557  0.3723  0.7401
13154TIP3    H260878   5.702   3.174   4.259  0.9618 -0.0547 -0.0780
13155TIP3   OH260879   2.231   0.726  14.192 -0.3516 -0.2410 -0.3346
13155TIP3    H160880   2.231   0.680  14.108 -2.8238 -0.0283 -0.5121
13155TIP3    H260881   2.197   0.662  14.255 -1.7471  0.6367 -0.1676
13156TIP3   OH260882   6.115   0.564   4.802  0.0466  0.1360 -0.1355
13156TIP3    H160883   6.097   0.471   4.786  1.4091 -0.2971  0.7555
13156TIP3    H260884   6.145   0.568   4.892  1.1460  1.2739 -0.5220
13157TIP3   OH260885   3.107   4.261  16.072  0.0778 -0.5937 -0.3810
13157TIP3    H160886   3.053   4.333  16.104  2.6499  0.7750  1.2092
13157TIP3    H260887   3.075   4.185  16.120  0.5359  0.4875  1.7573
13158TIP3   OH260888   4.577   6.295  11.960 -0.2275  0.7306  0.0985
13158TIP3    H160889   4.567   6.231  12.031  0.8063 -0.4767 -0.8021
13158TIP3    H260890   4.534   6.254  11.885  0.5692  1.0231 -0.5268
13159TIP3   OH260891   3.248   4.784  11.126 -0.5623  0.5101 -0.0500
13159TIP3    H160892   3.225   4.726  11.199 -1.7481 -0.5729 -1.2135
13159TIP3    H260893   3.257   4.725  11.051  2.4732  1.3528 -0.4706
13160TIP3   OH260894   1.058   4.660   4.536  0.1265 -0.0825  0.1431
13160TIP3    H160895   1.055   4.686   4.444  1.0699 -0.9614 -0.1515
13160TIP3    H260896   0.970   4.626   4.554 -0.1920  0.4806 -0.3048
13161TIP3   OH260897   3.838   2.031  11.369  1.0133  0.0889  0.2238
13161TIP3    H160898   3.804   2.118  11.350  1.3247  0.0275 -0.6591
13161TIP3    H260899   3.883   2.005  11.289  1.5032 -0.6071  0.7135
13162TIP3   OH260900   1.131   4.729  11.895  0.2479 -0.2053  0.7884
13162TIP3    H160901   1.218   4.731  11.856 -0.9503  2.0540 -2.2003
13162TIP3    H260902   1.147   4.729  11.989  3.4876  0.7206  0.3737
13163TIP3   OH260903   4.693   3.681   5.086 -0.2291  0.1699 -0.1557
13163TIP3    H160904   4.730   3.764   5.119 -0.2794  0.2434 -0.2827
13163TIP3    H260905   4.604   3.679   5.122  0.7477 -1.3355  2.5014
13164TIP3   OH260906   6.196   0.893  14.290 -0.3018 -0.5987 -0.0789
13164TIP3    H160907   6.161   0.818  14.243  0.8928 -0.3736 -1.4137
13164TIP3    H260908   6.277   0.860  14.331  0.2750 -0.0487 -0.7433
13165TIP3   OH260909   2.279   1.345  12.425  0.3427 -0.0320  0.1579
13165TIP3    H160910   2.361   1.339  12.475  1.6871  1.5893 -1.7028
13165TIP3    H260911   2.297   1.294  12.346 -0.2296  0.8379 -0.5400
13166TIP3   OH260912   2.448   3.163  12.420 -0.6389 -0.8938 -0.0526
13166TIP3    H160913   2.407   3.081  12.446 -0.6099 -0.8991 -0.0236
13166TIP3    H260914   2.396   3.231  12.465 -1.0617 -0.8559 -0.5899
13167TIP3   OH260915   1.522   6.044  14.946 -0.1502 -0.4390  0.3501
13167TIP3    H160916   1.503   5.998  14.864 -0.9074  1.6791 -0.7594
13167TIP3    H260917   1.560   5.978  15.004  1.9642 -1.6706 -2.2530
13168TIP3   OH260918   2.158   6.447   3.799  0.0382  0.4379  0.4626
13168TIP3    H160919   2.187   6.527   3.755 -0.3578  0.3840  0.0982
13168TIP3    H260920   2.227   6.428   3.862  0.6144  0.5206 -0.1287
13169TIP3   OH260921   4.507   3.435  11.454  0.0394  0.0426 -0.0354
13169TIP3    H160922   4.545   3.446  11.368  0.6153  0.7810  0.3072
13169TIP3    H260923   4.452   3.513  11.467  1.3106  0.8062  0.9506
13170TIP3   OH260924   5.991   0.367   1.848 -0.4936 -0.3682  0.6392
13170TIP3    H160925   6.016   0.280   1.817 -1.2112 -0.3691  0.0263
13170TIP3    H260926   5.897   0.373   1.829 -0.5270  0.4028  1.0089
13171TIP3   OH260927   4.863   4.738  16.165  0.4132  0.1962  0.6769
13171TIP3    H160928   4.783   4.726  16.114  1.7583  0.4312 -1.6168
13171TIP3    H260929   4.901   4.651  16.173  0.8543  0.3330  0.1305
13172TIP3   OH260930   4.262   2.232   2.569 -0.3865 -0.0075 -0.1823
13172TIP3    H160931   4.312   2.233   2.488 -1.9240  1.0044 -1.1833
13172TIP3    H260932   4.256   2.325   2.594 -2.2155 -0.0135 -0.4415
13173TIP3   OH260933   1.517   3.596   5.319 -0.4136 -0.4614 -0.1748
13173TIP3    H160934   1.513   3.659   5.391  1.4427 -0.6078  0.1200
13173TIP3    H260935   1.520   3.510   5.362 -1.3702 -0.6694 -0.5133
13174TIP3   OH260936   3.097   4.641   0.968  0.0365 -0.4791  0.3739
13174TIP3    H160937   3.130   4.723   1.006 -0.0192 -0.4410  0.3410
13174TIP3    H260938   3.138   4.638   0.881 -0.5719 -0.0910  0.0633
13175TIP3   OH260939   6.323   3.979  14.231 -0.1738 -0.0120  0.1948
13175TIP3    H160940   6.353   3.912  14.292 -2.3004 -0.9100  0.3141
13175TIP3    H260941   6.267   4.036  14.284 -0.3341  0.4522 -0.4615
13176TIP3   OH260942   0.334   6.713  15.681 -0.2259  0.4587 -0.2490
13176TIP3    H160943   0.267   6.729  15.614 -1.6973  1.9595  1.4637
13176TIP3    H260944   0.351   6.799  15.718  2.2249  0.0011 -0.1710
13177TIP3   OH260945   5.937   6.474   2.467 -0.1868 -0.2611 -0.2674
13177TIP3    H160946   5.850   6.436   2.456 -0.4483  0.2813 -0.1063
13177TIP3    H260947   5.932   6.557   2.420  0.1776 -0.1251 -0.0623
13178TIP3   OH260948   1.550   6.369  15.399  0.0424  0.1552 -0.2521
13178TIP3    H160949   1.588   6.378  15.312  0.9593  0.0311  0.1200
13178TIP3    H260950   1.471   6.422  15.397  0.9585  1.5610 -0.6344
13179TIP3   OH260951   2.292   1.182   0.150 -0.7712  0.0478  0.1756
13179TIP3    H160952   2.257   1.267   0.179 -0.6117  0.3095 -0.3948
13179TIP3    H260953   2.246   1.118   0.205 -1.1495  0.4778  0.3717
13180TIP3   OH260954   3.023   6.100  14.643 -0.3443 -0.2324  0.1860
13180TIP3    H160955   2.971   6.141  14.573 -0.0213  0.3560  0.2839
13180TIP3    H260956   3.016   6.006  14.626  0.3017 -0.0789 -1.0524
13181TIP3   OH260957   0.524   1.690   1.258 -0.9942  0.2670 -0.1434
13181TIP3    H160958   0.528   1.764   1.197 -1.4144  0.0192 -0.4741
13181TIP3    H260959   0.491   1.617   1.206 -2.3771  0.3037  0.6185
13182TIP3   OH260960   5.633   3.634   5.933 -0.4816  0.4853 -0.0642
13182TIP3    H160961   5.593   3.619   6.018 -0.1125  0.9770  0.1978
13182TIP3    H260962   5.628   3.729   5.920  3.0525  0.9865  1.2257
13183TIP3   OH260963   0.494   1.488  13.486  0.4216  0.4684 -0.0748
13183TIP3    H160964   0.465   1.493  13.577 -0.9327  1.6506 -0.5402
13183TIP3    H260965   0.562   1.555  13.479 -1.0708  2.0246 -0.4440
13184TIP3   OH260966   0.898   2.346  11.069  0.1503 -0.5702 -0.5396
13184TIP3    H160967   0.964   2.414  11.052  1.2757 -1.0245  1.6921
13184TIP3    H260968   0.818   2.382  11.031  0.6394  2.1745  0.7334
13185TIP3   OH260969   0.913   6.759   4.089 -1.4703  0.2075 -0.2610
13185TIP3    H160970   0.880   6.800   4.009  0.4688  4.6919  0.9295
13185TIP3    H260971   0.866   6.803   4.160  0.0886 -0.3218  1.1706
13186TIP3   OH260972   3.249   2.854   5.883 -0.1976  0.6046 -0.2253
13186TIP3    H160973   3.201   2.911   5.822 -0.0301  0.5917 -0.3712
13186TIP3    H260974   3.255   2.905   5.964 -0.0036  0.8178 -0.3716
13187TIP3   OH260975   3.498   0.459   5.166  0.4361  0.0230  0.1922
13187TIP3    H160976   3.592   0.474   5.158  0.3638  1.3717  1.5139
13187TIP3    H260977   3.485   0.441   5.259 -0.2421 -3.2504 -0.4124
13188TIP3   OH260978   0.939   3.021  14.865  0.1006 -0.2003 -0.0282
13188TIP3    H160979   1.000   3.072  14.919 -1.1414  0.0714  1.1669
13188TIP3    H260980   0.993   2.987  14.794  1.6419  0.0333  0.9858
13189TIP3   OH260981   0.237   5.564   0.546 -0.5599 -0.0737 -0.0009
13189TIP3    H160982   0.228   5.565   0.451 -2.8188  0.0325  0.1655
13189TIP3    H260983   0.227   5.656   0.572 -0.1729 -0.1302  0.3544
13190TIP3   OH260984   5.107   3.470   4.498  0.5570 -0.3015 -0.0976
13190TIP3    H160985   5.085   3.558   4.530  0.4482 -1.2444  2.6618
13190TIP3    H260986   5.023   3.432   4.473  0.7229  0.7131 -2.4807
13191TIP3   OH260987   0.857   1.243   4.682 -0.0115  0.0763 -0.5404
13191TIP3    H160988   0.924   1.176   4.673  1.6140  1.3910  0.9380
13191TIP3    H260989   0.836   1.245   4.775 -1.0053  0.7177 -0.7565
13192TIP3   OH260990   1.129   6.501   4.776 -0.0368 -0.1801  0.1939
13192TIP3    H160991   1.211   6.452   4.776 -0.1079 -0.2975 -0.1436
13192TIP3    H260992   1.125   6.541   4.689 -0.5936 -0.5983  0.0205
13193TIP3   OH260993   5.855   1.689   3.308 -0.5168  0.0829 -0.1487
13193TIP3    H160994   5.897   1.654   3.387  0.5667 -0.5763 -0.9969
13193TIP3    H260995   5.854   1.784   3.323 -0.2940 -0.0277  0.6465
13194TIP3   OH260996   6.773   3.099  15.678 -0.0433  0.1930  0.0107
13194TIP3    H160997   6.725   3.180  15.691 -0.1437 -0.1070  1.7549
13194TIP3    H260998   6.762   3.051  15.760 -0.4190 -1.8181 -1.1604
13195TIP3   OH260999   5.478   6.290   0.234  0.3871  0.4067 -0.1548
13195TIP3    H161000   5.413   6.277   0.165  2.1069  0.2830 -1.8536
13195TIP3    H261001   5.488   6.203   0.274  2.3947 -0.6711 -2.6838
13196TIP3   OH261002   4.762   6.527   5.758  0.0279  0.2642  0.7904
13196TIP3    H161003   4.680   6.552   5.800 -1.2163 -0.4664 -1.0491
13196TIP3    H261004   4.784   6.602   5.702 -0.2302 -0.1290  0.1441
13197TIP3   OH261005   3.936   1.176  15.721  0.5347  0.3125  0.1437
13197TIP3    H161006   4.027   1.165  15.748  0.7062 -1.6084 -1.0512
13197TIP3    H261007   3.907   1.089  15.695 -1.0154  1.2157 -1.4375
13198TIP3   OH261008   4.824   4.590  13.293  0.3825  0.1511 -0.0572
13198TIP3    H161009   4.833   4.639  13.211 -0.6294  1.3824  0.5404
13198TIP3    H261010   4.913   4.580  13.325  0.6740  0.8700 -0.6250
13199TIP3   OH261011   4.388   5.943   2.894 -0.0948 -0.3854  0.3986
13199TIP3    H161012   4.338   6.006   2.946 -0.2437 -0.5113  0.4079
13199TIP3    H261013   4.452   5.996   2.848  0.0392 -0.2707  0.7125
13200TIP3   OH261014   6.351   2.168  14.312  0.2788 -0.3122 -0.2622
13200TIP3    H161015   6.423   2.216  14.271  0.4410  1.2091  1.6416
13200TIP3    H261016   6.274   2.191  14.260  0.7298  0.1791 -0.7278
13201TIP3   OH261017   5.011   3.232   1.726  0.6440 -0.2023 -0.4038
13201TIP3    H161018   4.936   3.178   1.701 -0.3288  0.4185  1.0181
13201TIP3    H261019   4.982   3.322   1.712  1.3130  0.0404 -0.2897
13202TIP3   OH261020   5.801   3.704  13.202  0.0276  0.0824 -0.2486
13202TIP3    H161021   5.750   3.722  13.123  1.3360  0.7672 -0.9873
13202TIP3    H261022   5.888   3.680  13.168  0.0172 -1.7509  0.9263
13203TIP3   OH261023   1.081   0.201   3.238  0.0555 -0.3164 -0.3424
13203TIP3    H161024   0.987   0.219   3.237 -0.4068 -2.4809 -1.1752
13203TIP3    H261025   1.103   0.184   3.146  0.9164 -1.4104  0.0539
13204TIP3   OH261026   2.810   2.935   4.729  0.2696  0.1037  0.2723
13204TIP3    H161027   2.805   2.862   4.667  1.3273 -0.0916  0.3901
13204TIP3    H261028   2.878   2.908   4.791 -0.0211  0.7662  0.8822
13205TIP3   OH261029   1.096   6.281  15.752 -0.2466 -0.4662 -0.4885
13205TIP3    H161030   1.128   6.320  15.671  0.6905 -1.3625 -0.5817
13205TIP3    H261031   1.115   6.187  15.742 -0.3997 -0.6306  0.6290
13206TIP3   OH261032   4.100   2.795  11.956  0.1334 -0.7306  0.3298
13206TIP3    H161033   4.052   2.813  11.875 -0.0709 -1.1885  0.3485
13206TIP3    H261034   4.040   2.822  12.026 -0.0430 -1.1616  0.3490
13207TIP3   OH261035   6.180   1.259  12.152 -0.6791  0.1238 -0.2465
13207TIP3    H161036   6.207   1.239  12.062 -0.9733 -0.1733 -0.2691
13207TIP3    H261037   6.256   1.237  12.206 -0.8210 -0.5777 -0.3224
13208TIP3   OH261038   5.445   3.966  17.083  0.5600  0.2332  0.7337
13208TIP3    H161039   5.427   4.056  17.110 -0.5059  0.0498  0.6500
13208TIP3    H261040   5.371   3.916  17.115  1.1194 -0.6157  0.7251
13209TIP3   OH261041   4.257   1.244   5.204  0.6581  0.5178  0.0085
13209TIP3    H161042   4.187   1.211   5.260 -0.2095  2.8249  0.4143
13209TIP3    H261043   4.277   1.331   5.239  0.5978  1.7627 -2.7252
13210TIP3   OH261044   5.061   5.023   3.354  0.0710 -0.5110  0.0173
13210TIP3    H161045   5.078   5.016   3.448 -1.2549 -1.3920  0.2248
13210TIP3    H261046   5.061   4.932   3.323  0.0871 -0.2539 -0.7568
13211TIP3   OH261047   6.316   4.092  11.329 -0.0789  0.0373 -0.1143
13211TIP3    H161048   6.275   4.172  11.360 -0.0916  0.8147 -2.0131
13211TIP3    H261049   6.276   4.075  11.244 -1.3000 -2.9574  0.9134
13212TIP3   OH261050   2.012   2.909  13.043  0.4713 -0.2544  0.0758
13212TIP3    H161051   2.041   2.818  13.034  3.9983  0.4403  2.3169
13212TIP3    H261052   1.964   2.910  13.126 -2.5493 -0.5536 -1.5381
13213TIP3   OH261053   5.078   4.939   5.890 -0.5642  0.5303 -0.1549
13213TIP3    H161054   5.144   4.915   5.826 -1.3665 -2.1835 -0.0750
13213TIP3    H261055   5.127   4.960   5.969  0.2787  0.8298 -0.7494
13214TIP3   OH261056   1.438   3.269   2.442 -0.4664 -0.4920 -0.1619
13214TIP3    H161057   1.459   3.181   2.411  1.9561  0.0431 -0.2304
13214TIP3    H261058   1.369   3.257   2.506 -0.3736 -2.4119 -0.3857
13215TIP3   OH261059   4.319   5.766  12.363  0.2879  0.2748  0.7888
13215TIP3    H161060   4.294   5.708  12.434 -1.6028 -0.3826 -0.3546
13215TIP3    H261061   4.237   5.806  12.334  0.6147 -1.0013 -2.3184
13216TIP3   OH261062   2.222   5.848  16.345  0.3410  0.5620 -0.2368
13216TIP3    H161063   2.292   5.784  16.353  0.9278  1.1419 -0.5748
13216TIP3    H261064   2.188   5.858  16.434 -0.1195 -0.5977 -0.2727
13217TIP3   OH261065   0.238   3.661  13.115  0.4589 -0.7090  0.1243
13217TIP3    H161066   0.315   3.713  13.139  1.6151 -2.7480  1.0855
13217TIP3    H261067   0.184   3.721  13.064  3.5325  0.3085 -2.2604
13218TIP3   OH261068   1.785   3.558  16.466 -0.3385  0.2228  0.0218
13218TIP3    H161069   1.718   3.615  16.504  0.2019  0.8140  0.1018
13218TIP3    H261070   1.866   3.607  16.476  0.7024 -1.8052  2.9808
13219TIP3   OH261071   5.388   5.920   2.035  0.1084 -0.0710  0.6680
13219TIP3    H161072   5.307   5.963   2.007  0.9468  1.2456  0.1675
13219TIP3    H261073   5.368   5.885   2.121 -0.4505  1.8866  1.3810
13220TIP3   OH261074   6.040   4.227   3.560 -0.5961 -0.4257  0.6781
13220TIP3    H161075   6.006   4.271   3.638 -0.2726 -1.8387  1.6624
13220TIP3    H261076   6.112   4.173   3.593 -0.0002 -0.5150 -0.7254
13221TIP3   OH261077   6.098   2.236  11.463 -0.1657 -0.2459 -0.3769
13221TIP3    H161078   6.039   2.249  11.538  0.7171 -1.0761  0.4949
13221TIP3    H261079   6.060   2.163  11.415 -0.5627  0.0826 -0.5715
13222TIP3   OH261080   5.731   5.089   1.883 -0.1387 -0.0982 -0.5988
13222TIP3    H161081   5.667   5.019   1.896  0.1908 -0.2609  0.1699
13222TIP3    H261082   5.685   5.169   1.911  0.1539 -0.2832  0.4499
13223TIP3   OH261083   2.012   6.308   5.089 -0.1960  0.1156  0.1151
13223TIP3    H161084   2.029   6.267   5.004 -0.0935  0.1388  0.1252
13223TIP3    H261085   2.096   6.308   5.134 -0.2349  0.1684  0.1889
13224TIP3   OH261086   6.772   4.154   6.062 -0.1983 -0.3358  0.2557
13224TIP3    H161087   6.826   4.233   6.058 -0.7182  0.0690  0.9717
13224TIP3    H261088   6.698   4.179   6.117 -0.6558 -1.1564  0.0212
13225TIP3   OH261089   3.435   3.149   3.805  0.2229 -0.0578 -0.0695
13225TIP3    H161090   3.359   3.183   3.758  0.9477 -0.0733 -1.3008
13225TIP3    H261091   3.455   3.217   3.869 -0.3913  0.2781 -0.2193
13226TIP3   OH261092   5.467   2.068  17.170 -0.1001  0.4722 -0.2842
13226TIP3    H161093   5.532   2.030  17.111 -1.2400  0.9318 -1.9027
13226TIP3    H261094   5.466   2.161  17.148 -1.5334  0.4166 -0.5232
13227TIP3   OH261095   6.439   3.844  16.344  0.9168  0.0244 -0.4312
13227TIP3    H161096   6.366   3.894  16.310 -0.4850  0.1388  2.4898
13227TIP3    H261097   6.424   3.755  16.313 -1.1931 -0.2003  1.0539
13228TIP3   OH261098   5.835   3.334   4.510 -0.2559  0.3361 -0.6769
13228TIP3    H161099   5.895   3.347   4.583 -1.4441  0.0939  0.3763
13228TIP3    H261100   5.778   3.411   4.512 -3.5345 -1.8833  1.8992
13229TIP3   OH261101   3.736   0.392  17.043 -0.1275  0.0943  0.8243
13229TIP3    H161102   3.652   0.351  17.063  0.8415 -1.8367  1.1287
13229TIP3    H261103   3.749   0.454  17.115 -0.5285 -0.7963  1.6822
13230TIP3   OH261104   6.734   5.398  16.751 -0.0015  0.3798 -0.1618
13230TIP3    H161105   6.825   5.383  16.723 -0.1864  0.1561 -0.6492
13230TIP3    H261106   6.717   5.327  16.813  0.0826  0.2945 -0.2356
13231TIP3   OH261107   4.299   5.629   1.262 -0.3446 -0.1263  0.6824
13231TIP3    H161108   4.265   5.686   1.332  1.0158  0.5025  0.8724
13231TIP3    H261109   4.394   5.636   1.270 -0.1526 -0.1803 -1.1259
13232TIP3   OH261110   3.374   3.800   5.324  0.0078 -0.0228 -0.4387
13232TIP3    H161111   3.375   3.895   5.310  0.7384  0.3932  1.9962
13232TIP3    H261112   3.281   3.779   5.336 -0.2051  0.2685 -1.4309
13233TIP3   OH261113   5.067   4.069   6.020 -0.1361  0.4321 -0.8195
13233TIP3    H161114   4.982   4.026   6.030  0.3200 -0.6005 -1.1883
13233TIP3    H261115   5.076   4.123   6.098  0.5988 -2.5522  1.3657
13234TIP3   OH261116   6.456   1.464   4.475  0.4938  0.0186  0.0558
13234TIP3    H161117   6.495   1.388   4.518 -1.1556 -0.0533  1.5461
13234TIP3    H261118   6.363   1.458   4.495  0.1786  1.9161 -0.5924
13235TIP3   OH261119   5.892   2.206  11.651  0.1470 -0.5501 -0.3166
13235TIP3    H161120   5.870   2.114  11.665  2.3677 -1.1559 -0.3141
13235TIP3    H261121   5.827   2.255  11.701 -1.6709 -2.0571 -1.0889
13236TIP3   OH261122   2.963   0.082   2.755 -0.0365  0.2708 -0.5032
13236TIP3    H161123   2.986  -0.006   2.783 -1.7992 -0.3860 -0.9828
13236TIP3    H261124   3.046   0.124   2.736  0.9584 -0.7195  1.3473
13237TIP3   OH261125   6.379   5.832   5.381  0.3594  0.4769 -0.0030
13237TIP3    H161126   6.357   5.815   5.473  4.2654  0.9177  1.2228
13237TIP3    H261127   6.436   5.759   5.357 -0.3895  0.5149 -2.0291
13238TIP3   OH261128   0.822   4.691   6.032 -0.6607 -0.1197 -0.2307
13238TIP3    H161129   0.789   4.660   5.947 -0.1271  0.3420 -0.6201
13238TIP3    H261130   0.871   4.617   6.067  0.5109  0.1871 -1.1033
13239TIP3   OH261131   4.831   3.459   4.169 -0.8056  0.1286  0.3951
13239TIP3    H161132   4.906   3.503   4.129  0.0696 -0.9201  0.8215
13239TIP3    H261133   4.756   3.485   4.114  0.0989  0.0000 -0.9588
13240TIP3   OH261134   2.602   4.889   2.354  0.4230  0.2942 -0.1096
13240TIP3    H161135   2.561   4.818   2.305  0.9522 -0.3846  0.4062
13240TIP3    H261136   2.597   4.860   2.446  1.8831  0.2692 -0.0193
13241TIP3   OH261137   5.808   4.561  11.108 -0.1397  0.3791 -0.7441
13241TIP3    H161138   5.835   4.533  11.196  2.8806  2.6289 -0.7776
13241TIP3    H261139   5.853   4.501  11.049  0.3086  0.6912 -0.7320
13242TIP3   OH261140   5.115   2.987  11.340 -0.3789  0.0108 -0.6050
13242TIP3    H161141   5.192   2.984  11.283  0.3982 -1.8780  0.4505
13242TIP3    H261142   5.048   2.937  11.293 -0.8102  1.1734 -1.2664
13243TIP3   OH261143   3.910   6.508   1.424 -0.2797  0.0034 -0.4042
13243TIP3    H161144   3.985   6.567   1.414 -0.4194  0.3573  0.5854
13243TIP3    H261145   3.947   6.421   1.410  0.1758  0.2274 -0.6232
13244TIP3   OH261146   5.822   4.992   1.378 -0.1645  0.0936 -0.0435
13244TIP3    H161147   5.824   5.025   1.467  1.5849  0.5814 -0.2322
13244TIP3    H261148   5.880   4.916   1.379 -0.8982 -0.4926 -0.5601
13245TIP3   OH261149   6.151   0.409   5.757 -0.0556 -0.6695 -0.5691
13245TIP3    H161150   6.119   0.326   5.722 -1.4837 -2.1513  3.6597
13245TIP3    H261151   6.237   0.388   5.793 -0.9901 -0.7756  1.7262
13246TIP3   OH261152   5.578   5.777  13.423  0.3591  0.1456 -0.1068
13246TIP3    H161153   5.643   5.812  13.485 -0.1913 -0.1559  0.6591
13246TIP3    H261154   5.621   5.780  13.338  1.6924 -0.8341  0.5053
13247TIP3   OH261155   2.609   2.761   1.218  0.2767 -0.0277 -0.2098
13247TIP3    H161156   2.527   2.782   1.263  0.6221 -1.6120  1.2403
13247TIP3    H261157   2.677   2.799   1.273  0.6499 -1.1475  0.1297
13248TIP3   OH261158   6.535   6.323   1.075 -0.2561  0.1988  0.0571
13248TIP3    H161159   6.580   6.361   1.000 -0.2752 -0.1743 -0.1458
13248TIP3    H261160   6.598   6.331   1.147  0.0888 -0.1984 -0.1942
13249TIP3   OH261161   6.246   6.587  15.898  0.1557 -0.0562  0.0978
13249TIP3    H161162   6.279   6.572  15.986  2.4072 -2.0990 -0.9822
13249TIP3    H261163   6.155   6.556  15.901 -0.5610  2.0048  2.1685
13250TIP3   OH261164   0.295   5.947   4.335  0.0370  0.2914 -0.3762
13250TIP3    H161165   0.212   5.983   4.302  0.6804  1.1217 -1.1607
13250TIP3    H261166   0.362   5.986   4.278  0.9472 -0.5893  0.0554
13251TIP3   OH261167   6.416   5.163   2.128 -0.7686  0.6249 -0.2982
13251TIP3    H161168   6.459   5.244   2.156  0.3383 -0.5406  1.6038
13251TIP3    H261169   6.483   5.095   2.138 -2.7381 -1.1697  2.2666
13252TIP3   OH261170   6.122   2.434   6.644  0.3390  0.4126 -0.5036
13252TIP3    H161171   6.129   2.372   6.716  0.5578  1.3169  0.2869
13252TIP3    H261172   6.200   2.490   6.653 -0.8073  2.0230  0.0308
13253TIP3   OH261173   6.576   1.152  14.124  0.0296  0.2975 -0.2640
13253TIP3    H161174   6.548   1.156  14.215 -0.0274 -0.4366 -0.2416
13253TIP3    H261175   6.499   1.182  14.074 -0.5208 -0.8787 -0.1514
13254TIP3   OH261176   1.012   2.739  15.762 -0.0315 -0.2045  0.2862
13254TIP3    H161177   1.075   2.669  15.778  0.7454  0.4830  0.2620
13254TIP3    H261178   0.960   2.745  15.843 -0.7809 -1.4778 -0.0757
13255TIP3   OH261179   0.898   5.572  13.532 -0.3324 -0.0489 -0.0688
13255TIP3    H161180   0.913   5.601  13.443  1.3606 -0.7793 -0.0771
13255TIP3    H261181   0.986   5.561  13.569 -0.9494 -1.4004  1.1267
13256TIP3   OH261182   5.246   4.552   2.981 -0.2176 -0.2677 -0.2706
13256TIP3    H161183   5.189   4.626   2.963 -1.0133 -0.6752  0.5077
13256TIP3    H261184   5.334   4.590   2.983 -0.5240  0.4922 -0.7621
13257TIP3   OH261185   6.270   5.008  12.333 -0.7897 -0.0716 -0.0166
13257TIP3    H161186   6.297   4.936  12.389 -0.6844 -0.2116 -0.2449
13257TIP3    H261187   6.212   5.061  12.387  1.7022  1.5114  1.3165
13258TIP3   OH261188   3.307   2.237   5.675  0.4936  0.2348  0.3133
13258TIP3    H161189   3.220   2.274   5.686 -0.6402 -2.3740  0.7781
13258TIP3    H261190   3.314   2.168   5.741  1.5590 -1.8624 -1.7967
13259TIP3   OH261191   2.052   2.730   1.706 -0.3407  0.0843 -0.6917
13259TIP3    H161192   2.031   2.822   1.724  2.0371  0.9620 -1.8813
13259TIP3    H261193   1.973   2.696   1.664 -1.1336  1.7082 -0.6286
13260TIP3   OH261194   5.442   3.005  14.201 -0.6118 -0.4789 -0.4747
13260TIP3    H161195   5.485   3.084  14.170  1.6295 -1.4197  0.0677
13260TIP3    H261196   5.475   2.935  14.144  1.4322 -1.7826  2.1193
13261TIP3   OH261197   1.167   4.302   4.370  0.6453 -0.3822 -0.2079
13261TIP3    H161198   1.259   4.320   4.390  0.2596  1.0318  0.3899
13261TIP3    H261199   1.140   4.375   4.314 -0.0228 -0.9762 -0.6674
13262TIP3   OH261200   5.073   1.134  16.164 -0.2346 -0.4835  0.0735
13262TIP3    H161201   4.979   1.153  16.158 -0.6361 -2.4594 -0.5173
13262TIP3    H261202   5.080   1.068  16.233  0.6330 -0.9033 -0.3958
13263TIP3   OH261203   0.249   4.997   5.537 -0.3673  0.3684 -0.1977
13263TIP3    H161204   0.306   5.026   5.466  1.8191 -0.0177  1.2780
13263TIP3    H261205   0.215   5.078   5.575  1.5937  0.8566  0.6864
13264TIP3   OH261206   3.687   3.655  13.088 -0.3588  0.3395 -0.3904
13264TIP3    H161207   3.673   3.561  13.094 -0.2902  0.2394 -1.6344
13264TIP3    H261208   3.606   3.694  13.121 -0.4624 -0.1557 -0.0531
13265TIP3   OH261209   2.570   6.453  16.584 -0.1875  0.3796 -0.1636
13265TIP3    H161210   2.580   6.474  16.491  3.2248 -5.0927 -1.5351
13265TIP3    H261211   2.646   6.494  16.626  1.2505 -1.2900 -0.9852
13266TIP3   OH261212   0.141   6.756   5.510  0.0155 -0.3189  0.4206
13266TIP3    H161213   0.139   6.839   5.557  0.3531  0.2917 -0.6028
13266TIP3    H261214   0.179   6.778   5.425  0.2162 -1.5471  0.1737
13267TIP3   OH261215   0.496   3.592  14.180 -0.1551 -0.2045  0.0064
13267TIP3    H161216   0.549   3.667  14.151  0.7060 -0.6082  0.4807
13267TIP3    H261217   0.416   3.598  14.128 -0.2057  1.1725  0.2034
13268TIP3   OH261218   3.700   3.598   4.835  0.6803  0.3169 -0.2990
13268TIP3    H161219   3.704   3.644   4.750  2.1715 -1.0445 -1.0234
13268TIP3    H261220   3.792   3.589   4.861  0.2012  2.4012  2.4758
13269TIP3   OH261221   1.393   0.346  12.630 -0.6311  0.0139  0.5024
13269TIP3    H161222   1.481   0.369  12.601 -1.3765  0.7248 -1.3804
13269TIP3    H261223   1.337   0.414  12.592 -2.0074 -0.4988  1.5362
13270TIP3   OH261224   2.439   6.508  15.035  0.2081  0.1231  0.5155
13270TIP3    H161225   2.364   6.460  14.999  0.2739  0.0195  0.5151
13270TIP3    H261226   2.453   6.470  15.121  0.0827  0.3372  0.6323
13271TIP3   OH261227   4.567   4.075  15.659 -0.5220 -0.2630  0.6582
13271TIP3    H161228   4.542   4.100  15.748 -0.6996 -0.3581  0.6352
13271TIP3    H261229   4.663   4.073  15.662 -0.5171  0.0431  0.7597
13272TIP3   OH261230   6.168   3.140   3.382 -0.5665  0.1457 -0.1578
13272TIP3    H161231   6.207   3.204   3.322  0.4035 -0.2092  0.0748
13272TIP3    H261232   6.139   3.069   3.325 -0.3439  0.1520 -0.2823
13273TIP3   OH261233   5.459   5.237   4.374 -0.0487  0.4109  0.0278
13273TIP3    H161234   5.505   5.198   4.300  0.5234 -0.1420  0.6601
13273TIP3    H261235   5.517   5.306   4.405 -0.6626  1.1945 -0.5428
13274TIP3   OH261236   1.398   2.485   5.174  0.4791 -0.7249  0.5097
13274TIP3    H161237   1.356   2.445   5.098 -0.5044 -1.5962  1.4767
13274TIP3    H261238   1.491   2.486   5.152  0.3148 -1.8350 -0.3076
13275TIP3   OH261239   2.049   2.901  13.535  0.3422  0.5239 -0.0391
13275TIP3    H161240   1.996   2.887  13.457  1.6600 -1.6708 -0.5891
13275TIP3    H261241   2.107   2.973  13.512 -0.6843  1.3091 -0.2865
13276TIP3   OH261242   0.996   1.120   2.485  0.2027  0.4330 -0.3108
13276TIP3    H161243   0.964   1.183   2.549  2.5346  1.5003 -0.0759
13276TIP3    H261244   0.993   1.036   2.530  0.8121  1.0132  0.8718
13277TIP3   OH261245   6.381   4.253  10.346  0.7321 -0.6309 -0.2411
13277TIP3    H161246   6.295   4.280  10.378  0.3084 -1.6914 -0.4594
13277TIP3    H261247   6.438   4.259  10.422  0.4532 -0.0229 -0.0689
13278TIP3   OH261248   3.625   1.240  15.133  0.4703  0.0379 -0.4673
13278TIP3    H161249   3.618   1.335  15.146  0.4681 -0.1605  1.2631
13278TIP3    H261250   3.719   1.222  15.143  0.5510 -0.0801 -1.3818
13279TIP3   OH261251   3.084   3.394  12.945  0.1943  0.3958  0.2540
13279TIP3    H161252   3.008   3.427  12.895 -0.1187  1.7246  1.5514
13279TIP3    H261253   3.111   3.316  12.897  0.4850  2.0716 -2.5685
13280TIP3   OH261254   5.166   6.550  14.420 -0.4147  0.1666  0.1004
13280TIP3    H161255   5.195   6.468  14.380  0.8945  0.9796 -0.6959
13280TIP3    H261256   5.130   6.524  14.505  0.7119 -1.1487  0.2100
13281TIP3   OH261257   5.914   1.564   1.227 -0.6355 -0.3335  0.0358
13281TIP3    H161258   5.987   1.593   1.172 -0.4775 -0.8230 -0.0159
13281TIP3    H261259   5.891   1.641   1.279 -1.3311  0.4024 -1.2994
13282TIP3   OH261260   2.733   3.675   1.280 -0.1694  0.0242 -1.0458
13282TIP3    H161261   2.792   3.704   1.211 -1.7316  1.0555 -2.0214
13282TIP3    H261262   2.721   3.752   1.335 -1.3888  0.1765 -1.4766
13283TIP3   OH261263   5.488   2.019   3.869  0.1678 -0.1408  0.2076
13283TIP3    H161264   5.414   2.005   3.810  1.4275  1.0978 -1.8020
13283TIP3    H261265   5.471   1.961   3.944 -2.4581 -0.3797 -0.4712
13284TIP3   OH261266   3.642   5.345   5.845 -0.3161  0.0854 -0.3614
13284TIP3    H161267   3.715   5.386   5.798  0.5971 -1.5440 -0.4348
13284TIP3    H261268   3.653   5.372   5.936  0.8272 -0.7070 -0.2404
13285TIP3   OH261269   4.537   5.351   2.116  0.2612 -0.2634 -0.3587
13285TIP3    H161270   4.504   5.416   2.179  0.5424  1.9551 -2.3595
13285TIP3    H261271   4.623   5.384   2.090  0.6061 -1.7018 -1.1549
13286TIP3   OH261272   2.925   3.124   2.918 -0.1186  0.1423  0.7719
13286TIP3    H161273   2.924   3.048   2.859 -0.8378  0.2509  0.6305
13286TIP3    H261274   2.888   3.091   3.000  1.0171 -0.0459  1.2314
13287TIP3   OH261275   6.326   2.135   2.997  0.0607 -0.2572  0.2292
13287TIP3    H161276   6.272   2.213   2.985 -0.7946 -0.8687 -0.0087
13287TIP3    H261277   6.415   2.168   3.007 -0.3685  0.7871  0.7616
13288TIP3   OH261278   6.346   5.304   5.887  0.3807  0.0782 -0.3309
13288TIP3    H161279   6.362   5.254   5.967  0.0567  1.2093  0.4589
13288TIP3    H261280   6.392   5.387   5.900 -1.8863  1.4012 -0.1072
13289TIP3   OH261281   2.501   3.277  13.487 -0.8166  0.3672 -0.6055
13289TIP3    H161282   2.528   3.189  13.459 -0.8342 -0.4657  1.7592
13289TIP3    H261283   2.455   3.262  13.570  0.5919  2.7323  0.7069
13290TIP3   OH261284   4.282   1.484  12.577  0.4670  0.1804 -0.4012
13290TIP3    H161285   4.363   1.443  12.547  0.1279 -1.2621  0.5765
13290TIP3    H261286   4.254   1.432  12.652 -1.0701  1.0017 -0.3542
13291TIP3   OH261287   3.967   2.959  12.168 -0.5688  0.4762  0.0951
13291TIP3    H161288   4.004   3.047  12.175  2.5520 -0.6850 -0.4085
13291TIP3    H261289   3.963   2.928  12.259 -1.3666  0.9788  0.2430
13292TIP3   OH261290   4.664   0.190  11.943 -0.1839  0.0785 -0.1061
13292TIP3    H161291   4.639   0.246  12.016  0.6891 -0.5173  0.6695
13292TIP3    H261292   4.586   0.187  11.888 -0.6359  1.0775  0.4440
13293TIP3   OH261293   4.095   2.680   6.710  0.4675  0.1357 -0.3276
13293TIP3    H161294   4.155   2.623   6.661  0.8658  0.3678 -0.1165
13293TIP3    H261295   4.029   2.620   6.744 -0.2590  0.0678 -1.7838
13294TIP3   OH261296   5.137   4.148  13.624  0.1723 -0.3619  0.2532
13294TIP3    H161297   5.065   4.086  13.632 -2.2798  1.8015 -2.4905
13294TIP3    H261298   5.104   4.229  13.664  2.8430 -0.3831  2.7798
13295TIP3   OH261299   1.263   1.795   0.665  0.4506  0.2265  0.1466
13295TIP3    H161300   1.194   1.732   0.647  0.5483 -0.3168  1.5390
13295TIP3    H261301   1.258   1.858   0.593 -0.6692 -0.4965 -0.4301
13296TIP3   OH261302   1.150   1.953   1.781  0.2736 -0.0471  0.2679
13296TIP3    H161303   1.179   2.044   1.789 -1.3684  0.6330 -0.9639
13296TIP3    H261304   1.148   1.937   1.686 -1.0016 -0.8404  0.4100
13297TIP3   OH261305   1.103   5.142  11.829  0.0986  0.2080  0.4909
13297TIP3    H161306   1.190   5.125  11.866  0.4154 -0.0101 -0.3319
13297TIP3    H261307   1.102   5.095  11.746 -0.2761  1.3804 -0.2050
13298TIP3   OH261308   5.820   2.872   3.450 -0.3500 -0.2865 -0.3036
13298TIP3    H161309   5.732   2.845   3.477  0.3569 -2.2507  0.1924
13298TIP3    H261310   5.859   2.908   3.529  0.0437 -1.5372  0.0999
13299TIP3   OH261311   6.000   4.134  12.406  0.2833 -0.2576 -0.1829
13299TIP3    H161312   5.917   4.086  12.414  0.7143 -1.8263 -3.6470
13299TIP3    H261313   6.064   4.068  12.379  2.2683  1.2965  0.4153
13300TIP3   OH261314   0.162   5.260  12.564 -0.5980 -0.1590  0.2182
13300TIP3    H161315   0.095   5.192  12.556 -1.4528  0.5704  0.9334
13300TIP3    H261316   0.123   5.337  12.522 -1.0059  0.8004  2.2269
13301TIP3   OH261317   0.394   3.832  10.726 -0.1463  0.4178  0.4098
13301TIP3    H161318   0.412   3.763  10.791 -1.1452  0.9433  1.2704
13301TIP3    H261319   0.398   3.787  10.642 -0.9058 -0.7265  0.9601
13302TIP3   OH261320   3.898   1.392  12.965  0.0733 -0.4071 -0.1056
13302TIP3    H161321   3.923   1.429  12.880 -0.8334  0.4927 -0.0099
13302TIP3    H261322   3.858   1.307  12.943 -0.5490  0.0060 -0.6388
13303TIP3   OH261323   0.693   1.197   5.825 -0.6416 -0.2966  0.0653
13303TIP3    H161324   0.671   1.280   5.867 -2.4465 -0.6836 -0.0519
13303TIP3    H261325   0.671   1.210   5.733  2.5014  0.2619 -0.7230
13304TIP3   OH261326   4.045   6.125   2.649 -0.6159  0.1917 -0.5007
13304TIP3    H161327   4.087   6.044   2.679  0.6638 -0.3924 -3.4976
13304TIP3    H261328   3.952   6.103   2.645 -0.3606 -0.9269 -0.6190
13305TIP3   OH261329   2.295   2.194  12.233 -0.1232 -0.0725 -0.5509
13305TIP3    H161330   2.287   2.229  12.145 -0.5217  0.6679 -0.2305
13305TIP3    H261331   2.211   2.213  12.275 -0.0826 -0.7669 -0.1302
13306TIP3   OH261332   3.054   1.599  12.917  0.5836  0.4675 -0.7730
13306TIP3    H161333   3.033   1.529  12.979 -0.4123  0.8650 -0.6355
13306TIP3    H261334   3.003   1.578  12.839  1.7136  0.0542 -1.4205
13307TIP3   OH261335   4.382   5.650   6.105 -0.1972 -0.0763 -0.3937
13307TIP3    H161336   4.300   5.631   6.153 -0.2745 -0.4540 -0.6709
13307TIP3    H261337   4.407   5.738   6.135  0.4273 -0.7815  1.3031
13308TIP3   OH261338   4.473   6.416   6.140  0.4167  0.1563 -0.2185
13308TIP3    H161339   4.381   6.441   6.145  0.2982 -0.3263  0.0837
13308TIP3    H261340   4.520   6.494   6.171  0.1067  0.3644 -0.2606
13309TIP3   OH261341   2.766   1.340  13.733  0.3362 -0.6209 -0.2648
13309TIP3    H161342   2.785   1.387  13.652  0.6724 -1.1927 -0.5250
13309TIP3    H261343   2.671   1.340  13.739  0.3112  1.7081  0.7139
13310TIP3   OH261344   0.575   2.507   3.310  0.2885 -0.0289  0.0797
13310TIP3    H161345   0.574   2.602   3.318 -1.0900  0.1520 -1.5198
13310TIP3    H261346   0.640   2.477   3.373 -0.2749  1.8653  1.6440
13311TIP3   OH261347   3.818   3.026  14.770 -0.4762  0.3438  0.4231
13311TIP3    H161348   3.758   2.959  14.735  0.1522 -0.5976  1.0883
13311TIP3    H261349   3.905   2.994  14.747 -0.2053  2.0855 -1.2220
13312TIP3   OH261350   0.128   6.723   2.615 -0.8951 -0.1368 -0.1117
13312TIP3    H161351   0.094   6.645   2.571 -0.2948 -0.9474  0.8250
13312TIP3    H261352   0.145   6.784   2.544 -0.7047 -1.1130 -0.9374
13313TIP3   OH261353   1.846   3.863   3.696 -0.1022  0.9313  0.0160
13313TIP3    H161354   1.846   3.849   3.791  0.8290 -1.3828 -0.2469
13313TIP3    H261355   1.759   3.834   3.668 -0.2364  1.2406  0.1033
13314TIP3   OH261356   1.588   1.509  11.122  0.6537  0.3356 -0.5737
13314TIP3    H161357   1.647   1.582  11.101  2.2790 -0.5822  0.5805
13314TIP3    H261358   1.568   1.521  11.215 -1.1051  0.6776 -0.9660
13315TIP3   OH261359   5.197   5.399  16.206 -0.2095 -0.6735 -0.2829
13315TIP3    H161360   5.273   5.452  16.182 -0.9401  0.0763 -0.9906
13315TIP3    H261361   5.230   5.309  16.204  1.3053 -0.2499  1.8805
13316TIP3   OH261362   3.471   0.164  13.293  0.0496  0.2471  0.0818
13316TIP3    H161363   3.406   0.204  13.235  1.1268  0.6701 -0.8726
13316TIP3    H261364   3.555   0.197  13.261  0.7225 -0.0642  1.4637
13317TIP3   OH261365   1.484   3.854  16.760  0.0119  0.1373 -0.3014
13317TIP3    H161366   1.568   3.885  16.727 -0.3783  0.0638 -1.4212
13317TIP3    H261367   1.501   3.829  16.851  1.6104 -1.4459 -0.9674
13318TIP3   OH261368   0.373   0.908  16.317 -0.2360 -0.2080  0.1919
13318TIP3    H161369   0.339   0.870  16.236  2.6085  0.0188 -1.2037
13318TIP3    H261370   0.394   0.832  16.372 -2.1768 -0.3619  0.7996
13319TIP3   OH261371   1.905   3.851   3.961  0.0578 -0.6865 -0.2693
13319TIP3    H161372   1.912   3.942   3.989 -0.9460 -0.8845  0.6586
13319TIP3    H261373   1.995   3.827   3.937  0.2157  0.7580 -1.2542
13320TIP3   OH261374   3.441   5.275   4.292 -0.3221  0.2918  0.1704
13320TIP3    H161375   3.402   5.200   4.337 -0.0431 -0.5559 -0.9813
13320TIP3    H261376   3.514   5.301   4.349  0.5711 -1.3138 -0.1793
13321TIP3   OH261377   5.946   6.193   4.264  0.3792  0.5909 -0.3824
13321TIP3    H161378   5.854   6.173   4.246  0.4758  0.6241 -0.9602
13321TIP3    H261379   5.990   6.108   4.258  0.5799  0.7563 -1.4398
13322TIP3   OH261380   4.076   3.516  14.749  0.0925 -0.5489  0.0076
13322TIP3    H161381   4.043   3.426  14.756  0.0117 -0.4772  0.6543
13322TIP3    H261382   4.032   3.563  14.820 -0.9180  0.3407 -1.1847
13323TIP3   OH261383   1.983   4.964  16.526  0.1576  1.1091  0.5431
13323TIP3    H161384   1.960   5.051  16.557 -1.8130 -0.1808  3.0520
13323TIP3    H261385   1.909   4.937  16.472 -0.6053  0.0082  2.0522
13324TIP3   OH261386   3.301   4.388  12.616  0.2078  0.4885 -0.6666
13324TIP3    H161387   3.377   4.332  12.601 -0.6824 -0.5379 -1.5173
13324TIP3    H261388   3.276   4.418  12.528  0.1203  1.4964 -0.3078
13325TIP3   OH261389   0.083   3.974  12.086  0.2744 -0.6459 -0.1055
13325TIP3    H161390   0.007   3.933  12.045 -0.0972 -0.4324  0.3546
13325TIP3    H261391   0.148   3.979  12.016 -0.0808 -0.9653 -0.4672
13326TIP3   OH261392   5.380   2.100   6.141 -0.0271 -0.2046 -0.5352
13326TIP3    H161393   5.466   2.060   6.128 -0.1351 -0.8456  0.5939
13326TIP3    H261394   5.379   2.124   6.234 -0.1193  2.1139 -1.0991
13327TIP3   OH261395   3.008   2.424  13.033  0.4191  0.8484  0.1923
13327TIP3    H161396   3.037   2.372  13.108  1.6219  1.9244  0.5101
13327TIP3    H261397   3.075   2.492  13.024  0.0229  1.0462 -1.5440
13328TIP3   OH261398   0.250   2.908  12.588  0.1351 -0.3188  0.3038
13328TIP3    H161399   0.163   2.899  12.628 -1.1197  0.0580 -2.1254
13328TIP3    H261400   0.231   2.934  12.497  2.8324  3.3543  0.5809
13329TIP3   OH261401   4.552   6.099  12.147  0.1223 -0.4520  0.2623
13329TIP3    H161402   4.463   6.087  12.179 -0.1788  0.3200 -0.2620
13329TIP3    H261403   4.600   6.023  12.180 -0.4302 -0.2496  1.5909
13330TIP3   OH261404   6.653   1.051   5.404 -0.2306  0.0090  0.8402
13330TIP3    H161405   6.670   1.111   5.477 -1.7503  0.5004  0.8337
13330TIP3    H261406   6.610   1.105   5.338 -1.9447 -1.1133  0.9688
13331TIP3   OH261407   0.045   2.708  12.655  1.0894 -0.6066  0.2651
13331TIP3    H161408   0.032   2.622  12.696  1.8089 -1.0014 -0.3078
13331TIP3    H261409   0.085   2.688  12.571 -0.8633  0.1512 -0.8962
13332TIP3   OH261410   5.425   1.453  11.889 -0.1905  0.1096  0.3560
13332TIP3    H161411   5.407   1.480  11.799  2.2369  1.1214  0.1063
13332TIP3    H261412   5.347   1.481  11.938 -1.4861 -0.2896 -1.3503
13333TIP3   OH261413   4.080   4.949  15.569 -0.1122  0.3412 -0.0235
13333TIP3    H161414   4.128   4.934  15.651  1.0096 -1.1662 -0.8872
13333TIP3    H261415   4.017   5.018  15.590 -0.5888 -0.7079  2.3981
13334TIP3   OH261416   6.483   4.012   0.148  0.2261  0.1186  0.2944
13334TIP3    H161417   6.462   3.969   0.231 -0.3406 -2.6593 -1.1689
13334TIP3    H261418   6.416   4.079   0.137 -2.6811 -2.6291 -0.0517
13335TIP3   OH261419   2.291   4.577  11.651  0.4090 -0.3379 -0.3472
13335TIP3    H161420   2.257   4.604  11.566 -0.3470 -1.1723 -0.3255
13335TIP3    H261421   2.328   4.490  11.636 -0.2563 -0.7457  0.2853
13336TIP3   OH261422   2.025   1.520  14.978  0.2793 -0.2576  0.0310
13336TIP3    H161423   1.932   1.536  14.993  0.6832 -0.3585  3.5017
13336TIP3    H261424   2.032   1.425  14.970  0.1007 -0.2364 -0.4473
13337TIP3   OH261425   5.493   2.016   5.840 -0.4331  0.3687 -0.2014
13337TIP3    H161426   5.421   2.072   5.868 -0.4098 -0.3897  1.4541
13337TIP3    H261427   5.553   2.014   5.914 -0.2977 -1.6009 -0.3078
13338TIP3   OH261428   3.424   4.024   1.245 -0.5304  0.3866 -0.4690
13338TIP3    H161429   3.431   4.051   1.153  0.1006 -0.4063 -0.6654
13338TIP3    H261430   3.467   3.939   1.248 -0.4930  0.4321  0.5831
13339TIP3   OH261431   5.988   0.181   5.831  0.2637  1.0371  0.5340
13339TIP3    H161432   5.936   0.126   5.772 -1.5477  2.9332  0.2198
13339TIP3    H261433   5.932   0.193   5.907  2.2828 -0.7789  2.4523
13340TIP3   OH261434   4.496   0.548   3.058 -0.1977  0.1574  0.3488
13340TIP3    H161435   4.568   0.497   3.021 -0.1503  0.9381 -0.6929
13340TIP3    H261436   4.441   0.569   2.982 -0.5678  1.0826  0.8600
13341TIP3   OH261437   0.614   6.396   0.417 -0.0998 -0.1815 -0.6175
13341TIP3    H161438   0.665   6.415   0.338  1.2475 -0.4272  0.1596
13341TIP3    H261439   0.666   6.433   0.488 -1.7917  0.9291  0.0873
13342TIP3   OH261440   0.310   0.914   1.897  0.0103 -0.4752  0.0168
13342TIP3    H161441   0.387   0.951   1.853 -0.8185  0.0493 -1.0442
13342TIP3    H261442   0.292   0.975   1.969 -2.2128  2.2502 -2.5598
13343TIP3   OH261443   0.253   0.645  16.342  0.1516 -1.2053 -0.3416
13343TIP3    H161444   0.239   0.590  16.419 -1.6914 -1.6957 -0.9595
13343TIP3    H261445   0.264   0.582  16.270 -0.7711 -0.7891 -0.8662
13344TIP3   OH261446   3.896   6.414   4.514  0.0137  0.1004  0.0904
13344TIP3    H161447   3.957   6.371   4.575  1.5284  0.1447 -1.3368
13344TIP3    H261448   3.842   6.343   4.480 -0.1209 -0.0753  0.6466
13345TIP3   OH261449   5.003   0.373   0.974 -0.9422  0.0024  0.4309
13345TIP3    H161450   4.955   0.289   0.976 -3.1825  1.1827 -0.0658
13345TIP3    H261451   4.935   0.439   0.989  0.9366  1.7052  1.8632
13346TIP3   OH261452   3.367   0.874   2.702 -0.6117 -0.0550  0.2771
13346TIP3    H161453   3.440   0.935   2.712 -1.1593  0.8920 -1.0774
13346TIP3    H261454   3.404   0.802   2.651 -0.3951 -0.0114  0.3684
13347TIP3   OH261455   3.508   4.187  13.601 -0.1161 -0.0544  0.5232
13347TIP3    H161456   3.563   4.112  13.579 -0.1130  0.0012  0.3315
13347TIP3    H261457   3.490   4.229  13.516 -0.2276  0.0834  0.6138
13348TIP3   OH261458   4.343   0.240  10.841 -0.2243 -0.4096 -0.0416
13348TIP3    H161459   4.417   0.189  10.808  0.0381  0.0419 -0.1610
13348TIP3    H261460   4.382   0.319  10.877 -0.5234 -0.8147  1.2291
13349TIP3   OH261461   6.238   0.811  16.701 -0.1945 -0.5194 -0.0438
13349TIP3    H161462   6.174   0.758  16.748  0.7630 -1.5504  0.1330
13349TIP3    H261463   6.323   0.776  16.727  0.3935 -1.3580 -2.7776
13350TIP3   OH261464   3.665   0.689  14.273  0.4911  0.0339 -0.0579
13350TIP3    H161465   3.744   0.639  14.252  2.1284  2.4443 -0.0677
13350TIP3    H261466   3.655   0.680  14.368  0.3575 -0.7874 -0.1373
13351TIP3   OH261467   6.641   6.533   3.868  0.0074  0.5232  0.1667
13351TIP3    H161468   6.654   6.569   3.780 -0.6543 -0.8390 -0.5237
13351TIP3    H261469   6.565   6.579   3.902 -0.6400  0.0395 -0.5775
13352TIP3   OH261470   0.440   5.450  11.412  0.2336 -0.2008 -0.3223
13352TIP3    H161471   0.439   5.361  11.378 -2.4448 -0.0669 -0.8089
13352TIP3    H261472   0.452   5.505  11.334  1.1957 -0.0682 -0.1021
13353TIP3   OH261473   5.247   2.003  13.023  0.2545  0.4402 -0.6266
13353TIP3    H161474   5.264   2.060  12.948  1.4355  0.3870 -0.4206
13353TIP3    H261475   5.178   1.944  12.993  1.6372 -0.4716 -2.1723
13354TIP3   OH261476   1.095   4.881   6.152 -0.5138  0.3707  0.1333
13354TIP3    H161477   1.175   4.831   6.163 -0.2438  0.6230 -0.6154
13354TIP3    H261478   1.112   4.964   6.195 -0.5324  0.2599  0.3541
13355TIP3   OH261479   2.066   2.489  13.729  0.2711 -0.2494 -0.2094
13355TIP3    H161480   2.158   2.516  13.719  0.0003  0.2926 -1.4613
13355TIP3    H261481   2.017   2.571  13.734 -0.1885 -0.5349  0.0285
13356TIP3   OH261482   0.591   2.406   4.945 -0.2843  0.1631  0.2129
13356TIP3    H161483   0.499   2.433   4.947 -0.1710  0.6386 -0.4980
13356TIP3    H261484   0.611   2.396   4.852  0.6515  1.0367  0.3023
13357TIP3   OH261485   6.177   5.935   0.051  0.1458  0.2598 -0.0368
13357TIP3    H161486   6.211   5.949  -0.037  0.9753 -0.8395  0.0892
13357TIP3    H261487   6.254   5.937   0.107 -0.1940 -0.5623  0.4733
13358TIP3   OH261488   6.439   3.914  13.076 -0.1855  0.4148  0.3827
13358TIP3    H161489   6.386   3.920  12.996  0.0162 -0.2232  0.1868
13358TIP3    H261490   6.462   3.821  13.081  3.6480  1.0656 -1.3650
13359TIP3   OH261491   1.356   2.508   0.965  0.1459  0.6128 -0.0833
13359TIP3    H161492   1.292   2.454   1.010  0.4387 -0.4417 -0.9024
13359TIP3    H261493   1.418   2.534   1.033  0.2244 -0.4189  0.2468
13360TIP3   OH261494   0.192   4.947  10.992 -0.7809  0.1302  0.0186
13360TIP3    H161495   0.178   4.944  11.087 -2.1027  1.3378 -0.1068
13360TIP3    H261496   0.104   4.942  10.955 -0.2376 -1.0351 -1.1948
13361TIP3   OH261497   6.763   0.662   5.062 -0.2242 -0.1103 -0.3524
13361TIP3    H161498   6.746   0.737   5.005 -0.5100  0.1652  0.0851
13361TIP3    H261499   6.846   0.684   5.105 -1.5382  1.1833  1.6880
13362TIP3   OH261500   0.935   3.748  13.552  0.2781  0.0021  0.0841
13362TIP3    H161501   0.926   3.683  13.481 -0.4714 -1.8727  1.7998
13362TIP3    H261502   0.996   3.707  13.614  0.4260  1.3313  0.8487
13363TIP3   OH261503   1.134   4.513  16.964  0.1227  0.1866  0.0646
13363TIP3    H161504   1.121   4.481  17.053  0.3213 -0.2755 -0.0737
13363TIP3    H261505   1.125   4.608  16.972  0.4369  0.1722  0.6268
13364TIP3   OH261506   1.066   6.585   6.414 -0.1627 -0.0792  0.1519
13364TIP3    H161507   1.120   6.638   6.473 -0.3260  0.5798 -0.2862
13364TIP3    H261508   0.997   6.550   6.471 -0.2388  0.4406  0.3915
13365TIP3   OH261509   1.857   4.428  13.845  0.4143  1.0891 -0.0518
13365TIP3    H161510   1.908   4.479  13.782 -0.2866  0.6329 -1.0116
13365TIP3    H261511   1.866   4.476  13.928  1.5760  1.5442 -0.4285
13366TIP3   OH261512   1.525   5.645   1.451  0.4320  0.2473  0.3062
13366TIP3    H161513   1.580   5.627   1.374 -0.3882  1.2609 -0.5450
13366TIP3    H261514   1.479   5.563   1.466 -1.1316  0.6636 -1.7584
13367TIP3   OH261515   5.000   6.484  14.972  0.6101  0.3058  0.7913
13367TIP3    H161516   5.035   6.573  14.962  0.4636  0.1694 -1.3164
13367TIP3    H261517   4.906   6.497  14.987  0.8936  0.5377  2.5902
13368TIP3   OH261518   5.968   6.645   1.341  0.1124 -0.3106  0.3146
13368TIP3    H161519   6.049   6.636   1.290  0.5038  1.1564  0.6575
13368TIP3    H261520   5.906   6.586   1.296  1.0863 -0.7491 -0.5073
13369TIP3   OH261521   5.893   2.512  16.983  0.2039 -0.0173  0.8120
13369TIP3    H161522   5.881   2.440  16.922 -1.3668  0.5062  0.4479
13369TIP3    H261523   5.875   2.474  17.069 -1.3326  0.0580  0.5560
13370TIP3   OH261524   0.768   5.869  10.797 -0.3764 -0.3468  0.5971
13370TIP3    H161525   0.696   5.813  10.828 -0.4834  0.0755  1.1308
13370TIP3    H261526   0.746   5.888  10.706  0.0783 -1.8371  0.1451
13371TIP3   OH261527   3.782   0.119  11.875 -0.1621  0.3908 -0.1411
13371TIP3    H161528   3.702   0.066  11.877  1.0192 -1.5273 -0.9760
13371TIP3    H261529   3.783   0.164  11.959 -2.3107  0.8058 -0.2665
13372TIP3   OH261530   3.311   2.114   3.855 -0.5589 -0.0412 -0.1871
13372TIP3    H161531   3.248   2.055   3.896 -0.3574  0.2819  0.5989
13372TIP3    H261532   3.261   2.161   3.789 -1.2483  0.5423  0.7386
13373TIP3   OH261533   2.563   4.577  16.689 -0.0800  0.0828 -0.1338
13373TIP3    H161534   2.550   4.626  16.771  0.0588 -0.1004  0.0018
13373TIP3    H261535   2.651   4.540  16.698  0.0689  0.3396 -0.5127
13374TIP3   OH261536   4.749   1.386   2.189 -0.1610  0.0029  0.0620
13374TIP3    H161537   4.767   1.373   2.282  0.2157 -1.0345 -0.1397
13374TIP3    H261538   4.753   1.298   2.152 -0.1152  0.4308 -0.9702
13375TIP3   OH261539   2.808   0.256   1.829  0.4627  0.2605 -0.2086
13375TIP3    H161540   2.750   0.306   1.886 -1.1648 -0.5459 -1.0807
13375TIP3    H261541   2.763   0.253   1.745  0.4782 -2.5737 -0.2376
13376TIP3   OH261542   3.905   3.105  15.369 -0.0314  0.1186 -0.0775
13376TIP3    H161543   3.847   3.170  15.409 -1.7217 -1.7672  0.7000
13376TIP3    H261544   3.876   3.100  15.278  0.2917  0.6638 -0.2088
13377TIP3   OH261545   1.435   1.669   2.566  0.0494  0.0581  0.2372
13377TIP3    H161546   1.501   1.678   2.635 -0.2457 -1.7600  0.8024
13377TIP3    H261547   1.352   1.683   2.612 -0.0534  0.9601 -0.1994
13378TIP3   OH261548   0.724   3.329   6.599 -0.4104 -0.0958 -0.3813
13378TIP3    H161549   0.690   3.242   6.615 -0.8177  0.0986 -0.1691
13378TIP3    H261550   0.817   3.316   6.580  0.0615 -0.3640  1.8640
13379TIP3   OH261551   2.254   1.344   1.005 -0.5828  0.0964 -0.8829
13379TIP3    H161552   2.323   1.404   1.034 -1.7188  0.3047  1.6354
13379TIP3    H261553   2.301   1.275   0.957  1.0405  1.5956 -1.5378
13380TIP3   OH261554   0.940   2.070  16.110  0.0120  0.1315 -0.1304
13380TIP3    H161555   1.006   2.068  16.179  0.7347  0.1055 -0.8012
13380TIP3    H261556   0.939   1.981  16.074 -1.6316 -0.3433  0.9861
13381TIP3   OH261557   5.471   1.581   1.139  0.7027  0.3441  0.2532
13381TIP3    H161558   5.414   1.611   1.210  1.3696 -0.1377  1.0102
13381TIP3    H261559   5.522   1.658   1.115  0.1418  0.6300 -0.0329
13382TIP3   OH261560   3.575   2.348   2.441 -0.1280 -0.0242 -0.0064
13382TIP3    H161561   3.499   2.299   2.473  0.1749  0.0026  0.7677
13382TIP3    H261562   3.559   2.438   2.470 -0.3934  0.2314 -0.9125
13383TIP3   OH261563   2.610   6.174  12.795 -0.8669  0.4017 -0.4596
13383TIP3    H161564   2.548   6.215  12.854 -0.2597  1.2621 -0.4050
13383TIP3    H261565   2.675   6.242  12.777  0.7341 -0.8182  0.4491
13384TIP3   OH261566   5.375   1.182   3.137  0.7039  0.1065  0.1899
13384TIP3    H161567   5.431   1.253   3.107  1.0812 -0.0228  0.5752
13384TIP3    H261568   5.354   1.205   3.228 -0.7819  0.7201 -0.2765
13385TIP3   OH261569   3.312   3.611   1.939 -0.5314  0.2857  0.1864
13385TIP3    H161570   3.316   3.520   1.908 -0.1333  0.8382 -1.4697
13385TIP3    H261571   3.389   3.620   1.995  1.5422  0.5480 -2.4968
13386TIP3   OH261572   1.052   0.244   2.667 -0.1146 -0.1328  0.2329
13386TIP3    H161573   1.140   0.261   2.631 -1.2441  1.4232 -2.0530
13386TIP3    H261574   1.006   0.200   2.596 -1.6372  0.4835  0.7947
13387TIP3   OH261575   6.598   3.589   3.697 -0.1833  0.0490  0.1062
13387TIP3    H161576   6.640   3.552   3.775 -0.6999 -1.0886 -0.1397
13387TIP3    H261577   6.541   3.519   3.665 -2.3744  1.5666  0.4788
13388TIP3   OH261578   2.174   6.677  11.036 -0.2753 -0.1885 -0.5797
13388TIP3    H161579   2.242   6.620  11.072 -2.4456 -1.8316  1.2256
13388TIP3    H261580   2.216   6.763  11.028  2.3788 -1.4338 -0.9596
13389TIP3   OH261581   1.561   4.896   1.066  0.3694 -0.0038  0.1604
13389TIP3    H161582   1.470   4.868   1.069  0.5234 -0.5889 -0.4814
13389TIP3    H261583   1.574   4.929   0.977  0.8252 -0.0541  0.2035
13390TIP3   OH261584   0.943   0.668   4.903 -0.1967  0.0718 -0.2216
13390TIP3    H161585   0.882   0.616   4.852 -0.7749  1.1090 -0.6209
13390TIP3    H261586   1.029   0.633   4.881 -0.5987 -1.0356 -0.0790
13391TIP3   OH261587   6.756   0.180  13.575 -0.0959 -0.2878 -0.3561
13391TIP3    H161588   6.851   0.184  13.584 -0.1497 -1.5331  1.1566
13391TIP3    H261589   6.726   0.268  13.596  0.5811 -0.5072  1.7472
13392TIP3   OH261590   2.190   3.191   1.095 -0.2283  0.5485  0.0296
13392TIP3    H161591   2.265   3.157   1.046 -0.7516 -0.8344  0.1561
13392TIP3    H261592   2.158   3.265   1.042 -1.0000 -1.1084 -1.9460
13393TIP3   OH261593   3.445   4.374   0.295  0.5786  0.5447 -0.1777
13393TIP3    H161594   3.351   4.359   0.285  0.6733  1.2255 -3.1200
13393TIP3    H261595   3.483   4.286   0.297 -0.0982  0.2350  1.9221
13394TIP3   OH261596   3.276   4.305   4.347 -0.2037 -0.0091 -0.2455
13394TIP3    H161597   3.219   4.268   4.280 -0.1649 -0.6270  0.0500
13394TIP3    H261598   3.357   4.254   4.340  1.0147  1.9676 -1.8211
13395TIP3   OH261599   5.520   3.052   3.519 -0.5125 -0.0243 -0.5532
13395TIP3    H161600   5.520   3.114   3.446  1.7929 -0.4074 -0.9818
13395TIP3    H261601   5.532   2.967   3.477  0.9118 -0.2443  0.2143
13396TIP3   OH261602   0.959   1.701  13.658  0.3988  0.0908  0.0440
13396TIP3    H161603   0.928   1.778  13.706 -0.6435  0.3010 -0.9103
13396TIP3    H261604   1.038   1.673  13.705  0.5104  1.4348  0.7069
13397TIP3   OH261605   3.787   1.659   6.166 -0.3277 -0.0746  0.2387
13397TIP3    H161606   3.753   1.699   6.085 -1.4348  0.1978  0.8212
13397TIP3    H261607   3.746   1.709   6.236  0.0694 -0.7790  0.9853
13398TIP3   OH261608   4.950   3.290  10.909 -0.0073  0.2304  0.0962
13398TIP3    H161609   5.015   3.329  10.851  1.7099 -0.3819  1.5449
13398TIP3    H261610   4.877   3.353  10.908  2.2701  3.1051  1.6475
13399TIP3   OH261611   4.911   4.480  10.228  0.3546 -0.4018 -0.3782
13399TIP3    H161612   4.905   4.388  10.252  2.0922 -0.5678 -0.5021
13399TIP3    H261613   4.999   4.490  10.192 -0.6645  0.7548 -2.7721
13400TIP3   OH261614   2.932   5.346  16.311 -0.0903  0.3106  0.2825
13400TIP3    H161615   2.942   5.315  16.221  1.1163  1.2995  0.0473
13400TIP3    H261616   2.941   5.441  16.305 -2.7508  0.7020  1.1122
13401TIP3   OH261617   2.153   1.292   3.936  0.1664  0.1357  0.2732
13401TIP3    H161618   2.192   1.210   3.904 -0.8315 -0.6766  1.0475
13401TIP3    H261619   2.210   1.319   4.008  0.3189 -0.0706  0.2300
13402TIP3   OH261620   0.634   2.429   1.141 -0.0154  0.0771 -0.0685
13402TIP3    H161621   0.628   2.341   1.179 -0.3046  0.3776  0.5853
13402TIP3    H261622   0.590   2.486   1.203  0.2183  0.7024 -0.4619
13403TIP3   OH261623   5.805   4.473  14.654  0.0842  0.8667 -0.4658
13403TIP3    H161624   5.895   4.497  14.632  0.2166 -0.1122 -1.0657
13403TIP3    H261625   5.754   4.500  14.578  0.2375 -0.6916 -1.1563
13404TIP3   OH261626   4.031   1.894   0.898  0.4319 -0.3428 -0.6673
13404TIP3    H161627   4.059   1.981   0.926  1.4156 -0.8263 -0.0859
13404TIP3    H261628   4.079   1.834   0.956 -0.5698 -1.2581 -0.7543
13405TIP3   OH261629   2.746   0.755  16.635 -0.0499 -0.9058 -0.2819
13405TIP3    H161630   2.766   0.744  16.542 -1.9601  0.1850 -0.8789
13405TIP3    H261631   2.830   0.741  16.679  1.5958  1.4337 -2.3822
13406TIP3   OH261632   2.678   1.122   4.654  0.2880 -0.3719 -0.6273
13406TIP3    H161633   2.658   1.037   4.617  0.2663 -1.0428  0.8465
13406TIP3    H261634   2.606   1.139   4.715  0.3390  0.6646 -0.8325
13407TIP3   OH261635   4.704   5.504   3.150  0.1460  0.1256  0.4707
13407TIP3    H161636   4.671   5.524   3.238 -1.1770  2.1054 -0.4170
13407TIP3    H261637   4.640   5.444   3.113  0.8437 -0.9255  0.9025
13408TIP3   OH261638   0.428   2.652  16.889 -0.1901 -0.5633 -0.2968
13408TIP3    H161639   0.393   2.600  16.962 -0.0778 -0.6992 -0.3392
13408TIP3    H261640   0.523   2.650  16.902 -0.2141  0.0707 -0.0030
13409TIP3   OH261641   1.003   1.578   1.169  0.3947  0.3194  0.0946
13409TIP3    H161642   1.020   1.488   1.140 -0.2302 -0.0751  0.8922
13409TIP3    H261643   0.963   1.567   1.256  1.0576  1.4042  0.5465
13410TIP3   OH261644   1.147   6.059   2.508 -0.2330 -0.0818 -0.2830
13410TIP3    H161645   1.108   6.141   2.477 -3.8142 -0.5741  2.2696
13410TIP3    H261646   1.133   5.997   2.437 -1.6297  0.4758 -0.5268
13411TIP3   OH261647   0.129   5.858  14.609  0.1002 -0.0823 -0.2174
13411TIP3    H161648   0.139   5.914  14.532 -0.5956  1.2156  0.5878
13411TIP3    H261649   0.035   5.856  14.624  0.2628  0.0925  0.8781
13412TIP3   OH261650   5.476   1.432   5.151 -0.3573 -0.3357 -0.0189
13412TIP3    H161651   5.503   1.424   5.242  1.6596  0.2728 -0.5182
13412TIP3    H261652   5.456   1.342   5.124 -2.7477 -0.3214  1.4752
13413TIP3   OH261653   5.141   6.524  12.715  0.0199 -0.8866 -0.0424
13413TIP3    H161654   5.143   6.529  12.811 -0.7269 -0.2145 -0.0476
13413TIP3    H261655   5.102   6.607  12.688  1.5163 -0.4564 -1.0005
13414TIP3   OH261656   3.744   5.838  13.455 -0.2633  0.1375 -0.1039
13414TIP3    H161657   3.820   5.853  13.399  0.0131 -2.0864 -0.4165
13414TIP3    H261658   3.701   5.923  13.460  0.8584  0.8754 -1.9765
13415TIP3   OH261659   0.918   0.143  13.455 -0.0343 -0.1975  0.1279
13415TIP3    H161660   0.989   0.183  13.404  0.8002 -0.3019  1.1609
13415TIP3    H261661   0.957   0.065  13.493 -0.7682 -0.3651  0.5551
13416TIP3   OH261662   0.387   1.984   3.770 -0.6204 -0.0215  0.0828
13416TIP3    H161663   0.454   1.964   3.704  0.1951  1.6717  0.3240
13416TIP3    H261664   0.394   1.914   3.834 -1.2176 -1.5385 -1.4308
13417TIP3   OH261665   0.701   6.147   2.088 -0.1858  0.2371  0.0807
13417TIP3    H161666   0.739   6.172   2.173 -0.8445  0.5376  0.2926
13417TIP3    H261667   0.775   6.114   2.038  0.1762 -0.1579  0.8531
13418TIP3   OH261668   5.390   1.846   2.982  0.4713  0.1969  0.5729
13418TIP3    H161669   5.482   1.863   2.964  0.6925 -1.3204  0.2224
13418TIP3    H261670   5.372   1.896   3.062  0.7408  3.0386 -1.0177
13419TIP3   OH261671   4.285   0.943  16.358 -0.2725 -0.0839 -0.1520
13419TIP3    H161672   4.257   0.970  16.446  1.3519  3.0752 -0.4538
13419TIP3    H261673   4.338   0.864  16.373 -1.1424 -0.4075  1.4972
13420TIP3   OH261674   5.368   5.633   5.019 -0.2622  0.0052  0.2338
13420TIP3    H161675   5.282   5.652   5.056 -0.1387 -2.4208  2.0061
13420TIP3    H261676   5.428   5.638   5.093  0.9279  0.3772 -0.7259
13421TIP3   OH261677   4.524   5.925  13.233 -0.0750 -0.3488  0.2236
13421TIP3    H161678   4.512   5.956  13.323  0.6373 -0.3181  0.3167
13421TIP3    H261679   4.595   5.979  13.199 -0.1627 -0.5448 -0.2720
13422TIP3   OH261680   6.013   6.464  16.389  0.2760 -0.0967 -0.1614
13422TIP3    H161681   5.984   6.395  16.448 -0.4595 -0.0765 -0.4936
13422TIP3    H261682   6.109   6.459  16.392  0.2863  0.4164  1.6233
13423TIP3   OH261683   2.093   5.606  15.622 -0.3915  0.0116  0.3802
13423TIP3    H161684   2.059   5.518  15.607  1.0475 -0.8927  2.0503
13423TIP3    H261685   2.187   5.598  15.605 -0.2113  1.1626  0.7762
13424TIP3   OH261686   6.620   0.377   5.380  0.3196  0.1895  0.7250
13424TIP3    H161687   6.660   0.371   5.293  1.7840  1.6609  1.2311
13424TIP3    H261688   6.545   0.435   5.368  1.0055  1.0841  0.5461
13425TIP3   OH261689   6.670   5.517  14.509 -0.0419 -0.4207 -0.2032
13425TIP3    H161690   6.746   5.576  14.502 -0.8270  0.5709 -0.6937
13425TIP3    H261691   6.614   5.558  14.575 -0.9192 -0.2236 -1.0415
13426TIP3   OH261692   3.254   5.392  12.106 -0.5372  0.4517  0.0288
13426TIP3    H161693   3.217   5.456  12.167 -0.0706  0.4516  0.3156
13426TIP3    H261694   3.340   5.426  12.084 -0.8678  0.6672 -0.9747
13427TIP3   OH261695   5.792   1.504  12.900 -0.1298 -0.4138  0.1956
13427TIP3    H161696   5.746   1.455  12.832  1.3109  0.5349 -1.5392
13427TIP3    H261697   5.790   1.447  12.977  1.0223 -2.9891 -1.5541
13428TIP3   OH261698   5.205   6.607  16.697 -1.0554 -0.2299 -0.7531
13428TIP3    H161699   5.288   6.590  16.653 -1.3759 -2.2700 -0.6409
13428TIP3    H261700   5.212   6.698  16.727  2.2146 -1.0569  1.5231
13429TIP3   OH261701   0.169   4.307   1.475 -0.0732  0.0108 -0.0249
13429TIP3    H161702   0.226   4.238   1.510 -0.2139  0.4212  1.0826
13429TIP3    H261703   0.217   4.388   1.494 -1.3845  0.4418  1.7814
13430TIP3   OH261704   2.200   3.110  13.219  0.1661 -0.5552  0.4605
13430TIP3    H161705   2.275   3.166  13.237 -0.1147 -0.1329  0.3318
13430TIP3    H261706   2.224   3.063  13.138  0.7865 -1.3211  1.0698
13431TIP3   OH261707   3.457   3.706   2.707 -0.0710 -0.1418  0.0111
13431TIP3    H161708   3.423   3.762   2.637 -0.1032 -0.1996 -0.0191
13431TIP3    H261709   3.422   3.744   2.788 -0.7588 -0.5989 -0.0631
13432TIP3   OH261710   6.034   6.355   5.975 -0.2677 -0.2968  0.0642
13432TIP3    H161711   6.023   6.305   6.056  1.3448 -0.7773  0.0110
13432TIP3    H261712   6.040   6.446   6.004 -0.0314 -0.4332  0.4503
13433TIP3   OH261713   1.767   1.669   4.359  0.1395  0.0947  0.0171
13433TIP3    H161714   1.708   1.669   4.284  0.5146 -0.9470 -0.3046
13433TIP3    H261715   1.725   1.610   4.423  0.1957  0.3697  0.3092
13434TIP3   OH261716   3.936   0.870  13.939 -0.2038 -0.1377  0.3351
13434TIP3    H161717   3.880   0.940  13.972 -1.0317 -0.6971  0.1456
13434TIP3    H261718   4.006   0.915  13.892 -1.4013  0.5342 -0.8560
13435TIP3   OH261719   0.810   4.694   4.767 -0.4616 -0.1815 -0.0776
13435TIP3    H161720   0.719   4.675   4.742 -1.1149  1.7947  0.6218
13435TIP3    H261721   0.819   4.788   4.756  2.2693 -0.5971 -2.3991
13436TIP3   OH261722   3.958   3.457  16.829  0.2063 -0.6835  0.3760
13436TIP3    H161723   3.892   3.396  16.862  0.6818 -0.6175  1.4883
13436TIP3    H261724   4.011   3.479  16.906  0.9203  0.0220 -0.3014
13437TIP3   OH261725   0.053   0.276  16.882 -0.2440 -0.4513  0.6044
13437TIP3    H161726   0.042   0.181  16.886  1.6111 -0.6947  0.6876
13437TIP3    H261727   0.113   0.296  16.953  1.0760  0.4916 -0.7251
13438TIP3   OH261728   2.224   6.377  12.766  0.2385  0.7945 -0.5114
13438TIP3    H161729   2.129   6.387  12.780  0.3148  0.3110  0.4349
13438TIP3    H261730   2.232   6.296  12.715  0.1683  0.5272 -0.1040
13439TIP3   OH261731   3.756   1.363   5.043 -0.4975 -0.2101 -0.7985
13439TIP3    H161732   3.829   1.329   4.991  1.2115  0.4382  1.0505
13439TIP3    H261733   3.729   1.289   5.097 -0.9032 -0.3178 -1.1465
13440TIP3   OH261734   2.988   4.057   5.635 -0.1401 -0.1797 -0.7329
13440TIP3    H161735   2.995   4.085   5.544 -0.4177 -0.8252 -0.9632
13440TIP3    H261736   2.896   4.074   5.659 -0.1570 -0.3265 -0.6878
13441TIP3   OH261737   0.626   5.864   3.296  0.0311  0.0767 -0.7561
13441TIP3    H161738   0.541   5.893   3.263  0.3946  1.0044 -0.9028
13441TIP3    H261739   0.661   5.940   3.342  1.6510  0.4045 -2.4000
13442TIP3   OH261740   1.171   0.205   2.952 -0.3775 -0.2939  0.0306
13442TIP3    H161741   1.127   0.232   2.871 -3.0016  0.6538  1.6643
13442TIP3    H261742   1.245   0.265   2.959 -0.1719 -0.3034 -1.5696
13443TIP3   OH261743   6.795   5.808   1.765 -0.2092 -1.2732 -0.5836
13443TIP3    H161744   6.809   5.864   1.841  1.1324 -1.1607 -0.8836
13443TIP3    H261745   6.758   5.866   1.698 -0.1347 -1.0691 -0.4476
13444TIP3   OH261746   4.005   1.769   5.296 -0.3474 -0.5517 -0.0616
13444TIP3    H161747   3.993   1.776   5.201 -1.5017 -1.4132  0.0081
13444TIP3    H261748   3.927   1.810   5.333 -0.1809 -0.7499  0.5119
13445TIP3   OH261749   6.226   1.251  17.045 -0.6745 -0.7825  0.0285
13445TIP3    H161750   6.275   1.263  16.964 -0.5611  0.3818  0.2550
13445TIP3    H261751   6.265   1.174  17.086  0.4174 -0.3545 -0.1912
13446TIP3   OH261752   4.024   5.171   2.231 -0.3906  0.5492 -0.1394
13446TIP3    H161753   3.932   5.176   2.257 -0.5002 -1.2502 -0.0647
13446TIP3    H261754   4.034   5.240   2.165 -1.9486  0.3534 -0.6175
13447TIP3   OH261755   4.092   2.828  15.865 -0.3459  0.4593  0.1091
13447TIP3    H161756   4.067   2.798  15.778  1.5619  0.2635 -0.4292
13447TIP3    H261757   4.147   2.905  15.850  0.8357 -0.1536  1.0375
13448TIP3   OH261758   2.747   0.810   3.084 -0.7798  0.7419  0.0285
13448TIP3    H161759   2.796   0.882   3.124  0.7903 -0.1776 -0.1596
13448TIP3    H261760   2.704   0.767   3.158  0.8319 -0.0014  0.5698
13449TIP3   OH261761   0.587   2.515   3.661  0.2116  0.4407  0.2347
13449TIP3    H161762   0.520   2.549   3.602  1.1931  1.6243 -0.2481
13449TIP3    H261763   0.570   2.558   3.745  0.4366  0.8217  0.0836
13450TIP3   OH261764   5.429   5.118   0.834  0.1383 -0.1027 -0.5546
13450TIP3    H161765   5.459   5.164   0.912  1.9519  0.3658 -1.4760
13450TIP3    H261766   5.491   5.045   0.823 -2.3003 -2.5188  0.5308
13451TIP3   OH261767   3.164   2.045   5.404  0.2660 -0.1683 -0.0844
13451TIP3    H161768   3.198   1.965   5.365  1.9080  0.5505 -0.2114
13451TIP3    H261769   3.113   2.086   5.334 -0.2533 -0.8906 -0.1400
13452TIP3   OH261770   1.635   6.791  13.280  0.1509 -0.2095 -0.6987
13452TIP3    H161771   1.632   6.867  13.337 -0.4105  0.7211 -1.9204
13452TIP3    H261772   1.644   6.716  13.339  1.4561  0.8479  0.4813
13453TIP3   OH261773   4.930   3.835   1.839  0.8615  0.3786 -0.3549
13453TIP3    H161774   4.937   3.861   1.931  0.9649 -2.1175  0.4366
13453TIP3    H261775   4.989   3.893   1.793  1.2876  1.2911  1.2646
13454TIP3   OH261776   1.568   4.765  15.336  0.2867 -0.1621 -0.0981
13454TIP3    H161777   1.536   4.677  15.358  0.2858 -0.0270  0.4326
13454TIP3    H261778   1.501   4.800  15.276  0.6211 -0.7739 -0.8483
13455TIP3   OH261779   3.065   5.977  12.302  0.1077  0.7949  0.3616
13455TIP3    H161780   3.093   6.026  12.225  0.4120  0.5854  0.3396
13455TIP3    H261781   3.076   5.885  12.278 -0.0863  0.7224  0.5456
13456TIP3   OH261782   5.190   3.312   3.690 -0.0421 -0.3841  0.2966
13456TIP3    H161783   5.279   3.342   3.673 -1.6543  4.4071 -1.3836
13456TIP3    H261784   5.187   3.296   3.784  1.8856  2.6883  1.0169
13457TIP3   OH261785   4.393   3.442  12.508  0.2925  0.6098  0.5049
13457TIP3    H161786   4.487   3.451  12.521  0.4647  0.1387 -0.3245
13457TIP3    H261787   4.379   3.466  12.416 -0.1066 -1.2241  0.0537
13458TIP3   OH261788   5.617   6.451   1.468 -0.2678 -0.1059 -0.1701
13458TIP3    H161789   5.561   6.422   1.540  1.1953 -2.3942  0.1291
13458TIP3    H261790   5.647   6.538   1.495 -0.7071 -0.4227  1.4407
13459TIP3   OH261791   4.896   5.845   1.780  0.1014  0.5551 -0.3427
13459TIP3    H161792   4.849   5.830   1.861 -2.4909  1.0941 -1.6356
13459TIP3    H261793   4.891   5.762   1.733  0.1697  0.7110 -0.6298
13460TIP3   OH261794   4.467   0.724   5.568 -0.3939 -0.2965  0.0613
13460TIP3    H161795   4.373   0.736   5.557 -0.3113  1.3768  0.8534
13460TIP3    H261796   4.480   0.630   5.565 -2.2452 -0.6214  1.0028
13461TIP3   OH261797   1.942   0.679   5.556 -0.1079  0.5886 -0.0296
13461TIP3    H161798   2.026   0.647   5.590  0.2613  0.6284 -0.8694
13461TIP3    H261799   1.930   0.631   5.474 -0.8530  0.6680  0.0312
13462TIP3   OH261800   6.396   5.827  14.342  0.9612  0.1418 -0.4620
13462TIP3    H161801   6.377   5.734  14.339  0.8394  0.1078  0.7600
13462TIP3    H261802   6.377   5.859  14.254  1.0143 -0.9808 -0.8907
13463TIP3   OH261803   0.942   5.377  11.747  0.7146  0.3030  0.7079
13463TIP3    H161804   0.847   5.365  11.739  0.6357  0.8302  0.8200
13463TIP3    H261805   0.979   5.297  11.711  0.2006 -0.4385  1.7796
13464TIP3   OH261806   1.726   6.512   5.609  0.2484 -0.1869 -0.4830
13464TIP3    H161807   1.746   6.421   5.588  1.2441 -0.3359  0.9749
13464TIP3    H261808   1.748   6.521   5.702 -1.0430  1.2125 -0.2714
13465TIP3   OH261809   4.948   4.697  13.072  0.0582 -0.2067  0.0311
13465TIP3    H161810   4.958   4.758  12.998  1.4967  1.0288  1.1926
13465TIP3    H261811   4.955   4.610  13.033  0.0398  0.3973 -1.3767
13466TIP3   OH261812   6.427   4.336   1.519 -0.0434 -0.7002  0.6588
13466TIP3    H161813   6.451   4.333   1.426 -2.0267 -4.3706  0.0744
13466TIP3    H261814   6.341   4.377   1.520 -0.0499 -0.7196  0.8614
13467TIP3   OH261815   2.296   3.054   6.110  0.0128 -0.3475 -0.0652
13467TIP3    H161816   2.295   3.098   6.195  0.5530 -0.4645  0.0035
13467TIP3    H261817   2.305   3.126   6.047 -2.5687 -0.0324 -0.1961
13468TIP3   OH261818   1.510   2.192  12.319 -0.1518  0.0909  0.4041
13468TIP3    H161819   1.448   2.245  12.370 -1.2779 -0.2526 -0.5651
13468TIP3    H261820   1.584   2.250  12.303 -0.2028  0.5154  1.5910
13469TIP3   OH261821   3.022   1.933   1.840 -0.1119 -0.0984 -0.3446
13469TIP3    H161822   2.944   1.985   1.854  1.0076  1.1508  1.7598
13469TIP3    H261823   3.094   1.989   1.869  1.2646 -2.3044  0.8418
13470TIP3   OH261824   5.770   6.108  11.732 -0.3012 -0.0496  0.0938
13470TIP3    H161825   5.840   6.170  11.749 -0.1773  0.5222 -2.1315
13470TIP3    H261826   5.809   6.022  11.748  1.9205  0.0539 -3.5995
13471TIP3   OH261827   6.588   1.229   3.122  0.1477 -0.5041  0.1001
13471TIP3    H161828   6.527   1.176   3.173 -0.4595  0.2551  0.1940
13471TIP3    H261829   6.580   1.196   3.032  0.4838 -1.1859  0.3135
13472TIP3   OH261830   6.188   3.754   3.056  0.1504  0.0670  0.3548
13472TIP3    H161831   6.162   3.842   3.079  1.9928  0.8925 -0.4679
13472TIP3    H261832   6.211   3.712   3.139 -0.4423  0.4649  0.7196
13473TIP3   OH261833   2.879   1.156   1.154  0.3836 -0.0197  0.3120
13473TIP3    H161834   2.926   1.085   1.111  0.3610  0.7206 -0.9846
13473TIP3    H261835   2.920   1.235   1.121 -1.0757  0.6155 -0.0408
13474TIP3   OH261836   4.160   3.643  14.288  0.4432 -0.4261  0.2811
13474TIP3    H161837   4.143   3.549  14.300  2.2387 -1.3900 -3.4060
13474TIP3    H261838   4.249   3.655  14.322  0.8490 -0.4628 -0.7475
13475TIP3   OH261839   0.591   5.567   1.641 -0.2876 -0.6566  0.5265
13475TIP3    H161840   0.554   5.504   1.704 -0.9606 -0.7127  0.0929
13475TIP3    H261841   0.524   5.574   1.573 -0.2019  0.5000  0.5417
13476TIP3   OH261842   3.025   1.408  16.592  0.0984 -0.2644  0.2507
13476TIP3    H161843   3.010   1.318  16.563 -0.9124 -0.2498  0.6791
13476TIP3    H261844   3.120   1.418  16.592  0.2096 -1.2014 -0.1832
13477TIP3   OH261845   5.675   2.122  16.680 -0.3494  0.1137 -0.1089
13477TIP3    H161846   5.750   2.062  16.690  0.3026  0.7060 -1.2132
13477TIP3    H261847   5.684   2.156  16.591 -2.4586 -0.4870 -0.5967
13478TIP3   OH261848   3.660   2.640  12.128  0.4066 -0.4434  0.2612
13478TIP3    H161849   3.741   2.608  12.089 -0.5371  0.0451 -2.3786
13478TIP3    H261850   3.597   2.569  12.115  0.1896 -0.5001  1.5261
13479TIP3   OH261851   4.262   5.316  10.930 -0.3845  0.3163  0.4966
13479TIP3    H161852   4.343   5.303  10.880 -1.8968 -0.9756 -1.8352
13479TIP3    H261853   4.237   5.407  10.911 -0.8258 -0.0934 -1.0245
13480TIP3   OH261854   6.083   3.849  11.417  0.0230 -0.2173 -0.2135
13480TIP3    H161855   6.009   3.807  11.462 -0.8306  1.3597 -0.0713
13480TIP3    H261856   6.054   3.856  11.326  0.0905  0.1909 -0.2050
13481TIP3   OH261857   3.203   3.592   1.333  0.0038  0.0009 -0.5501
13481TIP3    H161858   3.280   3.612   1.386  2.1119 -1.7356 -2.7284
13481TIP3    H261859   3.184   3.673   1.286 -0.8458  1.0398  1.4646
13482TIP3   OH261860   4.789   5.559   2.304  0.5418 -0.1566 -0.3436
13482TIP3    H161861   4.699   5.559   2.336  0.1132  0.2867 -1.4652
13482TIP3    H261862   4.790   5.491   2.236  1.4170 -1.0750  0.5568
13483TIP3   OH261863   3.334   0.307   3.035 -0.8464 -0.1569 -0.2493
13483TIP3    H161864   3.249   0.340   3.007 -0.2388  1.5615 -0.1674
13483TIP3    H261865   3.396   0.377   3.013  0.6061 -1.4921 -0.5903
13484TIP3   OH261866   3.216   3.100  10.697 -0.5068  0.2345 -0.2398
13484TIP3    H161867   3.150   3.037  10.728 -0.8675  1.1449  0.9117
13484TIP3    H261868   3.300   3.057  10.716 -0.7530 -0.1720 -0.0428
13485TIP3   OH261869   2.558   3.422  11.798 -0.2156 -0.1097 -0.4936
13485TIP3    H161870   2.578   3.492  11.737  0.2045  2.0314  1.9417
13485TIP3    H261871   2.642   3.379  11.814  0.2139  1.0439  0.5184
13486TIP3   OH261872   2.714   4.218   3.009  0.0890 -0.0266  0.0950
13486TIP3    H161873   2.751   4.136   3.039  0.2551 -1.1048 -2.7097
13486TIP3    H261874   2.778   4.285   3.034  1.4443 -1.1801 -0.1707
13487TIP3   OH261875   6.091   3.000   5.097 -0.2034 -0.1604 -0.4620
13487TIP3    H161876   6.027   3.008   5.026  0.2497  0.4782 -0.8036
13487TIP3    H261877   6.144   3.080   5.091 -0.6772  0.3023  1.1111
13488TIP3   OH261878   3.848   3.959  16.047 -0.1566  0.9153 -0.2616
13488TIP3    H161879   3.829   4.049  16.019  0.8479  1.7601  1.5708
13488TIP3    H261880   3.930   3.937  16.003 -1.1059  0.3257 -1.8094
13489TIP3   OH261881   0.117   6.676  11.688 -0.9412  0.6933 -0.5146
13489TIP3    H161882   0.102   6.770  11.679 -0.3784  0.6704 -1.9123
13489TIP3    H261883   0.032   6.635  11.674 -0.8784  0.9178 -1.6208
13490TIP3   OH261884   5.214   6.202   0.328  0.2436 -0.2734  0.2225
13490TIP3    H161885   5.290   6.144   0.318  0.7712  0.0363  2.0694
13490TIP3    H261886   5.146   6.161   0.275  1.0334 -1.8236  0.3448
13491TIP3   OH261887   4.863   5.676   5.539  0.1359 -0.2772 -0.5629
13491TIP3    H161888   4.857   5.670   5.635  2.6808  1.9934 -0.1250
13491TIP3    H261889   4.949   5.640   5.518  1.4405  2.9852 -1.4023
13492TIP3   OH261890   6.023   1.796   3.540 -0.2751 -0.4979 -0.1048
13492TIP3    H161891   5.977   1.778   3.622  1.1235 -1.1688  0.5683
13492TIP3    H261892   6.093   1.730   3.537  0.6426  0.4713 -1.0757
13493TIP3   OH261893   1.900   0.679  12.228 -0.4651  0.0333 -0.1773
13493TIP3    H161894   1.912   0.616  12.299 -0.2638 -0.8635 -0.9917
13493TIP3    H261895   1.926   0.763  12.266  0.0517 -0.4971  0.6808
13494TIP3   OH261896   4.489   6.513   3.523 -0.6521 -0.0960 -0.3354
13494TIP3    H161897   4.403   6.494   3.560 -1.1499 -0.0376 -1.4200
13494TIP3    H261898   4.497   6.608   3.529 -1.6091  0.1463 -2.1578
13495TIP3   OH261899   4.663   1.835   2.588 -0.1163  0.3191  0.5980
13495TIP3    H161900   4.639   1.879   2.670  0.6369  0.5099  0.7269
13495TIP3    H261901   4.611   1.881   2.521 -0.0210  0.8048  0.8482
13496TIP3   OH261902   5.765   0.882   4.591  0.0489 -0.1382  0.1716
13496TIP3    H161903   5.729   0.794   4.607  0.5277 -0.1722  1.0893
13496TIP3    H261904   5.858   0.867   4.573 -0.2475 -0.0067 -1.7757
13497TIP3   OH261905   2.288   2.427  12.925 -0.1048  0.1765 -0.0210
13497TIP3    H161906   2.270   2.490  12.855  0.9991  0.6440  0.0904
13497TIP3    H261907   2.277   2.477  13.006 -0.0693 -0.0030  0.0958
13498TIP3   OH261908   2.427   0.269   1.818 -0.0931 -0.4978 -0.0738
13498TIP3    H161909   2.399   0.286   1.908  1.4132 -1.3032  0.5894
13498TIP3    H261910   2.437   0.355   1.779  2.3234  0.0769  1.5690
13499TIP3   OH261911   3.707   5.884  16.753 -0.0601 -0.0971  0.2875
13499TIP3    H161912   3.753   5.863  16.835  0.3538  0.2737  0.1565
13499TIP3    H261913   3.620   5.912  16.780 -1.1706 -3.2580  0.4200
13500TIP3   OH261914   2.475   1.463   0.081 -0.2549 -0.2380 -0.3023
13500TIP3    H161915   2.434   1.444  -0.003 -2.2327  1.6457  0.1305
13500TIP3    H261916   2.408   1.511   0.130  2.1650  2.2976  0.8010
13501TIP3   OH261917   5.132   4.691  11.536  0.1613  0.4637 -0.1783
13501TIP3    H161918   5.056   4.645  11.500  1.1481 -0.4523 -1.1741
13501TIP3    H261919   5.122   4.781  11.506 -0.1177  0.1743 -0.9855
13502TIP3   OH261920   0.353   5.856  12.744  0.3686  0.1313  0.2439
13502TIP3    H161921   0.320   5.767  12.735  1.2662 -0.4426  2.1766
13502TIP3    H261922   0.433   5.857  12.692  0.8628 -0.4804  0.9880
13503TIP3   OH261923   2.339   0.134  13.597  0.4344 -0.0716  0.3491
13503TIP3    H161924   2.277   0.178  13.538  0.5472  0.3431  0.5400
13503TIP3    H261925   2.415   0.117  13.542 -0.1329 -1.2745 -0.0955
13504TIP3   OH261926   5.884   1.253  13.032 -0.3054  0.7121  0.5549
13504TIP3    H161927   5.933   1.215  12.960 -0.4529  1.8988 -0.1972
13504TIP3    H261928   5.801   1.205  13.032 -0.3244  0.7333 -0.0985
13505TIP3   OH261929   6.143   1.961   2.569  0.4955 -0.2711  0.6662
13505TIP3    H161930   6.197   2.036   2.595  1.0280  0.2323 -1.6709
13505TIP3    H261931   6.116   1.981   2.480 -2.3060 -1.2615  1.1975
13506TIP3   OH261932   4.048   0.937  14.418 -0.1682 -0.0830  0.1925
13506TIP3    H161933   4.109   1.010  14.421  1.7592 -1.6437  1.4909
13506TIP3    H261934   3.963   0.975  14.441  1.1529  1.4108  3.1256
13507TIP3   OH261935   4.867   5.730   3.321  0.0620 -0.2047  0.5643
13507TIP3    H161936   4.794   5.792   3.327  0.9961  0.9890 -0.1497
13507TIP3    H261937   4.892   5.731   3.229  0.2082 -1.5467  0.5648
13508TIP3   OH261938   3.227   4.121   1.424 -0.3615  0.2222  0.3400
13508TIP3    H161939   3.236   4.197   1.367 -0.2635  0.4711  0.6899
13508TIP3    H261940   3.308   4.071   1.411  0.4977  1.2178  1.6460
13509TIP3   OH261941   5.087   3.902  15.623 -0.2220  0.1806 -0.1183
13509TIP3    H161942   5.180   3.920  15.607 -0.0082  1.0640  1.7928
13509TIP3    H261943   5.053   3.874  15.538  1.4594  1.2447 -1.2073
13510TIP3   OH261944   5.242   5.426  12.310 -0.4570 -0.0813  0.4780
13510TIP3    H161945   5.322   5.379  12.286 -0.1067  0.3546  0.7771
13510TIP3    H261946   5.176   5.357  12.319 -0.4246 -0.3294 -0.9951
13511TIP3   OH261947   6.238   6.269   2.054  0.3006  0.1938 -0.4362
13511TIP3    H161948   6.210   6.251   1.965 -0.7232 -3.5460  0.4732
13511TIP3    H261949   6.157   6.267   2.106  1.1709 -0.9906  0.9586
13512TIP3   OH261950   5.194   3.900  14.722  0.4112  0.3474 -0.2363
13512TIP3    H161951   5.280   3.930  14.752  0.2458  0.8225 -0.2304
13512TIP3    H261952   5.181   3.944  14.638  0.4096 -0.1503 -0.5012
13513TIP3   OH261953   0.858   2.099  13.584  0.1189 -0.7887 -0.6519
13513TIP3    H161954   0.847   2.187  13.550 -1.5396 -0.7572 -0.1112
13513TIP3    H261955   0.933   2.064  13.536  0.1052  0.5127 -1.6715
13514TIP3   OH261956   0.832   4.115  11.359  0.0123 -0.3919 -0.0986
13514TIP3    H161957   0.833   4.190  11.301  2.0546 -0.3024 -0.0172
13514TIP3    H261958   0.817   4.040  11.302  1.5155 -0.2554 -0.7160
13515TIP3   OH261959   4.094   1.840  13.790  0.4541  0.6144 -0.1333
13515TIP3    H161960   4.069   1.837  13.883  0.5774  0.4694 -0.1051
13515TIP3    H261961   4.105   1.748  13.766 -1.0844  0.5442 -0.6969
13516TIP3   OH261962   3.536   1.953   6.084 -0.2306  0.2229 -0.0960
13516TIP3    H161963   3.526   1.928   6.176 -1.0985  3.5551  0.8416
13516TIP3    H261964   3.605   2.019   6.085  0.2667 -0.2153 -2.0117
13517TIP3   OH261965   2.617   2.211  16.216 -0.1937 -0.2990 -0.2422
13517TIP3    H161966   2.548   2.252  16.268 -0.4094 -0.1606 -0.6323
13517TIP3    H261967   2.623   2.265  16.136  0.9526  0.1950  0.1520
13518TIP3   OH261968   1.168   4.431  15.442  0.0775  0.1511  1.2263
13518TIP3    H161969   1.077   4.452  15.419  0.2672  0.3280  0.6098
13518TIP3    H261970   1.200   4.379  15.368  0.0287 -1.2177  2.1228
13519TIP3   OH261971   1.429   0.350  10.521 -0.5024 -0.2331  0.3261
13519TIP3    H161972   1.380   0.338  10.602 -0.4502 -1.0459  0.2505
13519TIP3    H261973   1.462   0.439  10.526 -1.4028  0.0940  0.6970
13520TIP3   OH261974   5.099   0.372  12.549  0.2767  0.0499  0.1641
13520TIP3    H161975   5.149   0.405  12.475 -0.0143 -0.2066 -0.1503
13520TIP3    H261976   5.008   0.375  12.520 -0.1207  2.2996  1.3963
13521TIP3   OH261977   2.553   3.400   1.196 -0.1299  0.5575  0.6806
13521TIP3    H161978   2.628   3.435   1.244  0.4045 -1.4231  1.3989
13521TIP3    H261979   2.580   3.401   1.105  0.9093 -0.3563  0.9540
13522TIP3   OH261980   5.190   0.604  14.408 -0.3716 -0.1487 -0.2042
13522TIP3    H161981   5.271   0.636  14.448  0.0341 -0.8284 -0.4700
13522TIP3    H261982   5.137   0.683  14.394  0.2475  0.3020 -0.0367
13523TIP3   OH261983   6.257   4.301   3.345 -0.1497 -0.2541 -0.0345
13523TIP3    H161984   6.325   4.357   3.380 -0.7161  0.2260  0.3158
13523TIP3    H261985   6.205   4.275   3.421 -0.5387 -0.3627 -0.3296
13524TIP3   OH261986   1.332   2.660   2.780  0.7938 -0.0380  0.4586
13524TIP3    H161987   1.241   2.688   2.794 -1.1974 -5.7120  1.5837
13524TIP3    H261988   1.376   2.679   2.863  0.7437  2.6684 -0.0599
13525TIP3   OH261989   3.136   3.742  11.434  0.2797  0.6702 -0.5858
13525TIP3    H161990   3.044   3.721  11.415  0.0537 -1.4576  2.1867
13525TIP3    H261991   3.185   3.669  11.397  0.3317 -0.5471  1.6858
13526TIP3   OH261992   6.770   3.452  12.169 -0.7006  0.0921 -0.2993
13526TIP3    H161993   6.807   3.503  12.241  1.2487 -1.3991 -0.1653
13526TIP3    H261994   6.780   3.509  12.092 -2.0761  1.3809  0.4366
13527TIP3   OH261995   5.755   1.407   4.495  0.1589 -0.3690 -0.1713
13527TIP3    H161996   5.710   1.356   4.562  0.8633 -0.8160 -0.0228
13527TIP3    H261997   5.821   1.457   4.543 -1.1025  1.3788 -0.2067
13528TIP3   OH261998   5.329   4.228  15.951  0.3948 -0.2884 -0.2139
13528TIP3    H161999   5.331   4.187  16.038 -0.8668  1.1198  0.5543
13528TIP3    H262000   5.421   4.235  15.925  0.7802 -0.9684  0.8942
13529TIP3   OH262001   5.609   3.412   3.350 -0.1399  0.4102 -0.0296
13529TIP3    H162002   5.703   3.396   3.342 -0.2165 -0.3432  0.4207
13529TIP3    H262003   5.570   3.356   3.282 -0.2571  0.7749 -0.2623
13530TIP3   OH262004   0.210   4.739   3.084  0.2641  0.1131  0.1339
13530TIP3    H162005   0.295   4.773   3.110 -0.0767  1.1495 -0.0875
13530TIP3    H262006   0.147   4.806   3.110 -0.3071  0.2016 -1.3627
13531TIP3   OH262007   5.169   0.054   1.426  0.0382 -0.0091  0.3635
13531TIP3    H162008   5.229   0.072   1.498  1.0443  0.5485 -0.5775
13531TIP3    H262009   5.207  -0.022   1.382 -2.0223 -2.0913  1.9388
13532TIP3   OH262010   0.451   0.468  13.422  0.0283  0.6509 -0.2065
13532TIP3    H162011   0.441   0.563  13.411 -1.8436  0.4794 -0.3207
13532TIP3    H262012   0.447   0.433  13.334 -0.4131  0.3791 -0.0783
13533TIP3   OH262013   1.003   5.861   0.756  0.3435 -0.4325  0.0251
13533TIP3    H162014   0.982   5.895   0.843  0.3371 -1.0543  0.2734
13533TIP3    H262015   1.034   5.772   0.772  0.4120 -0.5269 -0.6061
13534TIP3   OH262016   1.084   2.482  17.024 -0.7691  0.0721 -0.6423
13534TIP3    H162017   1.078   2.516  17.113 -4.7235  0.4162 -0.8644
13534TIP3    H262018   1.120   2.393  17.034 -0.6245  0.3036  1.1951
13535TIP3   OH262019   0.863   2.842  12.393 -0.5578 -0.2317 -0.0426
13535TIP3    H162020   0.853   2.790  12.313  0.0392 -0.3127 -0.0656
13535TIP3    H262021   0.941   2.895  12.378 -0.5679 -0.0874  0.4014
13536TIP3   OH262022   5.649   6.648  16.117  0.0411 -0.7620  0.9906
13536TIP3    H162023   5.592   6.578  16.148 -0.5232 -1.6799 -1.8658
13536TIP3    H262024   5.738   6.615  16.133 -0.2019 -2.3742 -0.6363
13537TIP3   OH262025   4.206   2.295   5.165 -0.0750 -0.8347 -0.2932
13537TIP3    H162026   4.289   2.339   5.145 -0.3955 -0.3366 -0.5461
13537TIP3    H262027   4.218   2.262   5.254 -0.5926  1.6945  0.8206
13538TIP3   OH262028   5.621   1.734   3.993 -0.0998  0.5243  0.1360
13538TIP3    H162029   5.580   1.664   4.044 -0.3211 -1.2324 -2.2378
13538TIP3    H262030   5.706   1.749   4.036 -0.9616  0.3903  1.9701
13539TIP3   OH262031   0.847   1.754   5.520  0.1942 -0.0744 -0.0387
13539TIP3    H162032   0.820   1.845   5.510 -0.2979  0.1395  2.5984
13539TIP3    H262033   0.938   1.760   5.550  0.7003 -0.5398 -1.4186
13540TIP3   OH262034   0.103   6.577   2.851  0.0315 -0.1018  0.3832
13540TIP3    H162035   0.162   6.638   2.806 -0.8337 -0.4312 -1.2401
13540TIP3    H262036   0.024   6.628   2.867 -0.5229 -0.6370 -0.5730
13541TIP3   OH262037   3.065   4.760  13.062 -0.2972 -0.1154  0.0477
13541TIP3    H162038   2.973   4.785  13.052  0.3255  1.9485 -0.9400
13541TIP3    H262039   3.084   4.708  12.983 -0.8269 -1.3786  0.7162
13542TIP3   OH262040   2.227   0.701   3.306 -0.0605 -0.5123 -0.3534
13542TIP3    H162041   2.165   0.720   3.235  1.8728  0.6640 -1.8264
13542TIP3    H262042   2.282   0.631   3.272  0.8571  0.0292 -0.0250
13543TIP3   OH262043   2.817   1.321   4.777 -0.2332  0.6842  0.1238
13543TIP3    H162044   2.783   1.255   4.718 -0.4918  1.0571 -0.1496
13543TIP3    H262045   2.803   1.285   4.865 -2.3504  1.2864  0.0812
13544TIP3   OH262046   3.689   0.988  13.423  0.3528  0.2333 -0.1069
13544TIP3    H162047   3.597   0.970  13.400  0.2637 -1.2969  1.3460
13544TIP3    H262048   3.707   1.071  13.379 -1.1736 -0.3000 -1.9104
13545TIP3   OH262049   5.896   5.873   1.641  0.8425  0.5040  0.3049
13545TIP3    H162050   5.847   5.955   1.639 -0.7802 -0.4160 -1.8271
13545TIP3    H262051   5.830   5.806   1.658  1.5250 -0.6502 -1.3603
13546TIP3   OH262052   1.337   1.236  13.157 -0.2476 -0.3117  0.6018
13546TIP3    H162053   1.334   1.330  13.141 -0.2330 -0.4469 -0.2385
13546TIP3    H262054   1.246   1.208  13.158 -0.2477 -0.7669 -2.2969
13547TIP3   OH262055   0.022   4.697  13.143 -0.3167 -0.2047 -0.1950
13547TIP3    H162056   0.020   4.602  13.133  1.2950 -0.1771 -1.0954
13547TIP3    H262057  -0.009   4.731  13.058 -1.6900  0.1134  0.3979
13548TIP3   OH262058   3.606   1.728  11.371  0.3543 -0.1290  0.1231
13548TIP3    H162059   3.543   1.781  11.419 -0.7100  0.2164 -1.5837
13548TIP3    H262060   3.630   1.782  11.295  1.2064 -1.0556 -0.2867
13549TIP3   OH262061   3.887   2.027  10.461  0.3507  0.1912  0.1370
13549TIP3    H162062   3.941   1.976  10.522  0.9557  1.0569  0.3464
13549TIP3    H262063   3.866   2.107  10.509 -0.6849  0.0963 -0.1440
13550TIP3   OH262064   0.808   5.193  14.651  0.1517  0.2245  0.2012
13550TIP3    H162065   0.893   5.224  14.681  0.4737 -0.2049 -0.2542
13550TIP3    H262066   0.816   5.098  14.650  0.1218  0.2180 -1.1049
13551TIP3   OH262067   6.492   2.570   5.690 -0.0154  0.4688  0.2082
13551TIP3    H162068   6.439   2.523   5.625  2.1003  1.3977 -2.3695
13551TIP3    H262069   6.566   2.512   5.707  0.9448  1.4484 -0.5072
13552TIP3   OH262070   3.471   1.725   5.864 -0.3475 -0.0192  0.0556
13552TIP3    H162071   3.534   1.772   5.919 -1.7550  0.2036  1.5390
13552TIP3    H262072   3.419   1.793   5.823 -1.5134 -0.2042  1.1580
13553TIP3   OH262073   4.966   1.481   3.095 -0.1177  0.1184 -0.2025
13553TIP3    H162074   5.040   1.461   3.154  1.4533  0.7526 -1.8645
13553TIP3    H262075   4.967   1.576   3.087 -0.9366  0.1058 -0.4866
13554TIP3   OH262076   5.969   0.680   1.833  0.2054 -0.0147 -0.1707
13554TIP3    H162077   5.920   0.741   1.888  2.0417 -0.1026  1.7040
13554TIP3    H262078   5.972   0.599   1.884  0.2344 -0.7669 -1.3384
13555TIP3   OH262079   0.801   4.547   3.011  0.5704  0.1165  0.2380
13555TIP3    H162080   0.787   4.630   3.055 -0.8041 -0.3289  0.6848
13555TIP3    H262081   0.828   4.486   3.081 -0.7610 -0.3762  0.3477
13556TIP3   OH262082   2.150   5.974  13.077  0.2635  0.3564  0.8559
13556TIP3    H162083   2.231   6.014  13.108  0.3877 -0.1643  1.2170
13556TIP3    H262084   2.093   6.048  13.057  0.6610  0.7194  1.0473
13557TIP3   OH262085   4.157   5.559  10.852 -0.6310  0.0424  0.1017
13557TIP3    H162086   4.068   5.583  10.826 -0.0687  1.3896 -0.6964
13557TIP3    H262087   4.213   5.612  10.795  0.6709  0.7514  1.9560
13558TIP3   OH262088   0.487   6.081   5.925 -0.3129 -0.2603  0.5422
13558TIP3    H162089   0.457   6.078   6.016 -0.4802  1.2372  0.5743
13558TIP3    H262090   0.544   6.005   5.916  0.4516  0.0544  2.1924
13559TIP3   OH262091   2.381   2.042   1.935 -0.6699 -0.0017 -0.3059
13559TIP3    H162092   2.330   1.978   1.984  0.1032  0.8229  1.6800
13559TIP3    H262093   2.426   1.991   1.868 -0.8290 -1.3696  0.5952
13560TIP3   OH262094   6.507   4.664   0.364  0.1480  0.3709  0.4532
13560TIP3    H162095   6.540   4.711   0.288 -2.3609  0.1869 -0.8564
13560TIP3    H262096   6.550   4.579   0.361 -1.5102 -0.4927 -2.1677
13561TIP3   OH262097   4.130   2.185  13.826 -0.1459  0.5917 -0.1508
13561TIP3    H162098   4.130   2.280  13.841 -1.1774  0.6770 -0.5489
13561TIP3    H262099   4.084   2.149  13.902  0.9292  0.3243  0.3860
13562TIP3   OH262100   5.855   5.091   3.638  0.1012 -0.3377 -0.4453
13562TIP3    H162101   5.886   5.001   3.643 -0.6420 -0.5802  0.0640
13562TIP3    H262102   5.919   5.142   3.688  1.2476 -0.3616 -1.8465
13563TIP3   OH262103   4.435   2.992   1.085  0.3354  0.0274  0.4192
13563TIP3    H162104   4.514   3.002   1.033  0.2815 -1.5575 -0.0205
13563TIP3    H262105   4.413   2.899   1.079 -0.2968 -0.0137  2.3780
13564TIP3   OH262106   2.315   0.226   3.713 -0.8175  0.1217 -0.1598
13564TIP3    H162107   2.345   0.199   3.800  2.5240  0.4877 -1.0434
13564TIP3    H262108   2.274   0.311   3.728 -0.3609  0.1447  1.1063
13565TIP3   OH262109   5.207   3.180   0.398  0.2836 -0.1910 -0.0760
13565TIP3    H162110   5.125   3.139   0.426 -0.6521  0.4827 -1.6591
13565TIP3    H262111   5.201   3.182   0.302  2.3317 -0.4524 -0.2499
13566TIP3   OH262112   1.816   0.095   2.963 -0.1249 -0.0179  0.0249
13566TIP3    H162113   1.771   0.142   2.893 -1.0168 -0.2995  0.3831
13566TIP3    H262114   1.746   0.076   3.027  0.4619 -0.6944  0.4775
13567TIP3   OH262115   6.057   0.140   0.202  0.0628 -0.4861  0.5606
13567TIP3    H162116   6.016   0.179   0.279  2.6604 -0.3774  1.9921
13567TIP3    H262117   6.045   0.046   0.212  0.9353 -0.5091  1.4505
13568TIP3   OH262118   0.666   1.297   3.504  0.1231  0.2990 -0.1848
13568TIP3    H162119   0.604   1.354   3.551 -0.9326 -0.9695  0.0024
13568TIP3    H262120   0.731   1.274   3.570 -0.5054 -0.2289  0.2658
13569TIP3   OH262121   0.079   3.804   0.482  0.3021 -0.2454  0.0695
13569TIP3    H162122   0.003   3.845   0.523  0.6495 -0.2361  0.7157
13569TIP3    H262123   0.080   3.715   0.517  0.2163 -0.4502 -0.4421
13570TIP3   OH262124   4.989   6.551  11.871 -0.4513  0.3391 -0.1190
13570TIP3    H162125   5.073   6.543  11.915 -0.3928  1.4055 -0.0004
13570TIP3    H262126   4.924   6.546  11.941 -0.4832 -0.2509 -0.1846
13571TIP3   OH262127   3.574   5.348  13.589  0.1284 -0.7628 -0.9054
13571TIP3    H162128   3.647   5.327  13.646  0.2849  0.0836 -0.7977
13571TIP3    H262129   3.583   5.441  13.569 -0.5801 -0.7804 -1.3698
13572TIP3   OH262130   5.926   4.613  11.373 -0.0213 -0.3437  0.2709
13572TIP3    H162131   5.913   4.692  11.320  1.6314 -1.1473 -1.4422
13572TIP3    H262132   5.941   4.647  11.462 -1.5490  1.1123  0.0280
13573TIP3   OH262133   1.945   0.025  16.513  0.3048  0.7100  0.3992
13573TIP3    H162134   1.949  -0.069  16.495  1.6135  0.8851 -0.4516
13573TIP3    H262135   1.986   0.065  16.436 -0.8553  2.0280  0.4311
13574TIP3   OH262136   4.129   2.575   5.840  0.4210 -0.1614 -0.3703
13574TIP3    H162137   4.083   2.571   5.924 -1.1775 -1.9285 -1.2528
13574TIP3    H262138   4.126   2.486   5.806  0.7942  0.5494 -2.4418
13575TIP3   OH262139   3.017   4.388   1.787 -0.3113  0.2727 -0.5434
13575TIP3    H162140   3.111   4.402   1.775 -0.3644  0.8559 -0.3191
13575TIP3    H262141   2.990   4.338   1.710 -0.0644  1.2534 -1.2897
13576TIP3   OH262142   1.223   1.388   6.004 -0.3955  0.2445 -0.3503
13576TIP3    H162143   1.213   1.351   6.092 -1.6491  0.6185 -0.3128
13576TIP3    H262144   1.287   1.332   5.962 -0.1398 -0.2400  0.6440
13577TIP3   OH262145   3.108   6.711  16.274  0.1357 -0.5108  0.1990
13577TIP3    H162146   3.069   6.632  16.236 -0.2680 -0.4078  0.4008
13577TIP3    H262147   3.193   6.681  16.309 -0.2252 -0.9618  0.7036
13578TIP3   OH262148   0.732   2.700   5.745 -0.3841  0.5914  0.4763
13578TIP3    H162149   0.711   2.790   5.720  1.1399  0.8545 -0.0039
13578TIP3    H262150   0.757   2.706   5.837  0.2602  0.7707  0.2947
13579TIP3   OH262151   6.405   1.230  12.315  0.0062 -0.5773 -0.7218
13579TIP3    H162152   6.464   1.166  12.275  1.1076 -1.1250  1.5942
13579TIP3    H262153   6.464   1.300  12.345 -0.9477  0.5222 -1.3350
13580TIP3   OH262154   0.613   3.318  14.543 -0.0605  0.7357  0.1970
13580TIP3    H162155   0.560   3.341  14.619 -0.8269  0.8639 -0.3646
13580TIP3    H262156   0.566   3.355  14.468  1.7076  2.3754 -0.1872
13581TIP3   OH262157   4.446   5.074   4.828  0.1697  0.0568  0.2017
13581TIP3    H162158   4.431   4.988   4.789  0.5810  0.4537 -0.8750
13581TIP3    H262159   4.376   5.084   4.892  0.5174 -1.3559  0.8310
13582TIP3   OH262160   2.352   2.810  13.656  0.3276 -0.3556  0.0868
13582TIP3    H162161   2.359   2.837  13.748  0.0293 -3.2652  1.0547
13582TIP3    H262162   2.347   2.715  13.659  3.9101 -0.8839 -3.1579
13583TIP3   OH262163   0.355   6.392   2.890 -0.3004 -0.5127 -0.4497
13583TIP3    H162164   0.400   6.395   2.974 -1.2985 -0.0584  0.0900
13583TIP3    H262165   0.266   6.422   2.909 -0.4740 -0.1347 -1.7180
13584TIP3   OH262166   5.923   4.213  14.700 -0.2439 -0.4491  0.1560
13584TIP3    H162167   5.867   4.288  14.680  1.7218  1.1145  0.2719
13584TIP3    H262168   5.917   4.204  14.795  1.9263  1.6544  0.5851
13585TIP3   OH262169   5.593   1.070   2.304  0.5837  0.1641 -0.1057
13585TIP3    H162170   5.500   1.091   2.291  0.9372  1.2709 -1.0616
13585TIP3    H262171   5.638   1.155   2.299  1.6426 -0.3493  0.3823
13586TIP3   OH262172   5.808   2.565  15.156 -0.3262 -0.2370  0.3019
13586TIP3    H162173   5.764   2.614  15.086 -0.8492 -1.2363 -0.0888
13586TIP3    H262174   5.751   2.489  15.172  0.3994 -0.6554  0.9712
13587TIP3   OH262175   2.322   5.431  15.751 -0.1291 -0.2932 -0.2107
13587TIP3    H162176   2.311   5.512  15.801  0.0433  0.1046 -0.8008
13587TIP3    H262177   2.328   5.460  15.660  1.8793 -0.7862 -0.2747
13588TIP3   OH262178   4.853   2.299   0.683  0.1303  0.3852  0.5975
13588TIP3    H162179   4.833   2.212   0.649  0.1888  0.9156 -0.8516
13588TIP3    H262180   4.769   2.333   0.713  0.3245 -0.7012  2.5772
13589TIP3   OH262181   2.709   2.932  15.501  0.9323  0.3052  0.2309
13589TIP3    H162182   2.720   2.837  15.493  1.4256  0.3361  0.4683
13589TIP3    H262183   2.617   2.947  15.482  1.2632  0.0026 -1.7681
13590TIP3   OH262184   6.041   3.731  14.615 -0.5892  0.0449  0.0373
13590TIP3    H162185   6.110   3.686  14.664 -0.2533  1.0446  0.5091
13590TIP3    H262186   6.047   3.695  14.527 -1.1895 -1.7739  0.7061
13591TIP3   OH262187   2.172   3.787   0.814 -0.5338  0.0759 -0.0503
13591TIP3    H162188   2.265   3.808   0.809 -0.5092  0.2153  0.8360
13591TIP3    H262189   2.131   3.869   0.842 -1.2207  0.6552 -2.4593
13592TIP3   OH262190   4.330   5.548  16.434  0.0876 -0.9294  0.6621
13592TIP3    H162191   4.393   5.518  16.501  0.0680  0.2625  1.2397
13592TIP3    H262192   4.360   5.635  16.411 -0.7094 -0.7979  0.1046
13593TIP3   OH262193   3.835   1.972   2.146 -0.0878  0.1521  0.3673
13593TIP3    H162194   3.866   1.977   2.237 -2.1430 -1.8730  1.2835
13593TIP3    H262195   3.873   1.892   2.111  0.2405  0.6318 -0.4052
13594TIP3   OH262196   6.466   0.331   3.509 -0.0178  0.4691  0.1997
13594TIP3    H162197   6.429   0.247   3.482 -2.7742  1.0623  1.7362
13594TIP3    H262198   6.558   0.312   3.528 -0.0935 -1.7461 -1.2473
13595TIP3   OH262199   3.921   6.154  12.274 -0.5692  0.0567  0.3836
13595TIP3    H162200   3.947   6.171  12.183 -0.9548  1.0758  0.4448
13595TIP3    H262201   3.982   6.206  12.327 -0.1668 -0.7570  0.7297
13596TIP3   OH262202   1.561   4.699   5.226 -0.0824  0.2014 -0.0015
13596TIP3    H162203   1.527   4.649   5.300 -0.2664  0.2789 -0.0308
13596TIP3    H262204   1.490   4.760   5.204 -0.3118 -0.3093 -0.7052
13597TIP3   OH262205   3.723   5.176  14.751  0.5190 -0.1788 -0.3212
13597TIP3    H162206   3.806   5.190  14.797  0.3299  1.7418 -0.4875
13597TIP3    H262207   3.726   5.238  14.678 -1.5063  0.7528  0.3162
13598TIP3   OH262208   5.502   2.979  11.192  0.3034 -0.0543 -0.4415
13598TIP3    H162209   5.433   2.918  11.166  1.0065 -1.0980  0.0540
13598TIP3    H262210   5.466   3.066  11.174 -0.2738 -0.6344 -2.2844
13599TIP3   OH262211   0.075   3.827   2.231  0.4300  0.1593 -0.5517
13599TIP3    H162212   0.090   3.742   2.274 -0.3206  0.7214  0.8780
13599TIP3    H262213   0.005   3.810   2.168 -2.0306  0.3191  1.9499
13600TIP3   OH262214   4.372   5.470  15.541  0.0257  0.0340 -1.2558
13600TIP3    H162215   4.315   5.429  15.607 -1.0070  0.9775 -1.5239
13600TIP3    H262216   4.397   5.398  15.483 -1.9184 -0.2445 -1.8430
13601TIP3   OH262217   3.423   4.769   1.796 -0.3060 -0.7004 -0.1415
13601TIP3    H162218   3.338   4.729   1.785  1.2874 -4.1584 -1.2017
13601TIP3    H262219   3.429   4.789   1.890 -1.7722 -1.5773  0.1650
13602TIP3   OH262220   3.026   2.365  14.850 -0.3639 -0.0361  0.6341
13602TIP3    H162221   3.025   2.423  14.774  1.2017 -0.1761  0.4872
13602TIP3    H262222   2.946   2.313  14.840  0.7997 -1.4910 -2.0658
13603TIP3   OH262223   6.512   1.427  12.841  0.7352 -0.4677 -0.1864
13603TIP3    H162224   6.592   1.377  12.822  0.2888 -0.7469 -1.3509
13603TIP3    H262225   6.448   1.361  12.867  1.1576 -0.1534  1.8649
13604TIP3   OH262226   2.701   3.434   4.993 -0.4632  0.2085  0.2788
13604TIP3    H162227   2.632   3.476   5.043 -1.2531 -0.7436  0.0159
13604TIP3    H262228   2.668   3.430   4.904 -0.0978 -0.3071  0.1590
13605TIP3   OH262229   6.100   1.858   2.184 -0.8977 -0.4103  0.0184
13605TIP3    H162230   6.118   1.771   2.219  1.1577  0.7192  2.0388
13605TIP3    H262231   6.103   1.915   2.261  0.2058  1.7418 -1.5477
13606TIP3   OH262232   5.417   0.082  15.705  0.1668  0.4474  0.3162
13606TIP3    H162233   5.370  -0.002  15.702 -3.2090  2.1494 -3.3400
13606TIP3    H262234   5.367   0.134  15.768  0.4234  0.6576  0.3445
13607TIP3   OH262235   4.245   2.709  16.433  0.0092  0.3180  0.2419
13607TIP3    H162236   4.187   2.775  16.395  1.0326  0.3738 -1.3370
13607TIP3    H262237   4.230   2.631  16.380  1.4320  0.3792 -0.2984
13608TIP3   OH262238   1.834   1.875  11.779 -0.3258 -0.7215  0.8149
13608TIP3    H162239   1.774   1.925  11.834 -0.6914 -1.4616  1.1059
13608TIP3    H262240   1.782   1.849  11.703  0.3676  0.9086 -0.2763
13609TIP3   OH262241   6.753   6.254   5.443  0.3416  0.3710  0.2892
13609TIP3    H162242   6.774   6.294   5.527  1.0761 -1.5844  1.0802
13609TIP3    H262243   6.659   6.237   5.447 -0.2249  2.9033 -0.5069
13610TIP3   OH262244   5.840   5.712   0.986 -0.1601 -0.5222  0.5058
13610TIP3    H162245   5.809   5.798   0.960 -1.0774 -1.0124 -0.1093
13610TIP3    H262246   5.764   5.670   1.027  0.6238 -0.6006  1.9276
13611TIP3   OH262247   2.297   2.614  16.707 -0.1598  0.6697  0.2112
13611TIP3    H162248   2.302   2.708  16.725 -1.7760  0.6599  0.9373
13611TIP3    H262249   2.215   2.587  16.747 -0.1763 -0.8877 -0.7950
13612TIP3   OH262250   1.485   3.724   2.976  0.3552 -0.8630 -0.7262
13612TIP3    H162251   1.566   3.755   3.018 -0.7293  1.8357 -0.4525
13612TIP3    H262252   1.496   3.745   2.884 -0.9307  1.8452 -0.3488
13613TIP3   OH262253   4.739   5.277  13.143  0.6803 -0.0726 -0.3619
13613TIP3    H162254   4.770   5.319  13.063  1.9457 -0.8793 -0.3197
13613TIP3    H262255   4.772   5.187  13.137 -0.3355 -0.5197  0.4480
13614TIP3   OH262256   5.115   2.277   6.162  0.4311  0.2386 -0.3165
13614TIP3    H162257   5.054   2.203   6.160 -0.1455  0.3334  3.9048
13614TIP3    H262258   5.202   2.236   6.171  0.3936  0.0813 -0.6665
13615TIP3   OH262259   2.731   5.482   4.326  0.1479 -0.2898 -0.0449
13615TIP3    H162260   2.740   5.527   4.241  0.4089 -1.0383 -0.4225
13615TIP3    H262261   2.677   5.406   4.307 -0.5180 -0.0030  0.6509
13616TIP3   OH262262   2.981   4.155  12.923  0.0295 -0.0921  0.8631
13616TIP3    H162263   2.971   4.070  12.880  1.0616 -0.1204  0.6576
13616TIP3    H262264   3.024   4.210  12.858  0.9532  0.0755  1.5931
13617TIP3   OH262265   2.489   2.624  10.642 -0.0392 -0.2519 -0.0880
13617TIP3    H162266   2.578   2.590  10.649  0.8472  1.6443 -1.2166
13617TIP3    H262267   2.488   2.700  10.700 -0.4343  0.5935 -1.1665
13618TIP3   OH262268   5.761   2.714   2.075  0.7492  0.6684  1.1153
13618TIP3    H162269   5.840   2.665   2.051  1.2788  0.6294  2.8052
13618TIP3    H262270   5.705   2.708   1.997  2.5112  0.9506 -0.2566
13619TIP3   OH262271   5.557   5.701   1.507  0.8056  0.1241 -0.3963
13619TIP3    H162272   5.615   5.646   1.560  1.7519  0.4373 -1.0697
13619TIP3    H262273   5.617   5.751   1.451 -0.1450  0.1654 -1.4031
13620TIP3   OH262274   0.014   2.367   2.487 -0.1301  0.2567  0.3479
13620TIP3    H162275   0.105   2.397   2.492  0.1895 -0.6776  0.3446
13620TIP3    H262276  -0.019   2.375   2.576  0.1814 -0.0551  0.4971
13621TIP3   OH262277   1.189   2.269  11.512  0.1734  0.5538 -0.2703
13621TIP3    H162278   1.108   2.223  11.535 -1.0569  2.7338 -0.0121
13621TIP3    H262279   1.185   2.279  11.417  1.3685 -1.4297 -0.5842
13622TIP3   OH262280   0.991   4.739   2.168 -0.5955 -0.6420  0.4415
13622TIP3    H162281   0.970   4.829   2.192  0.4870 -0.0034 -0.8816
13622TIP3    H262282   0.954   4.686   2.239 -0.6200  0.8790  1.6164
13623TIP3   OH262283   2.396   1.073  17.107  0.2582 -0.0229 -0.0878
13623TIP3    H162284   2.344   1.100  17.182 -0.9301 -1.4380 -0.3587
13623TIP3    H262285   2.487   1.077  17.137 -0.2032 -0.5955  1.4324
13624TIP3   OH262286   2.822   0.683   5.608 -0.0332  0.0299  0.3126
13624TIP3    H162287   2.748   0.636   5.647  1.2664 -0.6674  2.0477
13624TIP3    H262288   2.789   0.772   5.596 -1.7733 -0.7179 -0.8358
13625TIP3   OH262289   1.012   2.033  13.225  0.7935  0.2113 -0.0619
13625TIP3    H162290   0.991   1.943  13.199 -3.2318  0.9927 -0.2423
13625TIP3    H262291   1.045   2.024  13.314  1.6261 -1.4792 -0.4787
13626TIP3   OH262292   6.696   5.059   2.942  0.1904  0.5111  0.3520
13626TIP3    H162293   6.662   4.973   2.919 -0.8939  1.0556 -0.1317
13626TIP3    H262294   6.621   5.106   2.978  0.5646  1.5377 -0.1836
13627TIP3   OH262295   2.646   3.362   3.701 -0.6517  0.1308  0.1164
13627TIP3    H162296   2.684   3.280   3.668  0.0674  0.5558 -0.1554
13627TIP3    H262297   2.722   3.418   3.717 -0.8474 -0.4148  3.6342
13628TIP3   OH262298   4.271   4.474  15.782  0.0919 -0.3889 -0.3975
13628TIP3    H162299   4.269   4.491  15.876 -0.6727  1.0397 -0.6470
13628TIP3    H262300   4.364   4.459  15.763  0.0870 -2.1504  0.7987
13629TIP3   OH262301   5.569   4.383   1.234 -0.4060 -0.4078 -0.4233
13629TIP3    H162302   5.643   4.385   1.294 -1.2598  0.8826  0.6598
13629TIP3    H262303   5.513   4.312   1.267  0.6709 -1.9340 -1.7253
13630TIP3   OH262304   1.688   3.989  13.698 -0.0510 -0.0377 -0.2511
13630TIP3    H162305   1.779   3.958  13.697 -0.3572 -1.1001  1.1938
13630TIP3    H262306   1.694   4.081  13.675  1.6421  0.4166  1.6503
13631TIP3   OH262307   0.401   5.237  13.028 -0.2345  0.0090 -0.0579
13631TIP3    H162308   0.330   5.218  12.967  0.6873  0.8729 -1.4403
13631TIP3    H262309   0.415   5.331  13.021 -1.5756  0.5966  3.1763
13632TIP3   OH262310   5.331   1.844   0.334 -0.0543 -0.5745 -0.0592
13632TIP3    H162311   5.426   1.845   0.345 -0.1126 -2.0294  0.7537
13632TIP3    H262312   5.298   1.896   0.407  0.1506  1.2819 -1.2267
13633TIP3   OH262313   3.185   6.577  17.055  0.6753 -0.3434  0.5696
13633TIP3    H162314   3.180   6.606  16.964 -2.4531  0.1723  0.8038
13633TIP3    H262315   3.204   6.657  17.104 -2.7523  0.5212  0.7297
13634TIP3   OH262316   0.777   4.778  11.410  0.2274 -0.3585 -0.2559
13634TIP3    H162317   0.779   4.825  11.493 -0.7947 -1.7500  0.5916
13634TIP3    H262318   0.721   4.831  11.354  1.3447  0.8687 -0.2739
13635TIP3   OH262319   1.875   3.179   6.063  0.0192  0.0810 -0.2946
13635TIP3    H162320   1.928   3.219   5.994  0.4690  0.4180  0.2353
13635TIP3    H262321   1.798   3.235   6.070 -0.3402 -0.3168 -0.9556
13636TIP3   OH262322   5.481   3.901  14.799 -0.4190 -0.1925  0.1303
13636TIP3    H162323   5.478   3.834  14.868 -0.2264  1.1192  1.4538
13636TIP3    H262324   5.570   3.935  14.802  1.0822 -3.0148 -3.7427
13637TIP3   OH262325   4.260   3.625   3.121  0.1559 -0.1942  0.1185
13637TIP3    H162326   4.233   3.661   3.205  0.2518 -0.9590  0.4780
13637TIP3    H262327   4.335   3.679   3.095 -0.0956  0.2679  0.3501
13638TIP3   OH262328   6.563   4.312   5.818 -0.1764 -0.2180  0.3621
13638TIP3    H162329   6.574   4.402   5.850  0.9740 -1.0094  2.4554
13638TIP3    H262330   6.652   4.284   5.796 -0.7049 -0.4060 -1.6807
13639TIP3   OH262331   3.211   2.705  12.425 -0.2800  0.2950  0.2845
13639TIP3    H162332   3.199   2.800  12.419 -1.0017  0.3145  1.6490
13639TIP3    H262333   3.122   2.671  12.433 -0.1486 -0.6638 -1.7495
13640TIP3   OH262334   0.706   2.595  11.889 -0.2355 -0.2594  0.0001
13640TIP3    H162335   0.647   2.554  11.953  1.3469 -1.0018  1.0260
13640TIP3    H262336   0.720   2.683  11.924 -0.3061 -0.2609  0.0331
13641TIP3   OH262337   5.241   2.656  12.127 -0.1258 -0.0906  0.3913
13641TIP3    H162338   5.242   2.751  12.115 -0.8593  0.0433  1.2713
13641TIP3    H262339   5.312   2.624  12.073 -0.7950  0.8264 -1.0855
13642TIP3   OH262340   4.664   1.859  15.304 -0.2246  0.4892 -0.1790
13642TIP3    H162341   4.726   1.790  15.280 -1.0663 -0.5589  0.6094
13642TIP3    H262342   4.720   1.931  15.335  0.6426  0.0368 -0.6564
13643TIP3   OH262343   1.118   0.499   2.854 -0.0511  0.0705 -0.4197
13643TIP3    H162344   1.152   0.531   2.937 -0.8234 -0.5064  0.1416
13643TIP3    H262345   1.179   0.532   2.788  0.1850  1.1258  0.2991
13644TIP3   OH262346   0.587   2.068   4.823 -0.1015  0.1128  0.0645
13644TIP3    H162347   0.496   2.067   4.853 -0.4496  1.7068 -0.8476
13644TIP3    H262348   0.585   2.023   4.739  0.1125 -0.5306  0.3934
13645TIP3   OH262349   0.058   5.328  16.175  0.5216  0.6980 -0.4196
13645TIP3    H162350  -0.032   5.308  16.146  1.4697 -0.3574 -2.9540
13645TIP3    H262351   0.101   5.361  16.096  1.6703  4.0220  1.3863
13646TIP3   OH262352   2.150   6.059   1.547 -0.5522 -0.3080 -0.3139
13646TIP3    H162353   2.119   5.994   1.484 -1.0739 -1.8047  1.4060
13646TIP3    H262354   2.158   6.011   1.629 -0.9295  1.8178  1.0430
13647TIP3   OH262355   0.367   1.961   0.723  0.2385 -0.1627  0.5467
13647TIP3    H162356   0.445   1.983   0.671  0.1711  1.0957  0.9580
13647TIP3    H262357   0.377   1.867   0.741 -0.2151 -0.9354 -2.5410
13648TIP3   OH262358   3.968   4.829  13.885 -0.0633  0.0803 -0.4515
13648TIP3    H162359   3.902   4.829  13.954  0.9519 -0.7633  0.5473
13648TIP3    H262360   4.030   4.897  13.910  1.5665 -1.7535  0.7731
13649TIP3   OH262361   2.423   2.159  12.488  0.1592  0.3930  0.0543
13649TIP3    H162362   2.389   2.163  12.399 -1.2471  0.8121  0.5769
13649TIP3    H262363   2.518   2.159  12.478  0.0314 -0.7921 -1.4793
13650TIP3   OH262364   6.736   5.419  10.635 -0.4265 -0.6640 -0.3563
13650TIP3    H162365   6.825   5.447  10.654  0.0529 -1.8300 -0.7899
13650TIP3    H262366   6.682   5.495  10.657  0.7569  0.4234 -1.0436
13651TIP3   OH262367   6.079   3.411   5.256  0.3881  0.0549  0.0738
13651TIP3    H162368   6.118   3.459   5.182  1.3918 -0.3379  0.3299
13651TIP3    H262369   5.990   3.392   5.227  0.7489 -0.0549 -1.0252
13652TIP3   OH262370   4.130   0.312  14.920 -0.1766 -0.3648  0.3219
13652TIP3    H162371   4.133   0.404  14.895 -0.7040 -1.0115 -2.4455
13652TIP3    H262372   4.210   0.297  14.970  0.5421  1.2977 -0.2968
13653TIP3   OH262373   2.805   1.446   3.773  0.1963  1.1179  0.1227
13653TIP3    H162374   2.882   1.503   3.776  0.8488  0.3940 -1.4487
13653TIP3    H262375   2.808   1.397   3.855  3.1623 -0.9936 -1.0600
13654TIP3   OH262376   2.389   4.585  15.084 -0.1984 -1.0334  0.1997
13654TIP3    H162377   2.304   4.628  15.095  0.8432  1.2468 -0.1344
13654TIP3    H262378   2.406   4.589  14.990  1.2899  0.6982  0.4925
13655TIP3   OH262379   3.292   6.651   5.898 -0.4816 -0.6286 -0.2229
13655TIP3    H162380   3.354   6.708   5.945 -1.9512 -1.1960  2.6263
13655TIP3    H262381   3.213   6.704   5.889 -0.5380 -0.8747 -1.2541
13656TIP3   OH262382   6.482   0.352  16.121  0.4332  0.2310 -0.5043
13656TIP3    H162383   6.511   0.271  16.163  2.8223  0.8884 -0.7411
13656TIP3    H262384   6.486   0.418  16.191  2.4085  0.9070 -1.1896
13657TIP3   OH262385   5.828   1.068   6.668 -0.1086 -0.2101  0.1705
13657TIP3    H162386   5.790   0.980   6.673 -1.2819  0.1927 -1.0052
13657TIP3    H262387   5.796   1.111   6.747  1.2462 -1.0889  1.2447
13658TIP3   OH262388   3.345   1.566  13.948  0.7617  0.2935 -0.1193
13658TIP3    H162389   3.278   1.632  13.930  1.0266  0.3283 -1.0281
13658TIP3    H262390   3.386   1.549  13.863  0.3750 -1.3928 -0.0190
13659TIP3   OH262391   2.805   6.218  11.574  0.0466 -0.1098  0.0264
13659TIP3    H162392   2.898   6.230  11.589  0.1932  0.4834 -1.2111
13659TIP3    H262393   2.763   6.291  11.619  0.3116  0.4967 -0.6858
13660TIP3   OH262394   3.555   2.326  15.159 -0.4172 -0.5057  0.9744
13660TIP3    H162395   3.545   2.298  15.250  1.8581  0.8993  1.7360
13660TIP3    H262396   3.510   2.411  15.155 -2.1548 -1.3943  0.2158
13661TIP3   OH262397   3.902   0.721   2.040 -0.1803  0.3227  0.1903
13661TIP3    H162398   3.878   0.746   1.951 -0.1415  0.4941  0.2271
13661TIP3    H262399   3.997   0.711   2.038 -0.0878  1.1208  0.4049
13662TIP3   OH262400   6.452   3.636   4.581  0.1631 -0.0830  0.3748
13662TIP3    H162401   6.426   3.620   4.490  1.0960 -1.0079  0.2534
13662TIP3    H262402   6.383   3.693   4.616 -1.3519 -1.4300 -0.2793
13663TIP3   OH262403   4.527   5.569   5.648  0.1259 -0.3803 -0.1701
13663TIP3    H162404   4.444   5.616   5.648  0.0513 -0.4406 -1.6190
13663TIP3    H262405   4.508   5.486   5.690 -0.4782 -0.2721 -0.2176
13664TIP3   OH262406   4.789   0.923   1.249 -0.6034 -0.1677 -0.0239
13664TIP3    H162407   4.873   0.968   1.248  0.0671 -1.3545  0.4927
13664TIP3    H262408   4.809   0.836   1.284 -2.2710 -0.0561  1.3101
13665TIP3   OH262409   0.612   3.036   5.213 -0.0523 -0.2855  0.0947
13665TIP3    H162410   0.561   3.116   5.200 -0.1858 -0.5495 -1.1747
13665TIP3    H262411   0.570   2.971   5.157  2.0030 -0.3545 -1.5196
13666TIP3   OH262412   5.364   3.295   5.926  0.7038 -0.1397  0.3690
13666TIP3    H162413   5.358   3.257   6.014  0.7303 -1.2333 -0.0803
13666TIP3    H262414   5.452   3.274   5.897  0.6727  0.1637  0.0576
13667TIP3   OH262415   3.020   2.152  10.786  0.0924 -0.2360  0.1417
13667TIP3    H162416   2.983   2.216  10.846  2.4931  1.5629 -0.1490
13667TIP3    H262417   2.950   2.089  10.772 -1.9402  1.5914  1.4861
13668TIP3   OH262418   3.436   6.421   1.501  0.4336 -0.1327 -0.3740
13668TIP3    H162419   3.450   6.367   1.579  0.5869  0.8802  0.3207
13668TIP3    H262420   3.492   6.497   1.515 -2.3855  1.9683  0.3855
13669TIP3   OH262421   2.199   2.120   1.449  0.2286  0.2456 -0.2186
13669TIP3    H162422   2.114   2.122   1.406  0.0438 -0.2848  0.1148
13669TIP3    H262423   2.235   2.209   1.436 -0.7517  0.7474  0.4063
13670TIP3   OH262424   5.133   3.349  14.624 -0.2484 -0.4383 -0.5115
13670TIP3    H162425   5.190   3.398  14.684 -0.9842 -1.0465  0.7330
13670TIP3    H262426   5.135   3.400  14.543 -1.2565  1.8850  0.8100
13671TIP3   OH262427   1.846   4.809  16.119 -0.8340  0.4801  0.4546
13671TIP3    H162428   1.880   4.896  16.138  0.4884  0.1522 -0.2399
13671TIP3    H262429   1.773   4.824  16.059 -0.1561  1.0863 -0.2402
13672TIP3   OH262430   4.914   4.513   5.411 -0.2863 -0.6104  0.0851
13672TIP3    H162431   4.925   4.427   5.452  0.2568 -0.4610  0.2533
13672TIP3    H262432   4.985   4.519   5.347 -0.8897 -0.6752 -0.6025
13673TIP3   OH262433   1.537   0.701  13.250  0.3689  0.2252  0.0368
13673TIP3    H162434   1.469   0.653  13.203  0.9963  0.8127 -1.5276
13673TIP3    H262435   1.497   0.785  13.272 -0.2245 -0.3877  1.4203
13674TIP3   OH262436   1.476   2.352   5.523  0.0817  0.0545 -0.0726
13674TIP3    H162437   1.485   2.316   5.611 -0.4466  1.7865  0.7211
13674TIP3    H262438   1.409   2.297   5.482  0.5127 -0.9269  0.4917
13675TIP3   OH262439   5.391   5.558   3.768  0.3094 -0.2417 -0.0517
13675TIP3    H162440   5.343   5.542   3.687 -0.9234  0.4225  0.5230
13675TIP3    H262441   5.470   5.605   3.740  0.7649 -1.5036 -1.0291
13676TIP3   OH262442   5.220   4.381  14.815  0.5740  0.5824 -0.2847
13676TIP3    H162443   5.180   4.462  14.784  0.7834  0.1471 -1.7864
13676TIP3    H262444   5.310   4.385  14.784  0.5168 -0.3281 -0.5912
13677TIP3   OH262445   3.240   1.577   4.627 -0.1948  0.2257  0.6553
13677TIP3    H162446   3.183   1.507   4.658  0.3845 -1.2900 -1.4435
13677TIP3    H262447   3.193   1.613   4.551  1.4140 -0.8582 -0.9297
13678TIP3   OH262448   0.203   3.190   0.645 -0.4498 -0.0996  0.5387
13678TIP3    H162449   0.241   3.126   0.585  3.0999  0.8043  1.5731
13678TIP3    H262450   0.242   3.274   0.618 -1.1015  0.7957  2.2448
13679TIP3   OH262451   2.412   6.748   1.366  0.1388 -0.2045  0.4647
13679TIP3    H162452   2.376   6.727   1.280 -0.3516  2.9120 -0.2175
13679TIP3    H262453   2.352   6.813   1.402  1.6981  0.4510  2.0392
13680TIP3   OH262454   6.372   2.528  15.624  0.5351  0.0050  0.3034
13680TIP3    H162455   6.277   2.540  15.625  0.5227  0.2243  2.7300
13680TIP3    H262456   6.388   2.468  15.551 -1.4394  0.0845 -0.2470
13681TIP3   OH262457   5.238   6.083  11.827 -0.0482 -0.5612 -0.1691
13681TIP3    H162458   5.173   6.028  11.785 -2.0582  1.4693  0.0696
13681TIP3    H262459   5.293   6.116  11.755 -2.5675  1.7562 -1.2053
13682TIP3   OH262460   4.258   2.148  14.656 -0.0182 -0.5598  0.0256
13682TIP3    H162461   4.274   2.209  14.584 -0.1800 -0.6435 -0.0835
13682TIP3    H262462   4.192   2.087  14.621  0.7195 -1.2784 -0.1576
13683TIP3   OH262463   2.214   3.299  12.975 -0.0702 -0.1905 -0.4437
13683TIP3    H162464   2.138   3.244  12.993 -0.4389 -0.3358 -2.1946
13683TIP3    H262465   2.186   3.388  12.996  0.0442 -0.4706  1.0113
13684TIP3   OH262466   1.410   4.435  13.023 -0.1477 -0.1855 -0.0406
13684TIP3    H162467   1.331   4.394  12.989 -0.3890 -0.4336  0.7891
13684TIP3    H262468   1.476   4.424  12.954 -1.0594  0.7750 -1.0944
13685TIP3   OH262469   4.874   1.051  14.234 -0.0540 -0.3146  0.3954
13685TIP3    H162470   4.847   1.101  14.311  1.2265 -1.9612  2.0022
13685TIP3    H262471   4.967   1.069  14.225  0.2421 -1.6880  0.4868
13686TIP3   OH262472   3.693   2.314   3.481 -0.6178 -0.3396 -0.2140
13686TIP3    H162473   3.644   2.293   3.401 -2.1530  0.7756  0.3847
13686TIP3    H262474   3.657   2.255   3.547 -0.3667 -0.2750 -0.0195
13687TIP3   OH262475   1.406   0.412  14.986  0.7426 -0.2712  0.7478
13687TIP3    H162476   1.408   0.435  15.079  1.9782 -0.0798  0.6898
13687TIP3    H262477   1.477   0.463  14.947 -1.0921  1.3092 -0.7301
13688TIP3   OH262478   1.302   4.842   1.157  0.0364 -0.4819 -0.5093
13688TIP3    H162479   1.240   4.914   1.148  0.2324 -0.1214  0.8228
13688TIP3    H262480   1.300   4.820   1.250  0.4696 -1.7666 -0.7766
13689TIP3   OH262481   1.826   0.316  16.450 -0.5404  0.1206 -0.2790
13689TIP3    H162482   1.800   0.327  16.359 -1.7436  1.1528  0.1653
13689TIP3    H262483   1.817   0.222  16.466 -1.8900  0.1418 -0.7899
13690TIP3   OH262484   0.528   0.768   0.860 -0.1433  0.1873  0.1997
13690TIP3    H162485   0.600   0.732   0.912  0.7488  2.5312  0.7047
13690TIP3    H262486   0.464   0.798   0.925  0.3328  1.8508 -0.0594
13691TIP3   OH262487   2.160   4.936  13.440 -0.0612  0.1016  0.5836
13691TIP3    H162488   2.201   4.915  13.355 -1.6567 -2.0370  0.2550
13691TIP3    H262489   2.150   5.031  13.439  1.7397  0.3401 -0.7591
13692TIP3   OH262490   0.561   3.916   0.719 -0.2133 -0.1246 -0.1038
13692TIP3    H162491   0.585   4.008   0.711 -1.0716  0.2912  1.7062
13692TIP3    H262492   0.489   3.904   0.656 -1.1570  0.8638  0.7484
13693TIP3   OH262493   3.746   4.611  15.445  0.0273  0.4547 -0.1641
13693TIP3    H162494   3.667   4.664  15.445 -0.0105  0.4267 -1.5008
13693TIP3    H262495   3.814   4.668  15.479 -1.1369 -0.5548  4.6502
13694TIP3   OH262496   2.667   2.434  11.424 -0.4811 -0.0687  0.6006
13694TIP3    H162497   2.731   2.363  11.426 -1.2892 -0.8711 -0.8242
13694TIP3    H262498   2.677   2.474  11.338 -0.8924  0.7729  0.9220
13695TIP3   OH262499   3.850   4.725   4.574 -0.4270  0.4980 -0.0839
13695TIP3    H162500   3.897   4.679   4.644 -0.3389 -0.6898 -0.9104
13695TIP3    H262501   3.910   4.723   4.500 -0.4068  2.0001 -0.1525
13696TIP3   OH262502   0.522   2.104   0.955  0.0766  0.5605 -0.9092
13696TIP3    H162503   0.437   2.108   0.912  0.2541  0.2299 -1.2993
13696TIP3    H262504   0.545   2.012   0.953 -0.3057  0.4033  0.6869
13697TIP3   OH262505   4.185   4.633   3.406 -0.1005 -0.1624  0.3999
13697TIP3    H162506   4.132   4.703   3.369 -0.7458 -0.4360  0.7862
13697TIP3    H262507   4.195   4.657   3.498 -0.0335 -0.4002  0.4562
13698TIP3   OH262508   0.527   2.611  10.551  0.6766 -0.2229 -0.5461
13698TIP3    H162509   0.467   2.555  10.502 -0.4461  1.3594 -1.0389
13698TIP3    H262510   0.569   2.551  10.613 -2.5318 -1.2143  0.9310
13699TIP3   OH262511   1.875   2.759  15.336 -0.3196  0.3767  0.2295
13699TIP3    H162512   1.939   2.721  15.397  0.2298 -2.0021 -1.7004
13699TIP3    H262513   1.821   2.685  15.308 -2.5741  1.9488  0.1066
13700TIP3   OH262514   2.292   1.949   0.228  0.5734  0.0354 -0.0275
13700TIP3    H162515   2.368   1.948   0.169  0.1263  1.0342 -0.6498
13700TIP3    H262516   2.218   1.970   0.170 -0.3089 -1.6235  0.4354
13701TIP3   OH262517   5.920   1.427   6.284  0.0366  0.6138  0.4353
13701TIP3    H162518   5.913   1.517   6.316  0.1458  1.1414 -0.9365
13701TIP3    H262519   5.883   1.373   6.354 -0.9406  1.8162  0.8838
13702TIP3   OH262520   5.440   0.801  12.459 -0.2524  0.2379 -0.3853
13702TIP3    H162521   5.455   0.881  12.508  2.0126 -0.1864 -0.2555
13702TIP3    H262522   5.377   0.751  12.511 -2.0610  2.0696 -0.7109
13703TIP3   OH262523   2.713   0.302   5.829 -0.3816  0.5025 -0.5543
13703TIP3    H162524   2.791   0.268   5.785 -0.4047 -0.6043  0.2042
13703TIP3    H262525   2.747   0.341   5.910 -0.7930 -3.1073  1.5934
13704TIP3   OH262526   2.296   4.614  14.544 -0.2015 -0.5194  0.0940
13704TIP3    H162527   2.388   4.602  14.567 -0.6668 -2.8235  1.0188
13704TIP3    H262528   2.295   4.620  14.449  0.7281 -3.3413 -0.1844
13705TIP3   OH262529   5.180   5.860   1.785 -0.1850  0.4327  0.4915
13705TIP3    H162530   5.085   5.871   1.777 -0.1520  0.7349  0.4794
13705TIP3    H262531   5.200   5.886   1.875 -0.3625 -1.5202  1.1325
13706TIP3   OH262532   5.726   5.697  16.960  0.0669  0.1274  0.3596
13706TIP3    H162533   5.707   5.734  16.874 -1.2562 -3.0463 -0.8323
13706TIP3    H262534   5.819   5.673  16.955 -0.2019 -0.7794 -0.5133
13707TIP3   OH262535   0.881   2.733   3.678 -0.1156  0.4478 -0.3073
13707TIP3    H162536   0.837   2.741   3.593 -0.1299 -1.1486 -0.4690
13707TIP3    H262537   0.902   2.823   3.702 -1.3961  1.0461 -1.3242
13708TIP3   OH262538   4.768   2.638  12.783  0.2522 -0.2111 -0.0437
13708TIP3    H162539   4.700   2.692  12.743  0.7113  0.2630 -0.1985
13708TIP3    H262540   4.777   2.564  12.724 -0.3299 -0.4214  0.1287
13709TIP3   OH262541   3.189   3.940  15.128  0.5253  0.7904  0.2529
13709TIP3    H162542   3.250   3.936  15.055 -1.7411  0.5205 -1.7368
13709TIP3    H262543   3.164   3.848  15.143  0.8982  0.8501  1.3505
13710TIP3   OH262544   3.535   3.061   1.356  0.0596  0.4405 -0.0728
13710TIP3    H162545   3.443   3.080   1.373  0.2158  0.0599  1.2918
13710TIP3    H262546   3.535   2.972   1.319 -0.2894  1.3205 -2.4064
13711TIP3   OH262547   3.597   5.731   1.262  0.4939 -0.1167  0.0304
13711TIP3    H162548   3.604   5.789   1.187  2.2930 -1.9525 -1.3142
13711TIP3    H262549   3.549   5.655   1.229  1.5568 -1.0784  0.6326
13712TIP3   OH262550   5.750   2.077   3.910 -0.0084  0.1621  0.1133
13712TIP3    H162551   5.667   2.043   3.878  0.3048 -0.1198 -0.4106
13712TIP3    H262552   5.808   2.001   3.915  0.2702  0.3830  0.3101
13713TIP3   OH262553   6.789   2.691   3.452  0.0444  0.4792  0.0239
13713TIP3    H162554   6.779   2.667   3.544 -0.3704 -0.5301 -0.2706
13713TIP3    H262555   6.866   2.642   3.423 -0.2636  0.2093 -0.3489
13714TIP3   OH262556   1.930   4.877  12.616  0.5709 -0.5985 -0.1839
13714TIP3    H162557   1.937   4.788  12.652 -0.8207 -0.8716 -0.5357
13714TIP3    H262558   1.907   4.931  12.692 -0.0065 -0.7873 -0.2164
13715TIP3   OH262559   2.293   3.898  16.601  0.5043 -0.2400  0.0845
13715TIP3    H162560   2.268   3.884  16.510 -1.6190  1.7552  0.2795
13715TIP3    H262561   2.247   3.829  16.650 -1.2465  0.7925 -0.0328
13716TIP3   OH262562   4.531   1.778  12.707  0.7524 -0.0897 -0.6606
13716TIP3    H162563   4.518   1.864  12.747 -0.8340 -0.4975 -0.1998
13716TIP3    H262564   4.600   1.737  12.759  0.8448  0.5486 -0.2743
13717TIP3   OH262565   6.468   5.904  11.842  0.1676 -0.2553  0.3371
13717TIP3    H162566   6.375   5.895  11.825  0.5053 -1.4903 -1.1043
13717TIP3    H262567   6.482   5.858  11.926 -1.0511  3.2752  2.6946
13718TIP3   OH262568   2.763   3.582   4.709  0.1593 -0.0495 -0.1130
13718TIP3    H162569   2.830   3.618   4.650  0.6859  0.9819  1.0617
13718TIP3    H262570   2.793   3.607   4.796 -1.2854 -0.3949  0.5046
13719TIP3   OH262571   1.710   3.768   6.436  0.4311  0.1621 -0.5856
13719TIP3    H162572   1.737   3.677   6.447 -0.5411 -0.2034 -1.1312
13719TIP3    H262573   1.711   3.782   6.342  0.0078  0.5353 -0.5356
13720TIP3   OH262574   0.144   0.293  15.613 -0.5906  0.7917 -0.2957
13720TIP3    H162575   0.186   0.232  15.553 -1.4334 -0.5284  0.3955
13720TIP3    H262576   0.206   0.302  15.685 -0.8070  0.0655 -0.0061
13721TIP3   OH262577   1.801   5.881   1.772  0.4327 -0.0547 -1.1456
13721TIP3    H162578   1.826   5.937   1.846 -0.3886 -0.4622 -0.5392
13721TIP3    H262579   1.857   5.804   1.781 -0.2669 -0.4925 -0.4184
13722TIP3   OH262580   2.664   6.428  11.737 -0.8715  0.4964  0.0591
13722TIP3    H162581   2.718   6.503  11.762 -0.3826 -0.2399  1.3028
13722TIP3    H262582   2.586   6.435  11.791 -0.6433 -0.0996  0.4772
13723TIP3   OH262583   3.679   5.515   0.106  0.4402 -0.1069  0.8446
13723TIP3    H162584   3.638   5.446   0.159  1.9499 -0.0070  2.2540
13723TIP3    H262585   3.727   5.568   0.170 -0.1884  1.9148 -0.2875
13724TIP3   OH262586   3.630   3.732   4.332  0.3488  0.3941  0.3532
13724TIP3    H162587   3.651   3.824   4.315 -1.3165  0.3779 -2.2667
13724TIP3    H262588   3.667   3.685   4.257  1.1142 -1.1250  1.6200
13725TIP3   OH262589   0.892   3.024   3.675 -0.1772 -0.1247 -0.2444
13725TIP3    H162590   0.819   3.034   3.736 -1.3050 -1.4350 -1.3159
13725TIP3    H262591   0.887   3.102   3.619 -1.4446 -0.7096 -0.9805
13726TIP3   OH262592   5.901   1.305  14.692  0.4303 -0.0528 -0.4472
13726TIP3    H162593   5.968   1.237  14.701 -0.3535 -0.7824 -0.0465
13726TIP3    H262594   5.819   1.258  14.686 -0.0764  0.8462 -0.7695
13727TIP3   OH262595   2.988   3.114   4.573  0.0769  0.0164  0.2590
13727TIP3    H162596   2.931   3.101   4.648 -0.8686  0.2052 -0.4094
13727TIP3    H262597   3.077   3.101   4.607 -0.3208  0.3331  1.4457
13728TIP3   OH262598   2.150   0.387  12.911  0.3787  0.1393  0.9778
13728TIP3    H162599   2.099   0.451  12.961 -2.0642  0.3987 -1.5332
13728TIP3    H262600   2.117   0.302  12.940  1.2547  0.1272  1.9851
13729TIP3   OH262601   0.115   2.963   3.161  0.0213  0.0122  0.6528
13729TIP3    H162602   0.020   2.950   3.155 -0.4079  2.1361  1.7710
13729TIP3    H262603   0.136   2.942   3.252  0.9360 -1.9079  0.0451
13730TIP3   OH262604   3.387   4.179  16.970 -0.1854 -0.3240  0.2862
13730TIP3    H162605   3.404   4.153  17.061 -0.0235  2.4209  1.1412
13730TIP3    H262606   3.309   4.130  16.945 -0.1077 -1.3070  1.8128
13731TIP3   OH262607   5.763   2.416   3.716 -0.2247 -0.5373  0.1329
13731TIP3    H162608   5.805   2.387   3.635 -0.0590  0.4336 -0.1407
13731TIP3    H262609   5.698   2.481   3.687  1.0785  1.1721  0.9036
13732TIP3   OH262610   0.127   2.424   5.316  0.1893 -0.6334  0.6866
13732TIP3    H162611   0.055   2.365   5.339  0.1752 -0.1795  1.8661
13732TIP3    H262612   0.084   2.503   5.283  0.2112 -1.3672 -1.2450
13733TIP3   OH262613   5.204   3.801  13.827 -0.1349 -0.7117 -0.2961
13733TIP3    H162614   5.214   3.708  13.807 -0.7049 -0.8135 -0.1338
13733TIP3    H262615   5.157   3.837  13.752  0.2219 -0.5190 -0.4305
13734TIP3   OH262616   3.033   6.678   4.771 -0.2810 -0.5432  0.2073
13734TIP3    H162617   2.946   6.640   4.786 -0.3689  0.2179  1.8236
13734TIP3    H262618   3.033   6.759   4.823  0.6724  0.5497 -1.4123
13735TIP3   OH262619   2.734   2.695  12.152  0.6204  0.2179 -0.3447
13735TIP3    H162620   2.642   2.721  12.159  0.4888 -0.2881 -0.1260
13735TIP3    H262621   2.782   2.763  12.199  0.2748  0.0377  0.2942
13736TIP3   OH262622   2.943   1.160  11.083  0.1249 -0.8884 -0.9338
13736TIP3    H162623   2.910   1.238  11.040  1.1548 -0.9951 -1.9789
13736TIP3    H262624   2.876   1.094  11.069 -0.9415 -0.1062  0.3141
13737TIP3   OH262625   6.641   0.218   1.261 -0.1785 -0.3883  0.1251
13737TIP3    H162626   6.676   0.306   1.276 -1.4552  0.0195  0.8420
13737TIP3    H262627   6.598   0.195   1.343 -0.5292 -1.3726 -0.3194
13738TIP3   OH262628   1.322   0.244  16.996  0.1542 -0.1610 -0.2090
13738TIP3    H162629   1.303   0.303  16.923 -2.0019 -1.3174 -0.6512
13738TIP3    H262630   1.357   0.302  17.065 -0.2443  1.3397 -1.2171
13739TIP3   OH262631   2.513   4.542   4.089  0.1864 -0.2012  0.3099
13739TIP3    H162632   2.495   4.448   4.099 -1.4864  0.0594  0.0562
13739TIP3    H262633   2.476   4.564   4.004  0.4682  0.7159  0.4189
13740TIP3   OH262634   6.049   0.349  13.519 -0.4443 -0.1594 -0.2212
13740TIP3    H162635   6.033   0.351  13.613 -1.2095  0.6355 -0.3586
13740TIP3    H262636   6.020   0.262  13.492  0.9081 -0.8535  0.4492
13741TIP3   OH262637   4.782   5.156  12.573 -0.0162 -0.2386 -0.5302
13741TIP3    H162638   4.722   5.105  12.518 -0.7240  1.5356 -1.4810
13741TIP3    H262639   4.826   5.216  12.512 -1.0374  1.9923  0.8126
13742TIP3   OH262640   4.779   1.525   6.930  0.2091  0.3020  0.1455
13742TIP3    H162641   4.776   1.524   6.835 -3.9091  2.7729  0.0220
13742TIP3    H262642   4.694   1.492   6.958  0.2590  2.1157  2.8297
13743TIP3   OH262643   1.369   2.805  14.068 -0.7580 -0.1484 -0.8045
13743TIP3    H162644   1.441   2.799  14.131  0.4963  2.2710 -1.8257
13743TIP3    H262645   1.296   2.843  14.117 -0.0991  0.8245 -0.5439
13744TIP3   OH262646   4.843   3.920   5.116 -0.5542 -0.6536 -0.0253
13744TIP3    H162647   4.871   3.954   5.201 -0.9009 -0.8783  0.1782
13744TIP3    H262648   4.783   3.986   5.082 -0.9475 -0.8841  0.2104
13745TIP3   OH262649   1.002   0.973  11.857 -0.1767  0.1288 -0.0335
13745TIP3    H162650   1.079   1.027  11.876  0.7622 -1.3061  0.3760
13745TIP3    H262651   0.956   1.021  11.788  0.0798  1.9429  0.9777
13746TIP3   OH262652   1.225   6.112  15.227  0.4309 -0.1108  0.2224
13746TIP3    H162653   1.234   6.196  15.182  1.2717 -1.0879 -1.5516
13746TIP3    H262654   1.295   6.114  15.293  1.7145 -0.1292 -1.0716
13747TIP3   OH262655   1.626   3.808   0.336 -0.7659  0.0893  0.2341
13747TIP3    H162656   1.624   3.767   0.423 -0.3242  0.1989  0.2993
13747TIP3    H262657   1.701   3.867   0.340 -0.4074 -0.3187 -0.4040
13748TIP3   OH262658   5.657   6.241  10.941 -0.3273 -0.0509  0.0281
13748TIP3    H162659   5.611   6.290  10.873 -0.4724  0.0385  0.1879
13748TIP3    H262660   5.724   6.301  10.973  1.4509 -0.9623 -1.7787
13749TIP3   OH262661   0.428   3.919  14.317  0.2314 -0.1551 -0.5537
13749TIP3    H162662   0.360   3.978  14.348  0.7388  0.0209  0.2301
13749TIP3    H262663   0.500   3.976  14.292  0.2191 -0.3621 -1.0823
13750TIP3   OH262664   5.652   6.736   4.393 -0.6576  0.0475 -0.2742
13750TIP3    H162665   5.691   6.823   4.398  0.2218 -0.3109 -0.7601
13750TIP3    H262666   5.598   6.729   4.472 -0.6706  0.9973 -0.1924
13751TIP3   OH262667   1.331   5.799  13.664  0.0428  0.0600  0.4134
13751TIP3    H162668   1.352   5.828  13.576  1.4276 -0.3232  0.5863
13751TIP3    H262669   1.306   5.879  13.711 -2.0160  0.0969 -0.6274
13752TIP3   OH262670   2.347   2.589   4.930 -0.3527 -0.0245  0.0046
13752TIP3    H162671   2.257   2.591   4.898 -0.0837  1.2044 -0.7303
13752TIP3    H262672   2.400   2.625   4.858  0.6182  0.0582  0.7309
13753TIP3   OH262673   3.369   1.235   5.454  0.2761 -0.1967  0.2713
13753TIP3    H162674   3.279   1.207   5.474  1.4938 -2.8169  2.8050
13753TIP3    H262675   3.367   1.330   5.466 -2.3653  0.0035 -0.9224
13754TIP3   OH262676   3.646   2.566   3.843 -0.2137 -0.3088 -0.0116
13754TIP3    H162677   3.622   2.474   3.859  1.0886 -0.6615  0.0287
13754TIP3    H262678   3.629   2.610   3.927  1.2944 -1.0029  0.6997
13755TIP3   OH262679   0.388   0.768  13.445 -0.7782  0.0463 -0.2910
13755TIP3    H162680   0.300   0.802  13.431 -1.2868 -1.4821 -1.0041
13755TIP3    H262681   0.404   0.780  13.539 -1.9246 -0.0815 -0.0711
13756TIP3   OH262682   6.599   1.170  15.589  0.0213 -0.4862  0.6689
13756TIP3    H162683   6.677   1.128  15.552  0.7112  0.9845  0.3686
13756TIP3    H262684   6.574   1.236  15.523 -0.8383 -0.2101  1.2480
13757TIP3   OH262685   1.638   5.478   2.512 -0.2306 -0.8569  0.7858
13757TIP3    H162686   1.722   5.441   2.486 -0.3821 -1.1527  0.7180
13757TIP3    H262687   1.661   5.558   2.560  0.0687 -0.5610  0.1599
13758TIP3   OH262688   2.030   1.861  13.790  0.8904  0.4361  0.0893
13758TIP3    H162689   1.999   1.819  13.871 -0.5367  0.7146 -0.2723
13758TIP3    H262690   1.978   1.820  13.721 -0.0501  2.2671 -0.3491
13759TIP3   OH262691   5.650   1.119  13.896  0.2398 -0.1211 -0.2221
13759TIP3    H162692   5.704   1.192  13.925  0.2800 -0.3721  0.3412
13759TIP3    H262693   5.575   1.160  13.854 -1.2673  0.3783  2.6852
13760TIP3   OH262694   4.988   1.877  13.022 -0.3703  0.2423 -0.4921
13760TIP3    H162695   4.943   1.814  13.078  0.6158 -0.5332 -0.5499
13760TIP3    H262696   4.958   1.963  13.054  0.2992 -0.1588  1.3838
13761TIP3   OH262697   0.742   2.649  13.929  0.1620 -0.4822  0.0614
13761TIP3    H162698   0.673   2.714  13.923  0.6248  0.0659  0.5816
13761TIP3    H262699   0.822   2.695  13.902  0.5251 -0.7663  0.6290
13762TIP3   OH262700   4.461   4.353   2.282  0.2981  0.0457 -0.4054
13762TIP3    H162701   4.483   4.276   2.230 -1.1717 -1.2406  0.7752
13762TIP3    H262702   4.430   4.417   2.218  1.1050 -0.4923 -1.3645
13763TIP3   OH262703   0.859   6.125   1.107  0.3398 -0.3035 -0.2909
13763TIP3    H162704   0.869   6.219   1.095 -1.3443  0.0441  0.6496
13763TIP3    H262705   0.796   6.116   1.179  0.2290 -2.1436 -0.5517
13764TIP3   OH262706   2.160   2.147   2.673 -0.1315  0.2681 -0.1190
13764TIP3    H162707   2.169   2.109   2.761 -0.7029 -0.8059 -0.5118
13764TIP3    H262708   2.069   2.132   2.649  0.0847  0.3010 -1.0068
13765TIP3   OH262709   1.457   6.720   2.573 -0.6925 -0.5796  0.3535
13765TIP3    H162710   1.413   6.665   2.508  1.3617 -1.5455 -0.2999
13765TIP3    H262711   1.539   6.746   2.531 -0.0609  0.1372  1.9537
13766TIP3   OH262712   5.745   5.267   0.633  0.3981 -0.5393 -0.6057
13766TIP3    H162713   5.687   5.332   0.593  2.8120  2.1077 -0.1410
13766TIP3    H262714   5.691   5.225   0.700 -1.3304  0.9547 -0.9655
13767TIP3   OH262715   1.964   0.883   1.677  0.3722 -0.0219 -0.3907
13767TIP3    H162716   1.996   0.949   1.616  2.4961 -1.4100 -0.8995
13767TIP3    H262717   1.998   0.911   1.762  1.4246 -0.4989 -0.6328
13768TIP3   OH262718   0.664   6.118   6.265  0.1390 -0.0602 -0.5115
13768TIP3    H162719   0.690   6.066   6.342  1.8156 -0.9857 -1.6390
13768TIP3    H262720   0.575   6.091   6.247 -1.1524  1.7415  2.3249
13769TIP3   OH262721   6.420   2.978   2.661 -0.2106  0.4757 -0.1572
13769TIP3    H162722   6.447   3.041   2.728 -0.2691 -0.3849  0.6800
13769TIP3    H262723   6.368   3.030   2.600 -1.8239  0.8950  1.4994
13770TIP3   OH262724   0.957   3.302   4.881  0.0340  0.9887  0.0746
13770TIP3    H162725   0.942   3.380   4.827  0.4811  2.1611  1.5938
13770TIP3    H262726   0.914   3.321   4.964  1.4991  0.2945  1.0333
13771TIP3   OH262727   3.181   1.229   3.660 -0.2294  0.0624  0.0727
13771TIP3    H162728   3.139   1.146   3.685  0.7201 -1.7162 -3.5572
13771TIP3    H262729   3.108   1.287   3.639 -1.1399 -1.9978 -3.2425
13772TIP3   OH262730   5.315   0.495  12.275 -0.3475  0.3749  0.5958
13772TIP3    H162731   5.313   0.585  12.243 -1.1114  0.2699  0.3283
13772TIP3    H262732   5.298   0.442  12.197 -3.1573  0.1481  1.2718
13773TIP3   OH262733   1.002   5.891   6.294  0.3873 -0.0434  0.0105
13773TIP3    H162734   1.012   5.958   6.362  1.8313 -0.2150  0.0123
13773TIP3    H262735   0.979   5.940   6.215 -0.6044  0.2263  0.4533
13774TIP3   OH262736   5.997   4.259   4.341  0.2035 -0.1906 -0.4267
13774TIP3    H162737   5.905   4.268   4.367 -0.6726 -0.1164 -3.2596
13774TIP3    H262738   6.041   4.331   4.385 -1.6843  1.6131 -1.3286
13775TIP3   OH262739   1.350   3.486  16.652  0.0514 -0.4865 -0.1539
13775TIP3    H162740   1.273   3.431  16.638 -0.5299  0.2415  0.1002
13775TIP3    H262741   1.371   3.521  16.566  1.2882 -2.1744 -0.6007
13776TIP3   OH262742   0.286   1.439  12.480  0.3845  0.1122 -0.2034
13776TIP3    H162743   0.202   1.439  12.435  0.3211  1.3570 -0.1199
13776TIP3    H262744   0.315   1.347  12.478 -2.2133 -0.8994  2.1341
13777TIP3   OH262745   4.338   3.787  13.088 -0.4384  0.5605 -0.3851
13777TIP3    H162746   4.280   3.729  13.137 -0.6705  2.8421  2.3366
13777TIP3    H262747   4.282   3.858  13.057  0.4234  1.3956 -0.1043
13778TIP3   OH262748   0.807   6.469  13.542 -0.5506  0.7713  0.0696
13778TIP3    H162749   0.836   6.464  13.451 -1.5570  0.6049 -0.2469
13778TIP3    H262750   0.773   6.558  13.552 -0.4907  0.7728  0.2734
13779TIP3   OH262751   2.003   4.301  11.776 -0.0047 -0.4474  0.1446
13779TIP3    H162752   2.067   4.253  11.724  0.5359  0.5709 -0.1515
13779TIP3    H262753   1.970   4.237  11.838  3.1162 -0.4852  2.0080
13780TIP3   OH262754   3.155   3.248   4.276  0.7855 -0.6258 -0.1888
13780TIP3    H162755   3.073   3.200   4.287  0.9919 -0.7013  1.1911
13780TIP3    H262756   3.166   3.257   4.182 -0.6708 -0.8594 -0.3930
13781TIP3   OH262757   0.395   4.227  10.695 -0.2125 -0.5600 -0.8059
13781TIP3    H162758   0.378   4.161  10.627 -2.0221 -0.1647 -0.7901
13781TIP3    H262759   0.349   4.305  10.664 -2.3010 -0.7455  1.4556
13782TIP3   OH262760   2.426   4.077  10.956 -0.0893  0.2241  0.1318
13782TIP3    H162761   2.392   4.126  11.031 -1.6491  0.6405 -0.7872
13782TIP3    H262762   2.370   4.105  10.883  2.4877  1.2344 -1.6079
13783TIP3   OH262763   3.385   2.442  11.561  0.5371  0.0625 -0.1857
13783TIP3    H162764   3.448   2.513  11.571 -0.3469  0.5696  2.6512
13783TIP3    H262765   3.329   2.470  11.488  1.0071  1.6367  0.0187
13784TIP3   OH262766   1.354   2.684   6.042  0.2198  0.1697 -0.3097
13784TIP3    H162767   1.367   2.692   5.947 -2.2675  2.2163 -0.5961
13784TIP3    H262768   1.418   2.743   6.080  0.6431  0.0096 -0.7620
13785TIP3   OH262769   3.120   2.499   0.326  0.2456  0.2400  0.8166
13785TIP3    H162770   3.062   2.553   0.380  1.6091  1.7636  0.8260
13785TIP3    H262771   3.112   2.411   0.363 -1.7807  0.4533  1.0165
13786TIP3   OH262772   5.998   2.860  13.382  0.0890 -0.2139  0.1661
13786TIP3    H162773   6.087   2.893  13.375 -0.7154  2.0846 -0.3259
13786TIP3    H262774   5.985   2.807  13.303  1.1105 -0.8636  0.4214
13787TIP3   OH262775   6.233   0.835   3.344  0.2681  0.7012 -0.3682
13787TIP3    H162776   6.211   0.743   3.331 -0.6613  1.2094 -2.9276
13787TIP3    H262777   6.255   0.842   3.437  0.6768 -2.1405 -0.1802
13788TIP3   OH262778   0.061   3.929  16.387  0.7451 -0.5256 -0.1116
13788TIP3    H162779   0.080   3.862  16.321  1.9152  1.0258 -1.4021
13788TIP3    H262780   0.059   3.880  16.470 -0.9742 -2.5467 -1.2496
13789TIP3   OH262781   5.135   6.706  12.106  0.4587 -0.2244 -1.3410
13789TIP3    H162782   5.186   6.657  12.042  2.3602  0.0866 -0.1513
13789TIP3    H262783   5.098   6.640  12.164 -0.7377 -0.4671 -2.3477
13790TIP3   OH262784   0.147   2.939  14.706 -0.1480  0.2073  0.5160
13790TIP3    H162785   0.171   3.030  14.726 -1.9551  0.3263  2.6107
13790TIP3    H262786   0.195   2.887  14.770  1.0791 -0.3679 -0.8454
13791TIP3   OH262787   5.660   4.963   0.785 -0.1608  0.1689  1.1997
13791TIP3    H162788   5.717   4.941   0.858 -0.4530  1.4731  1.8600
13791TIP3    H262789   5.637   4.879   0.745 -0.1938 -0.5816  2.7497
13792TIP3   OH262790   3.563   6.004  13.189  0.1840 -0.1134 -0.1727
13792TIP3    H162791   3.530   5.920  13.220  1.4758 -0.6644 -0.2229
13792TIP3    H262792   3.513   6.069  13.239 -0.0865 -0.9292  0.6555
13793TIP3   OH262793   5.295   2.344   0.442  0.1047 -0.7414 -0.2488
13793TIP3    H162794   5.244   2.288   0.500 -0.0667 -0.6981 -0.3597
13793TIP3    H262795   5.312   2.290   0.365  0.8268 -1.0021  0.0803
13794TIP3   OH262796   2.189   2.750  12.496  0.6054 -0.2797  0.5833
13794TIP3    H162797   2.245   2.814  12.451  1.3291 -0.6171  0.9792
13794TIP3    H262798   2.188   2.674  12.439 -1.4007  0.5297 -0.5830
13795TIP3   OH262799   3.030   0.611   1.939  0.2407 -1.0829  0.2582
13795TIP3    H162800   2.968   0.546   1.906 -0.0780 -0.8210  0.3409
13795TIP3    H262801   3.111   0.594   1.889  0.3801 -1.9900  0.7698
13796TIP3   OH262802   6.152   0.551  12.192 -0.5916 -0.1650 -0.6821
13796TIP3    H162803   6.084   0.520  12.132 -0.6016  2.4249 -2.1749
13796TIP3    H262804   6.105   0.606  12.255  0.0210  1.8636 -1.8841
13797TIP3   OH262805   1.468   0.935  16.812 -0.4553 -0.1233 -0.1369
13797TIP3    H162806   1.532   0.987  16.764 -0.7346  0.9991  0.6423
13797TIP3    H262807   1.413   0.895  16.745  0.2337 -0.0216 -0.7744
13798TIP3   OH262808   4.361   1.419  14.378  0.7952  0.3514  0.5384
13798TIP3    H162809   4.279   1.458  14.410  1.4065 -0.2470  3.0780
13798TIP3    H262810   4.430   1.471  14.419  1.6577 -0.7803  0.5862
13799TIP3   OH262811   6.451   1.829  16.278 -0.3242  0.6287  0.3618
13799TIP3    H162812   6.478   1.887  16.348  0.5294  2.0098 -1.0530
13799TIP3    H262813   6.513   1.846  16.207  0.2304 -2.3220  0.0126
13800TIP3   OH262814   5.529   1.364  17.043 -0.5232  0.0250  0.4891
13800TIP3    H162815   5.468   1.435  17.022  0.5356  0.4350 -1.5230
13800TIP3    H262816   5.580   1.397  17.117  0.6688  1.9057 -1.0577
13801TIP3   OH262817   1.857   2.391   0.434  0.6003  0.4016 -0.1615
13801TIP3    H162818   1.784   2.439   0.471  1.2514  2.7057 -1.6455
13801TIP3    H262819   1.820   2.347   0.358 -0.0289 -1.7041  1.2797
13802TIP3   OH262820   2.180   4.238   3.511  0.7753 -0.4261 -1.0423
13802TIP3    H162821   2.186   4.146   3.486  1.2965 -0.6908  0.0143
13802TIP3    H262822   2.230   4.284   3.443  0.8828 -0.9564 -1.3315
13803TIP3   OH262823   5.553   2.799   3.403 -0.4285 -0.2263  0.4486
13803TIP3    H162824   5.492   2.728   3.423 -0.8148 -0.0741 -0.1553
13803TIP3    H262825   5.560   2.798   3.307  0.9812 -0.6226  0.5357
13804TIP3   OH262826   2.815   2.297  13.546 -0.2478 -0.3595 -0.1344
13804TIP3    H162827   2.854   2.228  13.601 -0.8063 -0.0641  0.6333
13804TIP3    H262828   2.867   2.294  13.465  0.7453 -0.6294  0.4945
13805TIP3   OH262829   4.318   4.889  11.826  0.3414 -0.5032 -0.2322
13805TIP3    H162830   4.373   4.814  11.847 -0.5463 -1.6513 -1.7275
13805TIP3    H262831   4.234   4.869  11.867  0.0696 -0.3944 -0.7234
13806TIP3   OH262832   1.426   3.312   1.538 -0.0809  0.5678  1.0856
13806TIP3    H162833   1.440   3.279   1.627  1.6366  0.0413  0.6586
13806TIP3    H262834   1.512   3.338   1.508 -0.4832 -0.0115 -0.7194
13807TIP3   OH262835   5.538   5.328   1.064  0.3891  0.0889 -0.6143
13807TIP3    H162836   5.560   5.414   1.100 -1.7793  1.3072 -1.9903
13807TIP3    H262837   5.479   5.289   1.129  0.7011 -0.0281 -0.3943
13808TIP3   OH262838   0.289   6.525   4.669 -0.0306  0.5752 -0.4726
13808TIP3    H162839   0.212   6.555   4.621  0.7573  0.3335 -1.9469
13808TIP3    H262840   0.271   6.433   4.689  0.2989  0.2062 -1.7732
13809TIP3   OH262841   2.483   5.035   3.090  0.0520 -0.4897 -0.0164
13809TIP3    H162842   2.510   5.099   3.155  0.0022 -1.2090  0.7251
13809TIP3    H262843   2.515   5.071   3.007  0.0688  0.4615  0.3889
13810TIP3   OH262844   4.829   6.466   0.129  0.4473 -0.2187  0.3053
13810TIP3    H162845   4.870   6.390   0.170  1.4916 -0.5746 -1.2947
13810TIP3    H262846   4.891   6.492   0.060 -0.5378  1.2369 -0.0724
13811TIP3   OH262847   6.392   4.133   0.583 -0.0679  0.0231 -0.4146
13811TIP3    H162848   6.342   4.096   0.656  0.8693  1.2058  0.8753
13811TIP3    H262849   6.472   4.166   0.623  1.2469 -0.7767 -2.2620
13812TIP3   OH262850   0.033   5.305   0.741  0.0504  0.1857  0.0643
13812TIP3    H162851   0.045   5.294   0.836  0.0385  0.6457  0.1190
13812TIP3    H262852  -0.054   5.270   0.724 -0.2004  0.6705  0.3251
13813TIP3   OH262853   4.665   5.834  14.335 -0.0081  0.1711 -0.3561
13813TIP3    H162854   4.730   5.891  14.295  0.4050  0.4356  0.6749
13813TIP3    H262855   4.716   5.763  14.375 -0.3458  0.3416  0.3958
13814TIP3   OH262856   3.312   5.884  12.669 -0.0812  0.3983  0.6715
13814TIP3    H162857   3.362   5.931  12.602  0.6607 -0.6892  0.4348
13814TIP3    H262858   3.226   5.871  12.629  0.3034 -0.1028 -0.0184
13815TIP3   OH262859   1.101   2.621   4.507 -0.5270 -0.5518  0.6940
13815TIP3    H162860   1.080   2.547   4.563 -0.8310 -1.4991 -0.6200
13815TIP3    H262861   1.191   2.604   4.477 -0.4673 -0.1984  0.6634
13816TIP3   OH262862   1.808   1.008  14.789 -0.1817  0.0989 -0.0805
13816TIP3    H162863   1.755   0.972  14.859  1.7749  0.2820  1.5786
13816TIP3    H262864   1.828   0.933  14.733 -1.0438 -0.2054  0.0050
13817TIP3   OH262865   0.676   5.567   2.612 -0.1044 -0.0153  0.1979
13817TIP3    H162866   0.718   5.639   2.659  1.6534 -0.3629 -0.7475
13817TIP3    H262867   0.633   5.516   2.680 -0.9891  1.6435  0.9422
13818TIP3   OH262868   4.197   4.627  12.255 -0.0729  0.8280  0.4746
13818TIP3    H162869   4.126   4.605  12.316 -0.2094  0.9906  0.3749
13818TIP3    H262870   4.276   4.623  12.309  0.0021 -0.6520  0.2920
13819TIP3   OH262871   5.429   1.953  16.147  0.5763 -0.3800  0.1321
13819TIP3    H162872   5.394   2.027  16.097 -1.3431 -0.3939  1.3633
13819TIP3    H262873   5.430   1.984  16.238  1.3099 -1.3061  0.4458
13820TIP3   OH262874   5.229   2.596   3.198 -0.1519  0.5444 -0.4322
13820TIP3    H162875   5.207   2.646   3.120 -0.9903 -0.7509 -1.0710
13820TIP3    H262876   5.146   2.558   3.227  0.2902  0.3153  0.5958
13821TIP3   OH262877   5.799   5.835  12.871  0.7269 -0.3265 -1.0315
13821TIP3    H162878   5.866   5.880  12.819  2.0807 -0.7894  0.2502
13821TIP3    H262879   5.790   5.749  12.830  1.5703 -0.5820 -0.7088
13822TIP3   OH262880   0.486   3.459  12.571 -0.2925  0.2987  0.0762
13822TIP3    H162881   0.544   3.475  12.646 -0.9700 -0.1139  0.7045
13822TIP3    H262882   0.515   3.522  12.505 -1.4968  2.7113  1.6939
13823TIP3   OH262883   6.377   3.036  14.865  0.2274  0.2186 -0.0356
13823TIP3    H162884   6.423   3.017  14.783 -0.2694  0.9375 -0.4860
13823TIP3    H262885   6.292   2.991  14.855  1.0154 -1.6296  1.0450
13824TIP3   OH262886   4.504   0.833  13.518 -0.3268 -0.5183 -0.2450
13824TIP3    H162887   4.437   0.782  13.563 -0.5357 -1.1919 -1.2768
13824TIP3    H262888   4.567   0.855  13.586  1.5444 -4.9644 -0.1543
13825TIP3   OH262889   4.979   1.310   4.563  0.4997  0.2857  0.1199
13825TIP3    H162890   4.919   1.362   4.509 -0.4965  0.9218  1.7747
13825TIP3    H262891   4.924   1.241   4.600  1.2177 -0.2809  0.1523
13826TIP3   OH262892   6.386   4.541  13.028  0.6400 -0.1327 -0.0919
13826TIP3    H162893   6.465   4.502  13.066  0.3762  1.1399  1.9183
13826TIP3    H262894   6.336   4.466  12.996  1.8045 -1.1238  0.3245
13827TIP3   OH262895   2.770   6.147  11.963 -0.0199 -0.5145  0.0528
13827TIP3    H162896   2.720   6.225  11.986  0.8656  0.3484 -0.9096
13827TIP3    H262897   2.708   6.092  11.914 -0.5704 -0.3370  0.5308
13828TIP3   OH262898   3.239   2.419   4.396  0.1806  0.6096 -0.0945
13828TIP3    H162899   3.146   2.400   4.413  0.1834 -1.1516 -1.7289
13828TIP3    H262900   3.238   2.500   4.346 -0.5998 -0.1219 -1.3076
13829TIP3   OH262901   2.547   6.064   2.604 -0.0497 -0.8887  0.4040
13829TIP3    H162902   2.610   6.003   2.642  0.0567 -0.4158  1.0073
13829TIP3    H262903   2.465   6.014   2.599  0.4405 -1.6095 -0.6895
13830TIP3   OH262904   1.201   2.879  12.794  0.0030  0.1792  0.0238
13830TIP3    H162905   1.285   2.841  12.821  0.2396  0.1952 -0.6917
13830TIP3    H262906   1.144   2.803  12.780  0.4717  0.0642 -1.3924
13831TIP3   OH262907   4.354   6.219  16.289 -0.1398  0.2778 -0.1505
13831TIP3    H162908   4.418   6.255  16.228 -1.5716  1.9195 -0.7650
13831TIP3    H262909   4.345   6.285  16.357 -1.1001  0.0453 -0.0241
13832TIP3   OH262910   0.088   1.222  14.195 -0.1170 -0.2495 -0.0012
13832TIP3    H162911   0.171   1.256  14.163 -0.1583  0.0198  0.1807
13832TIP3    H262912   0.099   1.127  14.193 -0.0006 -0.2313 -0.4994
13833TIP3   OH262913   3.713   2.914  12.048 -0.4333  0.0222  0.3296
13833TIP3    H162914   3.704   2.822  12.073 -0.3587 -0.8084 -2.3900
13833TIP3    H262915   3.801   2.938  12.075  0.1251 -1.2199 -0.3339
13834TIP3   OH262916   5.517   5.158  12.685 -0.4525 -0.0600 -0.2432
13834TIP3    H162917   5.467   5.229  12.645 -2.4534 -0.9794  0.4925
13834TIP3    H262918   5.557   5.197  12.762  1.4304  1.1088 -1.7216
13835TIP3   OH262919   0.968   1.519   2.142  0.1777 -0.0641  0.3952
13835TIP3    H162920   1.008   1.603   2.162  2.4464 -0.3437 -2.4368
13835TIP3    H262921   1.001   1.460   2.210 -0.3610  0.9586  1.6036
13836TIP3   OH262922   1.254   6.045  16.422  0.0569 -0.1545 -0.2023
13836TIP3    H162923   1.292   6.133  16.424  1.3526 -0.7066  0.1863
13836TIP3    H262924   1.290   6.005  16.343 -0.8966 -0.1962 -0.6294
13837TIP3   OH262925   2.115   6.134  16.309 -0.2465  0.2940 -0.3266
13837TIP3    H162926   2.102   6.176  16.394 -0.5350 -0.7893  0.1948
13837TIP3    H262927   2.138   6.044  16.331 -0.1630  0.0424 -1.4011
13838TIP3   OH262928   3.553   4.196   4.353 -0.0532  0.3096 -0.4140
13838TIP3    H162929   3.591   4.217   4.439 -1.0694 -1.7258  0.5972
13838TIP3    H262930   3.624   4.156   4.304  0.8042  2.3478 -0.9359
13839TIP3   OH262931   2.712   2.400   4.766  0.3000 -0.5613 -0.2959
13839TIP3    H162932   2.700   2.453   4.687  1.1779  1.5796  0.8977
13839TIP3    H262933   2.623   2.385   4.797  0.0077  0.1273 -0.7518
13840TIP3   OH262934   3.615   3.803   5.177 -0.5991 -0.2865 -0.2788
13840TIP3    H162935   3.562   3.803   5.097  0.3427  0.3944 -0.9248
13840TIP3    H262936   3.554   3.780   5.246 -1.5627 -0.3181 -1.1189
13841TIP3   OH262937   1.747   3.600  16.133  0.6390  0.2718 -0.0204
13841TIP3    H162938   1.771   3.519  16.177  2.4128 -0.0261 -1.3899
13841TIP3    H262939   1.793   3.668  16.181 -0.4222  0.4319  0.8033
13842TIP3   OH262940   4.619   0.686   1.514 -0.1822 -0.3347 -0.6986
13842TIP3    H162941   4.619   0.666   1.608 -0.8147 -0.3446 -0.6926
13842TIP3    H262942   4.561   0.762   1.507 -0.4183 -0.5554 -1.1288
13843TIP3   OH262943   6.481   6.696   0.595  0.5988 -0.4893 -0.0541
13843TIP3    H162944   6.451   6.609   0.569  1.4763 -0.9127  0.3144
13843TIP3    H262945   6.572   6.684   0.621  0.3430  0.2795  1.3095
13844TIP3   OH262946   1.669   0.450  14.226 -0.2858 -0.7385  0.1570
13844TIP3    H162947   1.720   0.395  14.286 -0.1953 -0.7613  0.0598
13844TIP3    H262948   1.686   0.539  14.255  0.0231 -0.7303 -0.0391
13845TIP3   OH262949   3.209   5.783  13.062  0.0347  0.0723 -0.4003
13845TIP3    H162950   3.233   5.804  13.153  0.1762  2.1801 -0.8779
13845TIP3    H262951   3.267   5.711  13.039  0.5534  0.0162  0.9465
13846TIP3   OH262952   3.992   0.803   4.344  0.6501  0.3047  0.0498
13846TIP3    H162953   3.924   0.749   4.385 -0.1955 -0.2877 -2.0157
13846TIP3    H262954   3.960   0.893   4.355 -0.1120  0.0808 -0.2400
13847TIP3   OH262955   0.644   2.818  16.400  0.7353 -0.0256  0.4179
13847TIP3    H162956   0.599   2.837  16.482  0.9267  0.5133  0.3975
13847TIP3    H262957   0.725   2.867  16.405  1.7684 -1.6783  0.8468
13848TIP3   OH262958   5.067   3.376   1.469 -0.2874  0.7718 -0.9438
13848TIP3    H162959   5.007   3.447   1.492 -1.9127 -0.7557 -0.2909
13848TIP3    H262960   5.014   3.296   1.475  1.9242 -0.7085  0.1901
13849TIP3   OH262961   4.160   6.429  12.068  0.2664  0.4751 -0.4671
13849TIP3    H162962   4.207   6.511  12.057  0.4713  0.1655 -2.1347
13849TIP3    H262963   4.216   6.376  12.124 -0.7914  2.1326  2.3748
13850TIP3   OH262964   6.459   4.080  11.917 -0.4298  0.4558  0.2561
13850TIP3    H162965   6.541   4.116  11.951  0.9431 -0.7716 -1.5538
13850TIP3    H262966   6.402   4.156  11.905  1.0503  1.5571 -0.0215
13851TIP3   OH262967   4.732   3.908   0.288 -0.2791  0.3502 -0.2054
13851TIP3    H162968   4.709   3.975   0.352 -1.2506  0.4293 -0.6302
13851TIP3    H262969   4.662   3.843   0.294  0.7941 -0.7955  0.4109
13852TIP3   OH262970   1.364   1.982   4.598 -0.3786 -0.0824  0.2648
13852TIP3    H162971   1.338   1.900   4.556 -1.4236  0.9266 -1.1572
13852TIP3    H262972   1.457   1.992   4.578 -0.5179 -0.3648 -0.5342
13853TIP3   OH262973   5.676   4.070   2.859  0.1690 -0.1525  0.0162
13853TIP3    H162974   5.653   4.112   2.776 -0.3709 -2.0078 -0.8145
13853TIP3    H262975   5.651   4.134   2.926 -1.7860  0.3762 -1.1468
13854TIP3   OH262976   1.486   2.646   5.645  0.0615 -0.2165 -0.0900
13854TIP3    H162977   1.469   2.575   5.707 -1.6404  0.6479  0.5256
13854TIP3    H262978   1.435   2.623   5.568  1.4043 -0.8063 -0.8264
13855TIP3   OH262979   1.800   5.804  14.942 -0.0558 -0.2642 -0.1595
13855TIP3    H162980   1.841   5.799  14.855 -1.5189 -1.1425 -0.8300
13855TIP3    H262981   1.771   5.715  14.960 -2.8041  0.5229 -0.2874
13856TIP3   OH262982   1.984   6.709   5.869  0.3515  0.3408  0.0816
13856TIP3    H162983   2.073   6.675   5.878 -0.1651 -1.1263  0.0194
13856TIP3    H262984   1.946   6.698   5.957 -0.1596 -0.2876 -0.2077
13857TIP3   OH262985   6.706   1.495  10.761  0.4622  0.2627 -0.1011
13857TIP3    H162986   6.748   1.486  10.675 -2.7145  0.3337 -1.8197
13857TIP3    H262987   6.662   1.412  10.774  1.3887  0.0226  1.8457
13858TIP3   OH262988   4.123   6.525   2.098  0.0973  0.7237  0.1970
13858TIP3    H162989   4.119   6.437   2.061  0.8969  0.4875  0.6646
13858TIP3    H262990   4.089   6.515   2.187  0.6459  0.7964  0.4149
13859TIP3   OH262991   1.226   3.859  16.382 -0.2016 -0.5638  0.2232
13859TIP3    H162992   1.233   3.938  16.435 -1.2789 -0.3954  0.1272
13859TIP3    H262993   1.310   3.815  16.394  0.6276  0.8511 -0.1580
13860TIP3   OH262994   4.753   1.282   5.304 -0.3591  0.0762  0.1056
13860TIP3    H162995   4.796   1.197   5.313  0.7060  0.6900  1.0330
13860TIP3    H262996   4.803   1.340   5.361 -1.5245  1.1636  0.0534
13861TIP3   OH262997   0.423   2.630   5.654 -0.5960  0.1341  0.3024
13861TIP3    H162998   0.518   2.635   5.663 -0.5286  1.3697 -0.8304
13861TIP3    H262999   0.409   2.593   5.567 -1.1766 -1.0495  0.8724
13862TIP3   OH263000   3.138   0.878   2.892 -0.0083 -0.3052  0.0981
13862TIP3    H163001   3.205   0.862   2.826  0.3656  0.9057  0.1594
13862TIP3    H263002   3.095   0.794   2.904  0.5528 -0.7569 -0.9898
13863TIP3   OH263003   5.803   5.237  15.779  0.1335  0.1740  0.1894
13863TIP3    H163004   5.731   5.293  15.750  0.5684  0.4071 -0.4604
13863TIP3    H263005   5.776   5.206  15.865 -0.3627  0.9331  0.3169
13864TIP3   OH263006   4.575   3.983  13.932 -0.6806  0.0618 -0.2443
13864TIP3    H163007   4.591   4.068  13.890 -0.5948  0.4795  0.6254
13864TIP3    H263008   4.485   3.961  13.907 -0.8248  0.5706 -0.1859
13865TIP3   OH263009   0.430   3.707   5.993  0.0078 -0.4449 -0.4369
13865TIP3    H163010   0.470   3.627   5.959  2.3017  0.7972 -0.8275
13865TIP3    H263011   0.459   3.712   6.084 -1.3247 -0.7558  0.0303
13866TIP3   OH263012   3.728   5.566  11.744 -1.0264  0.1148 -0.1123
13866TIP3    H163013   3.692   5.648  11.778 -1.0168 -0.0622  0.3303
13866TIP3    H263014   3.656   5.528  11.693 -1.0553  0.3593 -0.2584
13867TIP3   OH263015   6.772   1.305   5.120  0.3390  0.0287  0.3406
13867TIP3    H163016   6.745   1.216   5.097 -1.4309  0.4935  0.4674
13867TIP3    H263017   6.811   1.339   5.040 -1.9956  0.2184 -0.8100
13868TIP3   OH263018   1.317   1.987  17.176  0.3046  0.1027 -0.2016
13868TIP3    H163019   1.383   1.925  17.206 -0.6278 -0.8198 -0.0101
13868TIP3    H263020   1.356   2.027  17.097  0.5359 -1.4169 -0.8869
13869TIP3   OH263021   5.026   6.755  12.609 -0.2927  0.2443  0.2746
13869TIP3    H163022   5.104   6.761  12.554 -1.4340 -0.9566 -1.5926
13869TIP3    H263023   4.993   6.845  12.614 -0.9575  0.2174 -2.3367
13870TIP3   OH263024   0.406   5.114   2.969  0.5598 -0.3873 -0.0618
13870TIP3    H163025   0.489   5.159   2.988  0.5958 -0.7827  0.7299
13870TIP3    H263026   0.430   5.022   2.964  0.0026 -0.6058  1.1560
13871TIP3   OH263027   0.479   0.299  16.944  0.4075  0.1969 -0.0245
13871TIP3    H163028   0.440   0.223  16.987 -0.8364  1.5089  1.2632
13871TIP3    H263029   0.520   0.263  16.865 -0.4966 -1.7398  0.3235
13872TIP3   OH263030   1.499   3.696   1.001  0.0206  0.0776  0.1504
13872TIP3    H163031   1.418   3.647   1.016  0.2386  0.0599  1.4202
13872TIP3    H263032   1.499   3.763   1.069  1.1886 -0.0752  0.3291
13873TIP3   OH263033   4.772   6.014   0.365  0.1018 -0.4110 -0.0150
13873TIP3    H163034   4.772   6.066   0.446 -2.0233  1.0469 -0.8394
13873TIP3    H263035   4.679   6.002   0.345  0.5108 -3.5585 -0.5649
13874TIP3   OH263036   5.069   5.458  13.881 -0.0941  0.3455 -0.1331
13874TIP3    H163037   5.104   5.373  13.855  0.2107  0.1509  0.8640
13874TIP3    H263038   4.974   5.444  13.886 -0.2942  0.6889 -2.1696
13875TIP3   OH263039   1.615   1.749   2.992  0.1915 -0.0176  0.4754
13875TIP3    H163040   1.571   1.807   3.054 -0.8674  1.3685 -1.4773
13875TIP3    H263041   1.706   1.780   2.990  0.4252 -0.5527  1.8314
13876TIP3   OH263042   2.739   4.716   2.641 -0.3909  0.1716 -0.0004
13876TIP3    H163043   2.652   4.741   2.670 -0.2935 -0.0745  0.5164
13876TIP3    H263044   2.795   4.791   2.662 -0.5680  0.5473 -0.8219
13877TIP3   OH263045   4.853   2.539   2.285  0.1972 -0.0243  0.2632
13877TIP3    H163046   4.792   2.570   2.351  0.7307 -2.1194  1.8404
13877TIP3    H263047   4.940   2.551   2.324  0.7467  1.2658 -1.2316
13878TIP3   OH263048   1.483   1.123   3.751  0.0213 -0.5217 -0.0114
13878TIP3    H163049   1.539   1.161   3.683  0.3761 -0.0720  0.5283
13878TIP3    H263050   1.394   1.143   3.723  0.2153  2.3664  1.1713
13879TIP3   OH263051   3.154   2.279  14.446  0.4220 -0.1094  0.0316
13879TIP3    H163052   3.203   2.197  14.446 -1.3128 -1.2062 -0.0953
13879TIP3    H263053   3.171   2.318  14.532 -1.6855 -2.5264  1.6740
13880TIP3   OH263054   6.118   0.836  15.648 -0.2891 -0.5583 -0.0990
13880TIP3    H163055   6.199   0.790  15.670 -0.4267 -0.7485  0.0047
13880TIP3    H263056   6.085   0.867  15.732 -0.3587 -0.5376 -0.1342
13881TIP3   OH263057   1.694   5.463  14.182  0.4992  0.5233 -0.4061
13881TIP3    H163058   1.754   5.534  14.204  1.9569 -0.9033  0.4828
13881TIP3    H263059   1.678   5.419  14.265 -1.7128  0.7573 -0.6557
13882TIP3   OH263060   3.006   1.533  16.216  0.0410 -0.3517 -0.3754
13882TIP3    H163061   2.977   1.511  16.304 -1.3402  0.6645 -0.5345
13882TIP3    H263062   3.056   1.615  16.226 -0.2518 -0.1495 -0.5474
13883TIP3   OH263063   6.304   2.973  11.391  0.2894 -0.4992  0.0064
13883TIP3    H163064   6.279   3.065  11.379  0.7249 -0.3534  0.2013
13883TIP3    H263065   6.306   2.938  11.302 -0.0211 -0.3588 -0.0579
13884TIP3   OH263066   5.875   3.730   4.416 -0.0847 -0.1700 -0.7228
13884TIP3    H163067   5.951   3.779   4.386  0.2501  0.2867  0.7995
13884TIP3    H263068   5.806   3.796   4.425  0.3946  0.1135  1.4257
13885TIP3   OH263069   6.758   5.209   3.427  0.1473  0.0622  0.3224
13885TIP3    H163070   6.822   5.191   3.357  0.6180  0.6020  0.6073
13885TIP3    H263071   6.810   5.251   3.496 -0.6950  1.4586  0.1419
13886TIP3   OH263072   5.994   0.533  11.666  0.2859  0.3252  0.0409
13886TIP3    H163073   5.933   0.588  11.617  0.2462  0.9183  0.7455
13886TIP3    H263074   6.052   0.595  11.710  0.6430 -0.2110  0.3343
13887TIP3   OH263075   0.327   5.826   5.250  0.0877 -0.1582  0.2429
13887TIP3    H163076   0.281   5.858   5.327 -0.2090 -1.5403  0.6733
13887TIP3    H263077   0.292   5.877   5.177  1.0761  1.8583  1.1044
13888TIP3   OH263078   3.803   6.702   5.731 -0.8312  0.2038 -0.0266
13888TIP3    H163079   3.891   6.713   5.768  0.3342 -1.0785 -2.1627
13888TIP3    H263080   3.774   6.617   5.764  0.6564 -1.4546 -2.6121
13889TIP3   OH263081   3.884   2.584  13.180 -0.5583  0.4586 -0.2117
13889TIP3    H163082   3.844   2.503  13.213 -1.3875  1.0185  0.1730
13889TIP3    H263083   3.811   2.646  13.172 -0.1041  0.8615 -1.5083
13890TIP3   OH263084   5.257   1.327   0.917 -0.4034 -0.0783  0.0049
13890TIP3    H163085   5.270   1.301   0.825  0.7264  0.1491  0.0826
13890TIP3    H263086   5.293   1.416   0.921 -0.0691 -0.2461  0.7638
13891TIP3   OH263087   6.667   4.811  11.102 -0.0352  0.1449  0.1170
13891TIP3    H163088   6.723   4.831  11.027 -0.7823 -0.5284 -0.6467
13891TIP3    H263089   6.588   4.863  11.087 -0.1277  0.1224  0.5215
13892TIP3   OH263090   4.112   1.632   1.827 -0.5593  0.2842  0.4065
13892TIP3    H163091   4.114   1.714   1.875 -2.7337  0.6323 -0.0049
13892TIP3    H263092   4.204   1.606   1.820 -0.0600  0.5410  4.0759
13893TIP3   OH263093   2.241   5.666   0.720 -0.4260 -0.4017  0.0198
13893TIP3    H163094   2.208   5.576   0.712 -0.3114 -0.4265 -0.1849
13893TIP3    H263095   2.332   5.661   0.689  0.0597 -0.5080  1.4235
13894TIP3   OH263096   0.409   1.746   6.005 -0.3295  0.1513  0.8614
13894TIP3    H163097   0.371   1.685   6.068 -1.2574  0.6111  0.7555
13894TIP3    H263098   0.485   1.782   6.050  1.0768 -2.0584  0.4493
13895TIP3   OH263099   1.213   0.983  16.335  0.0038  0.6118 -0.3605
13895TIP3    H163100   1.238   0.891  16.339  0.8628  0.8703  0.7528
13895TIP3    H263101   1.278   1.024  16.277 -1.2127  0.2983 -2.0262
13896TIP3   OH263102   0.896   5.893   3.871 -0.1433  0.0589  0.7602
13896TIP3    H163103   0.925   5.946   3.797  0.1577 -2.0699 -0.7495
13896TIP3    H263104   0.837   5.828   3.833  2.1654 -2.8945  1.7538
13897TIP3   OH263105   5.545   3.745   1.018 -0.1446  0.3171  0.1347
13897TIP3    H163106   5.460   3.702   1.028 -1.1715  1.8610 -1.3672
13897TIP3    H263107   5.581   3.708   0.938  0.6872 -0.4086  0.8231
13898TIP3   OH263108   0.046   6.634  15.501 -0.5795  0.2440 -0.2203
13898TIP3    H163109  -0.003   6.710  15.471 -0.3057  0.1853 -0.8346
13898TIP3    H263110  -0.021   6.573  15.532 -0.7688  0.9086  0.6869
13899TIP3   OH263111   2.249   2.887   0.091 -0.2393 -0.1430 -0.3853
13899TIP3    H163112   2.176   2.859   0.145 -0.0207 -1.0933 -0.5646
13899TIP3    H263113   2.307   2.811   0.086  0.5341  0.4393 -0.6351
13900TIP3   OH263114   1.063   3.824  15.289 -0.4867 -0.1142  0.2298
13900TIP3    H163115   1.047   3.767  15.364  0.2135  0.4124  0.7930
13900TIP3    H263116   1.128   3.887  15.320  0.2671 -0.2554 -0.9939
13901TIP3   OH263117   1.162   1.050  16.670 -0.3684 -0.3701 -0.0102
13901TIP3    H163118   1.190   0.959  16.660 -1.5397 -0.7267 -0.1587
13901TIP3    H263119   1.104   1.049  16.746 -1.1747  0.0529 -0.6054
13902TIP3   OH263120   5.037   4.762   3.026  0.2572 -0.4045  0.4064
13902TIP3    H163121   4.992   4.842   3.050  1.6441  0.9452 -1.2575
13902TIP3    H263122   4.967   4.700   3.005 -0.8883  1.3970 -1.4273
13903TIP3   OH263123   4.729   3.547   0.297 -0.2255  0.3260 -0.0518
13903TIP3    H163124   4.718   3.557   0.203 -0.7814  3.9320  0.2451
13903TIP3    H263125   4.817   3.581   0.315  0.5371 -1.8071  0.6593
13904TIP3   OH263126   0.815   3.812  11.896 -0.6554 -0.1362 -0.3781
13904TIP3    H163127   0.791   3.851  11.980  1.6921 -0.9886  0.7633
13904TIP3    H263128   0.741   3.832  11.838 -2.2165  0.6985  1.7921
13905TIP3   OH263129   1.333   5.524   2.089 -0.6110  0.5568  0.1507
13905TIP3    H163130   1.341   5.612   2.126  1.3220 -0.1699  1.6646
13905TIP3    H263131   1.400   5.473   2.135 -1.5943 -1.6881 -0.7572
13906TIP3   OH263132   2.449   0.196   0.043 -0.1824 -0.2793 -0.2478
13906TIP3    H163133   2.422   0.109   0.071 -0.9922 -0.0975 -0.4451
13906TIP3    H263134   2.381   0.224  -0.019 -0.4316  0.8644  0.5028
13907TIP3   OH263135   1.752   0.281  17.105 -0.0021 -0.4088 -0.1357
13907TIP3    H163136   1.805   0.229  17.044 -0.1869  1.2767 -1.8266
13907TIP3    H263137   1.764   0.371  17.076  1.0683  0.6950  3.2605
13908TIP3   OH263138   1.970   1.073  13.586  0.0447 -0.6476  0.0921
13908TIP3    H163139   1.973   0.979  13.603  0.5480 -0.3545  1.8155
13908TIP3    H263140   2.050   1.107  13.626 -0.1794  0.5394 -0.4206
13909TIP3   OH263141   1.662   6.165  16.205  0.2366  0.2745  0.0036
13909TIP3    H163142   1.591   6.217  16.168 -0.3073 -0.1362  0.4355
13909TIP3    H263143   1.631   6.075  16.200 -0.8401  0.3070  3.3439
13910TIP3   OH263144   4.362   4.099  12.884  0.1907  0.0838  0.4211
13910TIP3    H163145   4.380   4.161  12.955  1.0060 -1.4096  1.5784
13910TIP3    H263146   4.447   4.059  12.866  0.2754  1.2532 -2.2821
13911TIP3   OH263147   3.462   2.689  11.631  0.3624  0.0517 -0.3954
13911TIP3    H163148   3.521   2.743  11.683 -0.9635 -0.0623  1.3296
13911TIP3    H263149   3.408   2.751  11.581 -0.6382  0.3516  0.9949
13912TIP3   OH263150   6.203   1.412   6.267 -0.2266  0.1714  0.2111
13912TIP3    H163151   6.111   1.398   6.292 -0.2287 -1.3770 -0.5444
13912TIP3    H263152   6.249   1.424   6.349 -0.8187 -1.0046  0.7426
13913TIP3   OH263153   6.168   1.956   1.840 -0.6283 -0.1412  0.3098
13913TIP3    H163154   6.114   1.902   1.782 -1.3847  0.8706  0.0333
13913TIP3    H263155   6.104   2.003   1.894  0.0286  0.0875  0.8949
13914TIP3   OH263156   2.404   3.866  15.460  0.9787 -0.2716  0.1169
13914TIP3    H163157   2.401   3.905  15.373 -2.1866 -0.0967  0.1943
13914TIP3    H263158   2.497   3.856  15.478  1.7841  1.3440 -2.5212
13915TIP3   OH263159   2.303   1.322  16.625 -0.1015 -0.0015  0.5321
13915TIP3    H163160   2.374   1.385  16.615 -0.3799  0.1938 -0.3766
13915TIP3    H263161   2.338   1.254  16.682  1.4404 -0.8001 -1.2710
13916TIP3   OH263162   1.226   1.756  11.338  0.7268  0.0306 -0.1631
13916TIP3    H163163   1.188   1.676  11.301 -0.6587  0.2039  0.7656
13916TIP3    H263164   1.161   1.824  11.318  0.7602  0.4444  1.0481
13917TIP3   OH263165   2.771   6.586  14.538  0.0400 -0.1525 -0.4586
13917TIP3    H163166   2.707   6.602  14.468 -0.2466  0.1856 -0.1262
13917TIP3    H263167   2.843   6.646  14.519 -1.0784  1.7027  0.8417
13918TIP3   OH263168   6.705   4.963   5.836  0.1982 -0.0856  0.4388
13918TIP3    H163169   6.659   5.040   5.803 -0.4140 -0.5899  0.0794
13918TIP3    H263170   6.650   4.931   5.907  0.9794  0.3884  1.2852
13919TIP3   OH263171   4.219   5.138  15.382 -0.2835 -0.2685  0.1081
13919TIP3    H163172   4.130   5.140  15.418 -0.0731 -0.2641  0.6424
13919TIP3    H263173   4.248   5.048  15.395 -0.1615 -0.2374  0.0534
13920TIP3   OH263174   3.925   0.684  16.116  0.2936 -0.3935 -0.1247
13920TIP3    H163175   3.847   0.701  16.063 -0.0031 -1.6044 -0.1027
13920TIP3    H263176   3.968   0.770  16.123 -0.5094  0.1023 -0.9582
13921TIP3   OH263177   6.261   3.009   2.090 -0.2982 -0.4281 -0.2330
13921TIP3    H163178   6.340   2.955   2.083  0.3235  0.0994  1.9091
13921TIP3    H263179   6.270   3.054   2.174 -3.4562 -1.2837  0.7030
13922TIP3   OH263180   4.869   0.398   2.129 -0.1953 -0.1591  0.0359
13922TIP3    H163181   4.916   0.356   2.201 -1.3349  0.6617  1.2851
13922TIP3    H263182   4.837   0.324   2.076 -0.9423 -0.8428  1.4046
13923TIP3   OH263183   2.540   4.052   5.765 -0.0584 -0.1174 -0.6416
13923TIP3    H163184   2.486   4.125   5.733  0.6800  2.2091  2.8233
13923TIP3    H263185   2.478   3.993   5.808 -0.4396 -0.5164 -1.7166
13924TIP3   OH263186   3.313   0.740  14.639  0.0076  0.2277 -0.4965
13924TIP3    H163187   3.355   0.768  14.558 -1.0260 -0.3334 -1.2463
13924TIP3    H263188   3.238   0.798  14.649  0.3440  0.5415  0.2699
13925TIP3   OH263189   1.173   6.683   4.020  0.2133  0.1298  0.0740
13925TIP3    H163190   1.211   6.741   3.954 -1.8029 -2.0633 -3.4096
13925TIP3    H263191   1.082   6.712   4.028 -0.0003 -0.6438  0.6321
13926TIP3   OH263192   0.134   0.220  11.391  0.6851 -0.2798 -0.1756
13926TIP3    H163193   0.133   0.311  11.362  1.3813 -0.2214 -0.0257
13926TIP3    H263194   0.048   0.185  11.364  0.8804  0.0711 -1.3166
13927TIP3   OH263195   0.266   5.250  14.987  0.2993 -0.2428  0.0813
13927TIP3    H163196   0.267   5.160  15.021  0.3546 -0.0881  0.4950
13927TIP3    H263197   0.357   5.271  14.970  0.3101 -0.1806  0.2134
13928TIP3   OH263198   5.027   0.327  11.479  0.5084 -0.1451  0.0251
13928TIP3    H163199   5.089   0.300  11.546  0.9015 -1.6716 -0.9091
13928TIP3    H263200   5.028   0.423  11.483 -0.0119 -0.1755  2.6447
13929TIP3   OH263201   2.976   4.675   2.507  0.3202 -0.2370 -0.1928
13929TIP3    H163202   3.024   4.593   2.512  0.3751 -0.1675  0.4563
13929TIP3    H263203   2.894   4.658   2.554  0.2318  0.0152 -0.2501
13930TIP3   OH263204   3.209   5.469  15.038  0.0279 -0.4945 -0.2167
13930TIP3    H163205   3.297   5.442  15.064 -0.3584 -0.4129  1.2422
13930TIP3    H263206   3.218   5.561  15.015  0.0506 -0.0176  1.5366
13931TIP3   OH263207   3.039   5.920  10.980  0.3017  0.1663  0.0781
13931TIP3    H163208   3.051   5.996  10.922  0.0021  0.2359  0.1035
13931TIP3    H263209   3.105   5.931  11.048  0.1293  0.5144  0.1917
13932TIP3   OH263210   3.710   0.622   0.218 -0.4215  0.0829  0.2177
13932TIP3    H163211   3.771   0.614   0.145  0.6188  0.4319  1.0149
13932TIP3    H263212   3.645   0.686   0.189 -0.6242 -0.5464 -0.7699
13933TIP3   OH263213   3.495   1.980  11.519  0.0262  0.1114 -0.1088
13933TIP3    H163214   3.523   2.054  11.465  1.0400  0.6405  1.0797
13933TIP3    H263215   3.400   1.978  11.510  0.1407  0.2746 -1.7575
13934TIP3   OH263216   0.115   4.222  13.240 -0.2656  0.3711 -0.5641
13934TIP3    H163217   0.049   4.227  13.310  0.9032 -0.0117  0.6251
13934TIP3    H263218   0.127   4.128  13.226 -1.0642  0.4494 -1.8806
13935TIP3   OH263219   3.213   0.747   5.035 -0.6069  0.1779 -0.4856
13935TIP3    H163220   3.183   0.766   5.124 -1.0645 -0.3588 -0.5185
13935TIP3    H263221   3.137   0.709   4.991  0.0195 -0.8847 -0.6793
13936TIP3   OH263222   3.840   5.974   1.845  0.2964 -0.3336  0.9434
13936TIP3    H163223   3.755   6.011   1.822 -0.1034 -0.7492  1.7028
13936TIP3    H263224   3.883   6.041   1.898  1.2918  0.6969 -1.0590
13937TIP3   OH263225   6.688   3.045   3.497  0.4572  0.2558  0.3565
13937TIP3    H163226   6.666   2.953   3.511  0.9894  0.2781  1.4049
13937TIP3    H263227   6.676   3.086   3.582  1.2054  0.9522  0.1372
13938TIP3   OH263228   0.474   5.383   2.735  0.1683  0.2340 -0.0916
13938TIP3    H163229   0.554   5.332   2.745 -0.5729 -1.0475 -0.4665
13938TIP3    H263230   0.405   5.325   2.766 -0.8397  0.5741 -1.5951
13939TIP3   OH263231   3.483   0.353   5.766  0.7239 -0.2537  0.0680
13939TIP3    H163232   3.483   0.398   5.851 -1.0206 -0.4797  0.2231
13939TIP3    H263233   3.566   0.306   5.763  0.5443 -0.7629  1.9472
13940TIP3   OH263234   4.086   1.545  12.408 -0.3576  0.3230  0.5914
13940TIP3    H163235   4.140   1.524  12.484  1.9431 -0.3067 -1.1080
13940TIP3    H263236   4.140   1.521  12.333 -3.6631 -1.9307 -1.2893
13941TIP3   OH263237   5.618   1.365   1.044 -0.0461 -0.4004 -0.8756
13941TIP3    H163238   5.651   1.343   1.131 -0.6247  0.3560 -0.4505
13941TIP3    H263239   5.551   1.432   1.060  0.2029  0.1287 -1.9393
13942TIP3   OH263240   4.441   1.620   4.865  0.1369 -0.3734 -0.6038
13942TIP3    H163241   4.491   1.555   4.815 -0.8233 -1.6667  0.0318
13942TIP3    H263242   4.486   1.703   4.850  0.9825 -1.0626 -2.0343
13943TIP3   OH263243   4.098   4.024   2.384  0.4435  0.4601  0.1645
13943TIP3    H163244   4.043   4.084   2.434  1.6621  1.5652  0.2206
13943TIP3    H263245   4.120   4.072   2.304  1.6898  0.2511  0.3534
13944TIP3   OH263246   2.313   3.450  14.018  0.7650  0.1568  0.1171
13944TIP3    H163247   2.338   3.393  14.091  1.0709 -0.1194 -0.1983
13944TIP3    H263248   2.243   3.505  14.053  1.4165  0.5452  0.8502
13945TIP3   OH263249   2.039   3.460  11.477 -0.0556  0.0353  0.1176
13945TIP3    H163250   2.124   3.420  11.458  0.0187  0.7403 -1.2277
13945TIP3    H263251   1.995   3.463  11.392 -1.6987 -0.8631  0.8891
13946TIP3   OH263252   1.614   6.195   6.517  0.2755  0.2164  0.0287
13946TIP3    H163253   1.579   6.248   6.445 -0.4039 -0.5100 -0.1901
13946TIP3    H263254   1.703   6.228   6.529  0.4355  0.3113 -1.1953
13947TIP3   OH263255   0.345   4.475   1.576 -0.2541  0.2251  0.1120
13947TIP3    H163256   0.300   4.546   1.622 -0.9832 -0.8946  1.1752
13947TIP3    H263257   0.381   4.421   1.646 -1.3466 -1.5048 -0.6185
13948TIP3   OH263258   2.864   2.442   0.625 -0.1661 -0.5950 -0.2278
13948TIP3    H163259   2.914   2.421   0.704 -0.5991 -0.4667  0.0853
13948TIP3    H263260   2.828   2.359   0.595 -3.1200 -0.2079  1.8519
13949TIP3   OH263261   5.302   5.161   2.555  0.4603  0.1057 -0.2326
13949TIP3    H163262   5.367   5.135   2.490  2.7970  1.2510  1.4981
13949TIP3    H263263   5.237   5.091   2.554  0.7992 -0.2739 -3.1918
13950TIP3   OH263264   5.140   4.026   2.928 -0.5684  0.2667 -0.0233
13950TIP3    H163265   5.183   4.112   2.936  0.8372 -0.4702  0.7374
13950TIP3    H263266   5.053   4.046   2.894 -0.4656  2.0523  0.6449
13951TIP3   OH263267   3.812   0.039   2.667 -0.6066  0.0413 -0.5519
13951TIP3    H163268   3.795  -0.015   2.745 -1.5420 -0.4785 -1.0935
13951TIP3    H263269   3.861   0.114   2.700  0.3211 -0.9004  0.3011
13952TIP3   OH263270   6.226   4.746  13.113 -0.7206 -0.0687 -0.0613
13952TIP3    H163271   6.287   4.691  13.063  1.0590  0.8095  1.0487
13952TIP3    H263272   6.282   4.808  13.159 -2.5848  2.0908 -0.5193
13953TIP3   OH263273   2.821   2.716  15.938  0.1017 -0.0862  0.4260
13953TIP3    H163274   2.736   2.749  15.911 -0.2188 -1.0962  0.1881
13953TIP3    H263275   2.869   2.701  15.856  0.9634  1.6024  0.5760
13954TIP3   OH263276   0.986   0.815  12.421 -0.6364 -0.0535 -0.2340
13954TIP3    H163277   1.074   0.783  12.400 -0.3446  0.4935  0.1354
13954TIP3    H263278   0.947   0.838  12.337  0.8903  3.1133 -0.2191
13955TIP3   OH263279   0.984   6.363   1.102  0.3551 -0.0086 -0.0121
13955TIP3    H163280   1.013   6.454   1.099  0.3828  0.0135  0.8180
13955TIP3    H263281   1.062   6.314   1.126 -0.0444 -0.0567  1.2562
13956TIP3   OH263282   6.681   0.449  14.461 -0.3345 -0.4580 -0.1697
13956TIP3    H163283   6.740   0.493  14.401 -1.9104 -0.6202 -1.9456
13956TIP3    H263284   6.594   0.463  14.424 -1.4698 -0.1047  2.3957
13957TIP3   OH263285   3.070   1.192   0.102 -0.4764  0.3677  0.0126
13957TIP3    H163286   3.039   1.262   0.160  0.7582  0.4363  0.6309
13957TIP3    H263287   3.134   1.236   0.045 -0.8021  0.0494 -0.5977
13958TIP3   OH263288   6.277   0.285  11.201 -0.4285 -0.2845  0.1365
13958TIP3    H163289   6.368   0.273  11.228 -0.2203 -0.2760 -0.5403
13958TIP3    H263290   6.265   0.380  11.201 -0.8107 -0.3142  1.4014
13959TIP3   OH263291   4.745   3.634  13.224  0.3769  0.3727 -0.4624
13959TIP3    H163292   4.817   3.619  13.163 -0.2474  0.6794 -1.3024
13959TIP3    H263293   4.779   3.608  13.309  1.0154 -0.7877 -1.0597
13960TIP3   OH263294   3.808   5.708   3.623  0.4908 -0.1138  0.5813
13960TIP3    H163295   3.902   5.693   3.614  0.2102 -1.8546  0.2942
13960TIP3    H263296   3.779   5.642   3.685 -0.5473  0.4608  0.7277
13961TIP3   OH263297   1.532   6.026   6.022  0.2477  0.3865 -0.9882
13961TIP3    H163298   1.475   6.102   6.036 -0.5359 -0.2949 -0.3400
13961TIP3    H263299   1.472   5.951   6.029  1.0976 -0.3102 -1.0991
13962TIP3   OH263300   2.842   6.641  10.413  0.2271 -0.4940  0.3568
13962TIP3    H163301   2.924   6.649  10.462  0.7164  1.8973 -0.7574
13962TIP3    H263302   2.809   6.554  10.438  1.4925 -0.2683  3.2462
13963TIP3   OH263303   0.688   3.810  15.377  0.2771 -0.0932 -0.3006
13963TIP3    H163304   0.737   3.767  15.307 -1.7919 -0.4632 -1.6019
13963TIP3    H263305   0.730   3.896  15.386 -0.0406  0.4132 -2.7918
13964TIP3   OH263306   4.348   5.832   3.235 -0.2138  0.3648  0.2495
13964TIP3    H163307   4.319   5.762   3.176 -1.9159  1.0223  0.2718
13964TIP3    H263308   4.350   5.792   3.322  0.6233 -0.1338  0.0168
13965TIP3   OH263309   5.388   4.370   6.581  0.1938  0.1828  0.3453
13965TIP3    H163310   5.479   4.342   6.581 -0.2098 -1.2413  1.4807
13965TIP3    H263311   5.362   4.366   6.673 -0.2910  3.1257  0.4508
13966TIP3   OH263312   3.671   6.049  14.426  0.0983  0.3101 -0.1134
13966TIP3    H163313   3.676   6.110  14.500 -0.6602  0.9149 -0.5410
13966TIP3    H263314   3.760   6.043  14.393  0.3695  0.3553  0.6037
13967TIP3   OH263315   3.000   0.702  11.710  0.0133 -0.3010 -0.3810
13967TIP3    H163316   2.947   0.669  11.638  1.9721  0.0785 -2.0803
13967TIP3    H263317   3.083   0.655  11.703  1.2992  1.7878 -0.2015
13968TIP3   OH263318   3.711   1.358   6.136  0.3646 -0.0749 -0.1671
13968TIP3    H163319   3.711   1.429   6.201  1.1642 -0.7234  0.5770
13968TIP3    H263320   3.783   1.301   6.164 -0.5676 -1.4380 -0.4469
13969TIP3   OH263321   5.530   4.945  13.185  0.8940 -0.2566  0.7146
13969TIP3    H163322   5.576   4.873  13.227  1.7204 -0.6556 -0.8173
13969TIP3    H263323   5.511   4.913  13.096  0.5621  1.1113  0.2689
13970TIP3   OH263324   5.716   4.768  13.963  0.1735  0.2730 -0.2740
13970TIP3    H163325   5.634   4.720  13.969 -0.2727  1.1669  1.6634
13970TIP3    H263326   5.707   4.822  13.884  0.6536 -2.6018 -2.4391
13971TIP3   OH263327   3.889   3.042   5.444  0.4380 -0.2144  0.0871
13971TIP3    H163328   3.797   3.067   5.450  0.9603  1.5514  2.2088
13971TIP3    H263329   3.893   2.982   5.370 -2.1084  1.0159 -1.1706
13972TIP3   OH263330   5.281   5.773  14.368 -0.5977  0.4042  0.3189
13972TIP3    H163331   5.364   5.750  14.410  0.2910  2.9122  0.0573
13972TIP3    H263332   5.302   5.775  14.274 -1.2079  0.1562  0.1720
13973TIP3   OH263333   0.899   5.192   1.644  0.0630 -0.1790 -0.1970
13973TIP3    H163334   0.991   5.214   1.658  0.6183 -2.6305  0.4274
13973TIP3    H263335   0.851   5.246   1.707  1.1601  0.4093  0.1403
13974TIP3   OH263336   1.821   5.805   6.492  0.2787 -0.4653  0.0336
13974TIP3    H163337   1.766   5.862   6.438 -0.7397 -1.2339  0.2316
13974TIP3    H263338   1.909   5.813   6.454 -0.4629 -1.2485 -1.9692
13975TIP3   OH263339   4.493   0.717  16.393 -0.4544 -0.9519 -0.5514
13975TIP3    H163340   4.462   0.637  16.435  0.3589 -0.6844  0.6077
13975TIP3    H263341   4.527   0.771  16.465 -0.4122  0.1719 -1.3781
13976TIP3   OH263342   5.987   0.330  15.149  0.0906 -0.4543  0.0901
13976TIP3    H163343   5.962   0.239  15.168 -0.6144 -0.1970  0.4072
13976TIP3    H263344   5.904   0.377  15.140  0.4201 -0.1058 -1.4802
13977TIP3   OH263345   2.261   4.186  16.586 -0.3949 -0.2221  0.3716
13977TIP3    H163346   2.278   4.092  16.590 -0.6017 -0.3193 -0.8142
13977TIP3    H263347   2.343   4.227  16.614 -0.0186 -0.7453  0.0376
13978TIP3   OH263348   0.255   6.424   0.654 -0.2173  0.4015  0.0250
13978TIP3    H163349   0.162   6.400   0.651 -0.1008 -0.0162 -1.9431
13978TIP3    H263350   0.296   6.355   0.706 -0.5373 -1.4754 -2.0396
13979TIP3   OH263351   0.659   2.027  15.960  0.0437  0.2539 -0.1433
13979TIP3    H163352   0.732   2.035  16.021  0.0242  1.4921 -0.2726
13979TIP3    H263353   0.654   2.111  15.916 -1.8496  0.4175  0.2855
13980TIP3   OH263354   0.211   4.423  12.169 -0.1384  0.2820 -0.0796
13980TIP3    H163355   0.143   4.432  12.102 -0.1458  1.1962  0.0381
13980TIP3    H263356   0.220   4.329  12.181 -2.9401  0.0919  1.4426
13981TIP3   OH263357   3.312   6.792   4.701 -0.5531  0.4515 -0.3953
13981TIP3    H163358   3.231   6.777   4.749 -0.5460 -0.0691 -0.5378
13981TIP3    H263359   3.345   6.875   4.735 -0.4128 -0.0411  0.6966
13982TIP3   OH263360   3.984   2.454   5.207 -0.1608  0.2809 -0.1381
13982TIP3    H163361   4.059   2.397   5.193 -0.8188 -0.5486 -0.3210
13982TIP3    H263362   4.015   2.540   5.178  0.5319 -0.1633 -0.7603
13983TIP3   OH263363   0.190   1.063   0.611 -0.7032 -0.4086 -0.4553
13983TIP3    H163364   0.214   1.025   0.696 -2.0678 -0.5381 -0.1114
13983TIP3    H263365   0.274   1.090   0.573  0.1885 -2.4555 -0.0989
13984TIP3   OH263366   6.388   0.723  14.426 -0.6120  0.1256  0.0028
13984TIP3    H163367   6.415   0.677  14.347  0.8264 -0.1909  0.6555
13984TIP3    H263368   6.468   0.762  14.461 -1.1965  0.1882  1.3605
13985TIP3   OH263369   0.490   0.707  12.419  0.0629  0.3245 -0.3299
13985TIP3    H163370   0.439   0.776  12.376 -0.6154 -0.4687 -0.8432
13985TIP3    H263371   0.426   0.662  12.475  0.0374 -1.0312 -1.3925
13986TIP3   OH263372   1.270   0.655   0.669 -0.1735 -0.1444 -0.7923
13986TIP3    H163373   1.235   0.691   0.751 -0.9020 -0.0077 -1.1573
13986TIP3    H263374   1.351   0.612   0.695 -0.8808 -0.9474  0.1810
13987TIP3   OH263375   1.945   0.548  12.971  0.2691  0.3480  0.4352
13987TIP3    H163376   1.912   0.565  12.883 -1.3855 -1.5588  0.6083
13987TIP3    H263377   1.869   0.514  13.019  0.9988  1.7396  2.7587
13988TIP3   OH263378   4.283   2.083  11.519  0.6722 -0.1618 -0.2392
13988TIP3    H163379   4.231   2.086  11.600 -0.7263 -0.7595 -1.0784
13988TIP3    H263380   4.229   2.034  11.457  1.1972  1.2399 -1.8913
13989TIP3   OH263381   1.022   3.383  11.856  0.3519  0.4545  0.5130
13989TIP3    H163382   1.004   3.474  11.879  0.3545 -0.0528  2.6738
13989TIP3    H263383   0.941   3.352  11.816  0.4853  1.4742 -0.6242
13990TIP3   OH263384   1.334   2.475  16.596  0.3602 -0.4294  0.3924
13990TIP3    H163385   1.260   2.434  16.641  1.4203 -3.1638 -0.1229
13990TIP3    H263386   1.411   2.438  16.639  1.3912 -0.7238 -1.6063
13991TIP3   OH263387   3.932   3.301   5.550  1.0937  0.3287 -0.0030
13991TIP3    H163388   4.015   3.294   5.596  1.6764 -0.4309 -1.1252
13991TIP3    H263389   3.915   3.213   5.517 -0.7099  0.2294  1.1017
13992TIP3   OH263390   5.612   5.865  11.413  0.0450 -0.3144 -1.1046
13992TIP3    H163391   5.617   5.945  11.361 -0.7452  0.7953  0.4466
13992TIP3    H263392   5.668   5.803  11.367  0.6540  1.1138 -2.3721
13993TIP3   OH263393   6.518   0.126   1.040  0.3404  0.0696 -0.2645
13993TIP3    H163394   6.450   0.064   1.067  0.2040 -0.1318 -1.0598
13993TIP3    H263395   6.543   0.170   1.122  0.3911 -0.9706  0.2911
13994TIP3   OH263396   2.000   5.039   2.204  0.1700  0.0246 -0.3623
13994TIP3    H163397   1.977   5.131   2.191  1.4782  0.4475  0.0658
13994TIP3    H263398   1.925   5.001   2.249 -0.5568  0.7759 -0.9115
13995TIP3   OH263399   5.243   2.405   2.830 -0.3824 -0.6270  0.0354
13995TIP3    H163400   5.210   2.331   2.778  0.9078 -0.7339 -0.6571
13995TIP3    H263401   5.216   2.482   2.781  0.9718 -0.7304 -0.9258
13996TIP3   OH263402   0.465   2.988   6.035  0.1567  0.1493 -0.6391
13996TIP3    H163403   0.434   3.002   5.945 -2.5968 -1.0584  0.0335
13996TIP3    H263404   0.469   2.893   6.045  1.9427  0.2549  0.1000
13997TIP3   OH263405   3.589   0.483   2.779 -0.1005 -0.1108 -0.4750
13997TIP3    H163406   3.576   0.540   2.855  1.9135 -0.0036 -0.1668
13997TIP3    H263407   3.629   0.404   2.816  2.8069  0.7246 -1.5760
13998TIP3   OH263408   3.562   2.733  13.481  0.0253  0.0839  0.5802
13998TIP3    H163409   3.566   2.821  13.518 -0.2279 -0.3685  1.7216
13998TIP3    H263410   3.591   2.744  13.390 -1.4622  1.5952  0.2287
13999TIP3   OH263411   4.867   2.134  15.148 -0.2585 -0.5508 -0.5276
13999TIP3    H163412   4.906   2.076  15.082  0.7260  0.5901 -0.9865
13999TIP3    H263413   4.865   2.081  15.228  0.5008 -1.2641 -0.9588
14000TIP3   OH263414   0.333   5.110   5.836  0.2367 -0.0571 -0.5717
14000TIP3    H163415   0.387   5.116   5.757  0.5353 -1.4814 -0.5006
14000TIP3    H263416   0.391   5.075   5.903  0.1361  1.6458  0.4674
14001TIP3   OH263417   5.844   2.561   0.376  0.5196 -0.1919  0.1928
14001TIP3    H163418   5.869   2.565   0.284  1.2415 -0.2683  0.3809
14001TIP3    H263419   5.922   2.530   0.421  0.2585  0.1084  0.8668
14002TIP3   OH263420   2.482   3.267   6.573  0.6407 -0.7101  0.6000
14002TIP3    H163421   2.563   3.283   6.622 -0.1569  0.6865  1.5590
14002TIP3    H263422   2.455   3.354   6.543 -0.7644 -1.0716  0.7488
14003TIP3   OH263423   3.120   6.688   3.034 -0.0029 -0.1298 -0.4026
14003TIP3    H163424   3.126   6.710   3.127 -0.4615 -0.5259 -0.2736
14003TIP3    H263425   3.166   6.759   2.989  2.8537 -1.3933  0.2911
14004TIP3   OH263426   0.926   3.577  13.312  0.4323  0.1773 -0.0782
14004TIP3    H163427   0.851   3.526  13.284 -0.4154  0.8828  0.8364
14004TIP3    H263428   0.928   3.652  13.252  0.2693  0.2774  0.0422
14005TIP3   OH263429   5.426   2.455  14.914 -0.1227  0.5535 -0.6029
14005TIP3    H163430   5.450   2.364  14.893  1.3343  0.6029  0.6539
14005TIP3    H263431   5.426   2.500  14.830 -3.0402 -1.0128 -1.5774
14006TIP3   OH263432   1.246   0.636  11.450  0.6148  0.9341  0.0946
14006TIP3    H163433   1.331   0.648  11.407  0.1176 -0.1906 -1.2793
14006TIP3    H263434   1.266   0.580  11.525  0.9351 -0.2452 -0.8492
14007TIP3   OH263435   0.374   1.697   0.850 -0.6026  0.0441 -0.3982
14007TIP3    H163436   0.311   1.656   0.791 -0.9382  0.3605 -0.2609
14007TIP3    H263437   0.354   1.661   0.936 -1.2566  0.8973 -0.1830
14008TIP3   OH263438   3.534   6.752  12.244  0.5159 -0.2289  0.1170
14008TIP3    H163439   3.474   6.807  12.294 -0.9257 -0.8181 -0.8966
14008TIP3    H263440   3.537   6.669  12.291 -0.2807 -0.5423 -0.3724
14009TIP3   OH263441   2.002   5.942  14.264 -0.1691 -0.4306  0.4971
14009TIP3    H163442   1.987   5.998  14.340 -0.8573  0.1847 -0.0890
14009TIP3    H263443   2.086   5.898  14.283 -0.5766 -0.6649  1.8321
14010TIP3   OH263444   0.008   3.837  12.976 -0.4834 -0.2695  0.7297
14010TIP3    H163445   0.094   3.868  12.948  0.1572 -2.0293  0.5936
14010TIP3    H263446  -0.053   3.877  12.914  0.3978 -0.0765 -0.0424
14011TIP3   OH263447   3.943   6.257  12.933 -0.6774  0.1103 -0.6460
14011TIP3    H163448   3.881   6.300  12.873 -0.1424  0.7873 -0.7295
14011TIP3    H263449   3.958   6.323  13.001  1.3415  0.6880 -1.5743
14012TIP3   OH263450   2.293   3.319  11.843 -0.3346  0.1091 -0.0951
14012TIP3    H163451   2.386   3.342  11.839 -0.1598 -0.7332 -1.4168
14012TIP3    H263452   2.253   3.392  11.890  0.9492  0.6234  0.2461
14013TIP3   OH263453   0.195   2.406  17.038  0.0296 -0.0375 -0.4620
14013TIP3    H163454   0.179   2.384  17.130 -0.6136 -2.3767 -1.0616
14013TIP3    H263455   0.221   2.323  16.998  1.3331  1.1522 -2.1969
14014TIP3   OH263456   5.118   0.066   5.593  0.0745 -0.1286  0.1237
14014TIP3    H163457   5.093   0.005   5.523  0.6464 -1.1374  0.7813
14014TIP3    H263458   5.090   0.023   5.673  0.7079  0.3711  0.6200
14015TIP3   OH263459   2.738   3.106  15.226  0.1364 -0.7105 -0.2894
14015TIP3    H163460   2.741   3.033  15.288 -0.6756 -0.7155 -0.2422
14015TIP3    H263461   2.644   3.121  15.211  0.2240  1.1774  0.7117
14016TIP3   OH263462   5.438   3.111  15.765  0.6176 -0.0685  0.5562
14016TIP3    H163463   5.463   3.178  15.700  1.5695 -1.3800 -0.4938
14016TIP3    H263464   5.373   3.154  15.820 -0.8469  0.8892 -1.7684
14017TIP3   OH263465   6.548   3.048   6.803 -0.5881 -0.5817 -0.3031
14017TIP3    H163466   6.550   3.025   6.710  1.7544 -0.9221 -0.2082
14017TIP3    H263467   6.526   2.966   6.847  1.1570 -1.1292 -0.3988
14018TIP3   OH263468   2.541   2.793   3.254  0.4232  0.1109 -0.1347
14018TIP3    H163469   2.628   2.792   3.294  0.8303 -0.2532 -1.0063
14018TIP3    H263470   2.552   2.748   3.171 -0.9229 -1.2713  0.3766
14019TIP3   OH263471   1.528   0.414  16.504  0.2391  0.2604 -0.4959
14019TIP3    H163472   1.622   0.408  16.488  0.1887 -1.3494 -0.3210
14019TIP3    H263473   1.493   0.455  16.424  1.0095  0.3359 -0.8016
14020TIP3   OH263474   4.733   3.060  15.902  1.0666  0.0152 -0.5379
14020TIP3    H163475   4.717   3.154  15.891  1.0837 -0.1480 -2.1216
14020TIP3    H263476   4.647   3.025  15.927  0.9091  0.3574 -0.5868
14021TIP3   OH263477   6.403   3.801   0.699 -0.0780 -0.1224 -0.6175
14021TIP3    H163478   6.455   3.778   0.776  0.8864  0.2443 -1.1453
14021TIP3    H263479   6.346   3.872   0.729  1.9191  1.6796 -0.7718
14022TIP3   OH263480   5.123   3.333  15.456  0.3005 -0.2502  0.8451
14022TIP3    H163481   5.064   3.401  15.489 -0.6543 -1.3793  1.5362
14022TIP3    H263482   5.064   3.267  15.418  1.2553 -0.1600 -0.8781
14023TIP3   OH263483   6.128   3.338  13.908  0.1117  0.1837  0.2546
14023TIP3    H163484   6.071   3.328  13.985 -0.5670  1.0859 -0.1051
14023TIP3    H263485   6.084   3.404  13.855  0.1405 -1.0120 -1.3114
14024TIP3   OH263486   5.219   4.556  16.198 -0.1012 -0.3527  0.3968
14024TIP3    H163487   5.132   4.521  16.179 -0.3643  1.0736 -1.3034
14024TIP3    H263488   5.236   4.618  16.127  2.6224 -1.0981  0.2565
14025TIP3   OH263489   2.432   6.240   4.655  0.0265 -0.5948 -0.4951
14025TIP3    H163490   2.386   6.201   4.581  0.2976  1.0938 -1.6143
14025TIP3    H263491   2.366   6.293   4.699  0.3585  0.1245 -0.8390
14026TIP3   OH263492   0.509   3.550  13.471  0.1840 -0.6479 -0.1856
14026TIP3    H163493   0.434   3.525  13.525 -1.4692 -0.1772 -2.1643
14026TIP3    H263494   0.536   3.635  13.507  1.1658 -1.7403  1.8521
14027TIP3   OH263495   4.387   2.110   3.915  0.6608  0.1154  0.4343
14027TIP3    H163496   4.417   2.151   3.833  0.7377 -1.9117 -0.6362
14027TIP3    H263497   4.464   2.111   3.971  0.9910  0.3639 -0.0109
14028TIP3   OH263498   1.670   0.053  16.223  0.0821 -0.5454  0.4432
14028TIP3    H163499   1.706   0.001  16.151  0.5761  0.9668 -0.4590
14028TIP3    H263500   1.605  -0.003  16.263  0.1014 -1.5992 -0.9274
14029TIP3   OH263501   6.607   0.934   3.826 -0.2022 -1.1273 -0.4411
14029TIP3    H163502   6.578   1.025   3.829 -0.1457 -1.1234 -0.0487
14029TIP3    H263503   6.578   0.903   3.740 -0.4276 -0.8096 -0.4820
14030TIP3   OH263504   6.571   0.769  12.272 -0.2944  0.0798 -0.6596
14030TIP3    H163505   6.507   0.733  12.211  0.3552  0.9807 -1.9196
14030TIP3    H263506   6.654   0.730  12.244  0.0736  0.8503 -0.6456
14031TIP3   OH263507   1.375   6.652  12.202  0.0374  0.8187 -0.4445
14031TIP3    H163508   1.449   6.591  12.193 -0.5818 -0.0369  0.1330
14031TIP3    H263509   1.323   6.639  12.123 -1.1182 -0.8425  0.5275
14032TIP3   OH263510   4.903   6.074   4.729  0.3715  0.3986 -0.1670
14032TIP3    H163511   4.975   6.092   4.670 -0.7144 -1.4644 -2.1802
14032TIP3    H263512   4.824   6.079   4.675 -0.9269  0.9813  1.6476
14033TIP3   OH263513   4.122   0.084  16.398 -0.3130  0.1142  0.0367
14033TIP3    H163514   4.095  -0.007  16.387 -2.2079  0.5253  0.9490
14033TIP3    H263515   4.172   0.104  16.319 -0.4403 -1.5136 -0.4856
14034TIP3   OH263516   3.019   4.887  13.301  0.2652 -0.5012  0.1385
14034TIP3    H163517   2.971   4.806  13.319 -1.5592  0.0402 -1.9062
14034TIP3    H263518   3.084   4.863  13.236 -0.3247 -0.3352 -0.5229
14035TIP3   OH263519   4.951   3.054  12.015 -0.0017  0.3257 -0.2993
14035TIP3    H163520   4.919   2.986  12.074  0.2929 -0.6107 -1.1833
14035TIP3    H263521   4.889   3.126  12.025  0.3032  0.3903  1.4893
14036TIP3   OH263522   2.877   0.501  12.018 -0.5916 -0.2117 -0.5530
14036TIP3    H163523   2.917   0.501  11.932  0.7609 -1.7328  0.0301
14036TIP3    H263524   2.831   0.416  12.023 -1.1748  0.1261 -0.0038
14037TIP3   OH263525   5.970   3.054   6.066 -0.3072  0.1223 -0.0079
14037TIP3    H163526   5.992   3.076   5.976 -0.2257  1.8413  0.3954
14037TIP3    H263527   6.040   2.995   6.094  0.4496  0.6997 -0.6371
14038TIP3   OH263528   5.400   0.912   4.685 -0.3507  0.1768  0.1064
14038TIP3    H163529   5.408   0.817   4.681 -0.9602  0.1062  0.4042
14038TIP3    H263530   5.309   0.929   4.663 -0.0468  0.7516 -0.7356
14039TIP3   OH263531   3.592   2.584  14.923  0.2348 -0.1159  0.0796
14039TIP3    H163532   3.598   2.490  14.939  0.8752  0.1541  1.6024
14039TIP3    H263533   3.505   2.597  14.887  0.5561 -1.4229 -1.3164
14040TIP3   OH263534   5.959   2.562  14.112  0.3619  0.7394  0.3983
14040TIP3    H163535   6.002   2.526  14.034  0.4313  1.6632  0.0021
14040TIP3    H263536   5.865   2.554  14.094  0.3767  1.3284  0.0317
14041TIP3   OH263537   2.054   0.014  11.610 -1.0455  0.6808 -0.2577
14041TIP3    H163538   2.003  -0.006  11.688 -1.8089  1.9893 -0.3908
14041TIP3    H263539   2.094  -0.070  11.585 -2.2435 -0.1348  0.4720
14042TIP3   OH263540   2.345   3.467   5.728  0.2269  0.1532  0.1700
14042TIP3    H163541   2.270   3.462   5.668 -0.1824 -0.8891  0.7386
14042TIP3    H263542   2.421   3.470   5.670 -0.2531  2.7426 -0.4591
14043TIP3   OH263543   0.646   3.846  11.702  0.3768  0.1924 -0.0105
14043TIP3    H163544   0.555   3.846  11.673  0.6658 -0.4588 -0.9789
14043TIP3    H263545   0.682   3.927  11.667  1.2028 -1.3963 -3.2458
14044TIP3   OH263546   2.657   3.881  17.127  0.2335 -0.6920  1.1987
14044TIP3    H163547   2.622   3.804  17.172  0.4617 -2.5129 -1.5480
14044TIP3    H263548   2.589   3.906  17.065  1.3457 -0.5274  0.0078
14045TIP3   OH263549   5.577   6.149  12.797 -0.4803  0.6755  0.1614
14045TIP3    H163550   5.646   6.133  12.733  0.8122 -0.5675  1.7700
14045TIP3    H263551   5.539   6.233  12.771  1.4223  1.2427 -0.9833
14046TIP3   OH263552   6.063   6.647  11.183 -0.2471  0.3049 -0.9533
14046TIP3    H163553   6.077   6.607  11.098 -1.1222  0.7072 -1.3017
14046TIP3    H263554   6.014   6.582  11.233  2.5635 -1.0831  0.2475
14047TIP3   OH263555   5.118   0.890  15.610 -0.4061 -0.2530 -0.1315
14047TIP3    H163556   5.192   0.847  15.652 -1.2035 -0.4605  1.0988
14047TIP3    H263557   5.158   0.958  15.555  0.6483  0.7949  1.8304
14048TIP3   OH263558   5.990   0.401   0.786 -0.3506 -0.4388 -0.0316
14048TIP3    H163559   5.987   0.418   0.880  1.1247  0.6183 -0.1328
14048TIP3    H263560   6.074   0.358   0.772 -0.0274  0.4687 -0.9994
14049TIP3   OH263561   4.078   0.739  11.689 -0.9444 -0.3893 -0.3859
14049TIP3    H163562   4.111   0.689  11.615  0.4619  0.6378 -0.4942
14049TIP3    H263563   4.155   0.785  11.723 -1.9919  0.9104  0.3175
14050TIP3   OH263564   5.279   0.748   5.226  0.4570  0.2179 -0.4401
14050TIP3    H163565   5.237   0.785   5.149  1.7846  2.3497 -0.2050
14050TIP3    H263566   5.232   0.787   5.300  1.1285  0.5365 -0.1811
14051TIP3   OH263567   0.178   5.164   6.383  0.2180 -0.4448  0.0322
14051TIP3    H163568   0.092   5.126   6.366  0.2394 -0.3172 -0.3813
14051TIP3    H263569   0.239   5.090   6.379  0.4295 -0.2159 -2.0798
14052TIP3   OH263570   0.962   4.114  12.206 -0.5031 -0.3920  0.2476
14052TIP3    H163571   1.003   4.105  12.292  0.3947  1.8048  0.1194
14052TIP3    H263572   1.035   4.118  12.144 -1.1551 -2.9609 -0.8196
14053TIP3   OH263573   2.215   1.352   6.037  0.2864 -0.4374  0.5095
14053TIP3    H163574   2.131   1.376   6.077 -0.3557 -0.4692 -0.7705
14053TIP3    H263575   2.280   1.402   6.086 -0.4931 -0.2239  1.3629
14054TIP3   OH263576   0.588   6.663  16.015  0.0359  0.4299  0.2859
14054TIP3    H163577   0.588   6.756  16.037 -0.3756  1.0179 -1.9200
14054TIP3    H263578   0.675   6.646  15.979 -0.6251  0.6055 -1.5191
14055TIP3   OH263579   2.798   0.179  10.331  0.4446  0.0559 -0.5833
14055TIP3    H163580   2.729   0.166  10.266  0.7924  0.6741 -1.0860
14055TIP3    H263581   2.764   0.137  10.410 -0.3901  0.1067 -0.9000
14056TIP3   OH263582   5.036   4.492   1.402  0.5341  0.1568 -0.1663
14056TIP3    H163583   5.074   4.523   1.320  0.5031  0.3372 -0.1118
14056TIP3    H263584   4.942   4.490   1.385  0.4020  1.4626  0.2878
14057TIP3   OH263585   1.859   6.454  15.350  0.1740 -0.0669  0.3601
14057TIP3    H163586   1.937   6.484  15.303 -0.4363  0.8419 -0.1129
14057TIP3    H263587   1.821   6.535  15.386 -1.1394 -0.3329 -0.3478
14058TIP3   OH263588   6.442   5.070  11.408 -0.2860 -0.4525  0.4271
14058TIP3    H163589   6.400   5.065  11.322 -1.2250 -1.7591  0.9126
14058TIP3    H263590   6.508   5.001  11.407  0.6655  0.4338  0.2954
14059TIP3   OH263591   1.493   4.396   6.398 -0.5674  0.1691  0.7321
14059TIP3    H163592   1.477   4.466   6.461 -0.1784 -0.3440  1.4238
14059TIP3    H263593   1.559   4.341   6.440  0.2930  0.2504 -0.4774
14060TIP3   OH263594   0.456   4.335   5.258 -0.1012  0.0876  0.7767
14060TIP3    H163595   0.384   4.378   5.210  1.4166  0.3832 -1.4007
14060TIP3    H263596   0.522   4.404   5.268  0.6896 -0.6876  0.9556
14061TIP3   OH263597   2.498   6.130   1.227 -0.4385 -0.2688  0.2006
14061TIP3    H163598   2.519   6.041   1.257 -1.4664 -0.6788 -0.2667
14061TIP3    H263599   2.442   6.166   1.295  0.5569  0.3037  0.7431
14062TIP3   OH263600   6.038   5.916  12.743 -0.0096  0.3059  0.2918
14062TIP3    H163601   6.073   5.927  12.831  1.5658  1.1646 -0.3947
14062TIP3    H263602   6.074   5.832  12.713 -0.1980  0.2205  0.3006
14063TIP3   OH263603   2.617   1.742  14.566 -0.0775 -0.2857  0.1765
14063TIP3    H163604   2.626   1.740  14.471 -0.8080 -0.5434  0.1076
14063TIP3    H263605   2.703   1.712  14.599 -0.1014 -1.0259 -0.4154
14064TIP3   OH263606   0.654   0.017   3.445  0.2295 -0.8903  0.1272
14064TIP3    H163607   0.742   0.037   3.478 -0.2191  1.5034  0.0303
14064TIP3    H263608   0.596   0.042   3.517 -0.4325 -1.7726 -0.0840
14065TIP3   OH263609   6.009   5.697  11.156 -0.1650 -0.1100 -0.2920
14065TIP3    H163610   6.023   5.725  11.247 -1.1140 -1.2073  0.2179
14065TIP3    H263611   6.015   5.778  11.105 -2.4430  1.0347  1.0831
14066TIP3   OH263612   4.475   0.266  16.207  0.2844  0.1236 -0.4482
14066TIP3    H163613   4.488   0.360  16.194 -2.1371  0.4236 -1.2928
14066TIP3    H263614   4.541   0.224  16.153  0.6704  1.3658 -0.9513
14067TIP3   OH263615   4.258   1.216   4.059 -0.6621  0.3407 -0.4199
14067TIP3    H163616   4.183   1.218   3.999 -0.7955  0.4875 -0.2468
14067TIP3    H263617   4.322   1.276   4.020  0.4481 -1.7097 -1.9860
14068TIP3   OH263618   1.434   6.794   5.190 -0.1173  0.5504 -0.3120
14068TIP3    H163619   1.351   6.749   5.175 -0.9858  1.4454  1.5672
14068TIP3    H263620   1.434   6.866   5.127  0.4748 -0.9310 -2.1101
14069TIP3   OH263621   3.661   3.542   0.574 -0.5918 -0.4452  0.1863
14069TIP3    H163622   3.743   3.494   0.557 -0.7692 -0.8877  0.5626
14069TIP3    H263623   3.624   3.499   0.650 -1.1101 -0.1534  0.0994
14070TIP3   OH263624   0.505   0.967  12.242 -0.7830  0.1431 -0.2747
14070TIP3    H163625   0.600   0.975  12.231 -0.6408 -0.1244  0.6265
14070TIP3    H263626   0.475   0.925  12.162 -0.2529  0.9864 -0.9270
14071TIP3   OH263627   6.691   4.585   4.059 -0.0845  0.5884 -0.3856
14071TIP3    H163628   6.672   4.501   4.100 -0.3448  0.7660 -0.1450
14071TIP3    H263629   6.606   4.624   4.042 -0.0547 -0.0988 -2.3991
14072TIP3   OH263630   6.448   6.310  16.819  0.4755 -0.1196  0.1482
14072TIP3    H163631   6.535   6.275  16.798  0.1767 -0.7795 -0.0200
14072TIP3    H263632   6.391   6.275  16.750 -0.3798 -1.6860  1.5892
14073TIP3   OH263633   1.186   5.634  15.774 -0.1556 -0.0117 -0.3148
14073TIP3    H163634   1.099   5.593  15.772  0.3980 -1.3467  1.0113
14073TIP3    H263635   1.177   5.710  15.718 -1.8054 -0.8628 -1.2981
14074TIP3   OH263636   1.528   3.858  13.460 -0.2839 -0.1028 -0.0840
14074TIP3    H163637   1.560   3.871  13.549 -2.5852  2.6628  0.4893
14074TIP3    H263638   1.570   3.927  13.409 -0.8317 -0.1429 -0.5979
14075TIP3   OH263639   3.034   4.413  12.659  0.0912  0.3778 -0.3138
14075TIP3    H163640   3.017   4.413  12.565 -0.5806 -1.4544 -0.2359
14075TIP3    H263641   3.127   4.392  12.666 -0.2069 -1.2007 -0.5893
14076TIP3   OH263642   6.300   5.066  17.181  0.2789  0.1337  0.4856
14076TIP3    H163643   6.383   5.113  17.188  1.5572 -1.8513 -0.2776
14076TIP3    H263644   6.286   5.028  17.268  1.0542 -0.8245  0.2207
14077TIP3   OH263645   2.582   4.904  12.694 -0.0838 -0.1184  0.0186
14077TIP3    H163646   2.567   4.925  12.786 -1.7352  0.1152 -0.2711
14077TIP3    H263647   2.597   4.989  12.652  1.3420 -0.2779  0.1534
14078TIP3   OH263648   1.634   0.237   5.988  0.1239  0.0803 -0.6642
14078TIP3    H163649   1.616   0.176   6.059 -0.8978 -0.8297 -1.6730
14078TIP3    H263650   1.656   0.319   6.032 -3.6148  0.5069  0.7956
14079TIP3   OH263651   6.209   4.048   1.161 -0.3923 -0.0463 -0.1007
14079TIP3    H163652   6.298   4.022   1.140 -0.0466 -0.2488  1.5049
14079TIP3    H263653   6.155   4.010   1.092  0.7691  0.2317 -1.1830
14080TIP3   OH263654   6.112   5.788  14.898  0.2807 -0.0381 -0.1243
14080TIP3    H163655   6.185   5.741  14.858  0.6982  0.4666  0.0311
14080TIP3    H263656   6.134   5.880  14.888 -0.3907  0.1249 -0.1665
14081TIP3   OH263657   5.962   0.647   2.398  0.8226  0.0866 -0.2500
14081TIP3    H163658   5.931   0.557   2.389  1.8840 -0.2221 -1.0608
14081TIP3    H263659   6.000   0.650   2.486  0.7384 -0.2463 -0.1996
14082TIP3   OH263660   1.186   3.827  13.893  0.6511  0.5474 -0.5040
14082TIP3    H163661   1.196   3.845  13.800  0.4315 -0.5356 -0.7536
14082TIP3    H263662   1.152   3.908  13.930 -0.9603  0.4587 -1.6757
14083TIP3   OH263663   1.718   2.827  15.692 -0.2679  0.1357 -0.2357
14083TIP3    H163664   1.714   2.764  15.764  0.7557 -0.1965 -0.4417
14083TIP3    H263665   1.788   2.794  15.636 -0.2036  1.0665 -0.7268
14084TIP3   OH263666   1.728   3.065   5.697  0.6821  0.5872 -0.4728
14084TIP3    H163667   1.708   2.993   5.637  1.2240 -0.5356  0.6490
14084TIP3    H263668   1.820   3.051   5.722  0.4734  1.0351  0.6129
14085TIP3   OH263669   5.864   1.660   3.785  0.1826  0.4425  0.1329
14085TIP3    H163670   5.770   1.677   3.776  0.4202  1.3902 -0.8580
14085TIP3    H263671   5.893   1.726   3.848 -0.3381 -1.9717  3.1030
14086TIP3   OH263672   0.130   3.608   1.350 -0.4592 -0.4309  0.1163
14086TIP3    H163673   0.049   3.565   1.377  1.1077 -3.9856 -0.2222
14086TIP3    H263674   0.169   3.638   1.432 -2.3131  1.9491  0.2266
14087TIP3   OH263675   0.169   1.453   4.955  0.1300  0.3527 -0.3793
14087TIP3    H163676   0.127   1.537   4.941  2.2230  1.4027 -0.8225
14087TIP3    H263677   0.211   1.433   4.871  0.3854 -0.6835 -0.0196
14088TIP3   OH263678   2.296   3.544  17.082  0.3743 -0.4318  0.4197
14088TIP3    H163679   2.271   3.504  17.166 -0.8942 -0.6182 -0.0277
14088TIP3    H263680   2.214   3.553  17.034  0.8821  0.9842 -0.2551
14089TIP3   OH263681   5.772   3.075   3.240  0.2067 -0.3646 -0.3643
14089TIP3    H163682   5.758   2.999   3.183 -0.9321 -1.3092  1.0955
14089TIP3    H263683   5.785   3.037   3.327  0.7766  1.0821  0.1998
14090TIP3   OH263684   0.362   3.775  13.845  0.5930  0.3084  0.1377
14090TIP3    H163685   0.436   3.792  13.905 -0.8313 -0.6268  2.2814
14090TIP3    H263686   0.339   3.684  13.861  0.2097  0.0039 -1.9860
14091TIP3   OH263687   6.696   0.886   1.906  0.0289 -0.4293 -0.2716
14091TIP3    H163688   6.632   0.937   1.856 -1.3712 -2.3259 -0.5082
14091TIP3    H263689   6.751   0.845   1.840 -0.6369 -1.4385 -0.2222
14092TIP3   OH263690   2.983   2.937   0.671  0.3566  0.2492  0.5364
14092TIP3    H163691   3.054   2.932   0.608  1.6203 -2.1299  1.9949
14092TIP3    H263692   2.972   2.847   0.702 -1.2269  1.0619  2.5791
14093TIP3   OH263693   5.354   6.298  14.310  0.0387  0.3330 -0.3774
14093TIP3    H163694   5.400   6.324  14.390  0.5964 -1.6557  0.0112
14093TIP3    H263695   5.407   6.226  14.274 -0.9228  0.2930 -1.8149
14094TIP3   OH263696   1.074   3.445  13.032  0.0052  0.1132 -0.5113
14094TIP3    H163697   1.001   3.488  12.986 -0.3314 -0.3805 -0.4521
14094TIP3    H263698   1.121   3.398  12.963 -1.1989 -1.6192 -0.2271
14095TIP3   OH263699   3.989   1.801   3.188 -0.3711 -0.2113 -0.1219
14095TIP3    H163700   3.980   1.896   3.192 -1.0526 -0.2595 -0.3519
14095TIP3    H263701   4.034   1.785   3.105 -1.1380 -0.1335 -0.5662
14096TIP3   OH263702   1.187   4.592  14.282  0.4611  0.0382 -0.1105
14096TIP3    H163703   1.191   4.498  14.300  0.2606  0.0047 -0.2391
14096TIP3    H263704   1.135   4.599  14.202 -0.5747  0.3463  0.5750
14097TIP3   OH263705   2.345   0.763  10.561 -0.4016  0.7305  0.7425
14097TIP3    H163706   2.362   0.668  10.563 -2.5655  0.2835  3.3571
14097TIP3    H263707   2.276   0.773  10.496  0.5023  0.6996 -0.2527
14098TIP3   OH263708   0.328   0.899   5.657  0.2978 -0.8033  0.0486
14098TIP3    H163709   0.330   0.893   5.562  0.5464  0.8329 -0.0773
14098TIP3    H263710   0.332   0.808   5.687 -1.7158 -1.4663 -1.4949
14099TIP3   OH263711   4.671   1.814   3.445 -0.2447 -0.5772 -0.2231
14099TIP3    H163712   4.736   1.774   3.502 -0.8661  0.9568  1.6954
14099TIP3    H263713   4.616   1.866   3.505 -0.1639  2.2005 -2.3494
14100TIP3   OH263714   2.508   2.324   5.894 -0.1632  0.2257  0.3384
14100TIP3    H163715   2.465   2.303   5.811 -1.0928  0.4788  0.7438
14100TIP3    H263716   2.458   2.398   5.928  2.0664  2.2019 -0.3310
14101TIP3   OH263717   0.250   3.529  17.080  0.6474  0.0052 -0.1432
14101TIP3    H163718   0.253   3.442  17.040  0.6929  0.5240 -1.3192
14101TIP3    H263719   0.166   3.533  17.124  0.6917 -0.6712  0.0124
14102TIP3   OH263720   1.250   1.857  16.814  0.1654  0.4107 -0.2539
14102TIP3    H163721   1.198   1.893  16.743 -1.0621  0.5234  0.6643
14102TIP3    H263722   1.188   1.848  16.887  1.1940 -0.4700  0.5443
14103TIP3   OH263723   0.103   6.417  16.737 -0.2200 -0.2627 -0.4598
14103TIP3    H163724   0.042   6.431  16.664  0.3191  0.4798 -0.7832
14103TIP3    H263725   0.190   6.420  16.697  0.2763  3.2274  0.5531
14104TIP3   OH263726   1.072   4.926  12.827  0.1376  0.2295  0.3168
14104TIP3    H163727   1.072   4.991  12.897  2.2940 -1.2900  1.8815
14104TIP3    H263728   1.136   4.861  12.855 -1.4824 -2.3044 -1.4224
14105TIP3   OH263729   0.524   5.307  17.190 -0.0585 -0.2946 -0.2545
14105TIP3    H163730   0.444   5.356  17.206  0.9424  0.8376  1.5279
14105TIP3    H263731   0.503   5.253  17.113 -1.9262  1.2351 -0.9095
14106TIP3   OH263732   4.562   1.532  12.185 -0.2507  0.1889 -0.0700
14106TIP3    H163733   4.623   1.459  12.170  0.3814  0.4044  1.2788
14106TIP3    H263734   4.614   1.610  12.166 -0.5787  0.3259 -0.4019
14107TIP3   OH263735   6.346   1.007   2.838  0.0260 -0.2770  0.3723
14107TIP3    H163736   6.310   1.089   2.803 -0.3906 -1.0543 -1.1474
14107TIP3    H263737   6.315   1.003   2.928 -0.7944  0.7650  0.1551
14108TIP3   OH263738   6.493   1.646  11.405  0.0281  0.3958 -0.2810
14108TIP3    H163739   6.512   1.739  11.417 -0.4355  0.5625 -0.8303
14108TIP3    H263740   6.476   1.636  11.312  0.5096 -0.3243 -0.3013
14109TIP3   OH263741   3.987   4.827  17.069 -0.5583  0.0279  0.1023
14109TIP3    H163742   3.986   4.817  16.974 -2.2148  0.9504 -0.0228
14109TIP3    H263743   3.938   4.752  17.102 -2.2247  1.0255  0.0107
14110TIP3   OH263744   4.285   3.418   5.256  0.1264  0.7073 -0.0185
14110TIP3    H163745   4.244   3.505   5.249 -0.2481  0.6825  1.6049
14110TIP3    H263746   4.371   3.435   5.294  0.5216  0.4690 -0.7869
14111TIP3   OH263747   4.331   3.817   0.976  0.1153  0.3363 -0.2839
14111TIP3    H163748   4.355   3.884   1.039  0.0406 -1.0227  1.2631
14111TIP3    H263749   4.414   3.790   0.937  0.3095  0.3804  0.0922
14112TIP3   OH263750   5.917   5.478   0.218  0.3821  0.2251 -0.0541
14112TIP3    H163751   5.936   5.420   0.144 -3.0326 -0.9762 -0.1840
14112TIP3    H263752   5.942   5.565   0.188  1.3341 -0.5633 -1.6841
14113TIP3   OH263753   5.589   2.794   4.528 -0.0370 -0.2641  0.1791
14113TIP3    H163754   5.552   2.861   4.586 -1.0991 -1.9857  1.6216
14113TIP3    H263755   5.534   2.797   4.450 -0.5371  0.0669  0.5347
14114TIP3   OH263756   5.665   4.338   1.664 -0.0844 -0.0850 -0.5977
14114TIP3    H163757   5.711   4.384   1.593 -1.5186  4.1173  0.8628
14114TIP3    H263758   5.581   4.312   1.625 -0.2704  0.8981 -0.8962
14115TIP3   OH263759   3.277   4.761  14.413  0.2144  0.0127  0.1988
14115TIP3    H163760   3.242   4.674  14.431  1.1183 -0.5778 -0.7732
14115TIP3    H263761   3.340   4.776  14.482  0.2561 -0.2279  0.2151
14116TIP3   OH263762   2.611   0.621  16.851 -0.3215 -0.1539  0.2305
14116TIP3    H163763   2.631   0.663  16.934  0.9729 -1.9123  0.8910
14116TIP3    H263764   2.680   0.651  16.791  0.0863 -0.6135  0.4585
14117TIP3   OH263765   5.007   1.899   0.281  0.6110 -0.5672 -0.6804
14117TIP3    H163766   4.985   1.966   0.215  3.1530  1.3543  0.2641
14117TIP3    H263767   5.077   1.849   0.240  1.1400 -0.3569 -0.0332
14118TIP3   OH263768   2.461   6.179  14.429 -0.3285  0.3493  0.3313
14118TIP3    H163769   2.378   6.202  14.387 -0.1269  0.4237 -0.0369
14118TIP3    H263770   2.436   6.129  14.507 -0.7600  1.4054  0.8854
14119TIP3   OH263771   5.264   0.292  14.576 -0.5158 -0.4890  0.2331
14119TIP3    H163772   5.195   0.337  14.528  0.1493 -0.4154 -0.6838
14119TIP3    H263773   5.241   0.200  14.571 -0.4692 -0.4767 -0.1956
14120TIP3   OH263774   5.559   1.743  16.411  0.3895  0.3700  0.0953
14120TIP3    H163775   5.597   1.772  16.328 -1.1956 -0.8696 -1.1517
14120TIP3    H263776   5.573   1.648  16.411 -2.5172 -0.1803 -0.4702
14121TIP3   OH263777   0.469   2.606  15.517 -0.3060 -0.1555 -0.4213
14121TIP3    H163778   0.554   2.624  15.476  0.7137  0.2197  1.7116
14121TIP3    H263779   0.413   2.679  15.491  0.5569  0.4880 -0.5187
14122TIP3   OH263780   4.096   1.577   0.639  0.3822 -0.1081 -0.0429
14122TIP3    H163781   4.171   1.531   0.601  0.0654 -2.1694  1.6296
14122TIP3    H263782   4.128   1.607   0.724 -0.0079  1.1290 -0.3241
14123TIP3   OH263783   4.741   0.377   0.364 -0.4317  0.1569 -0.7618
14123TIP3    H163784   4.810   0.335   0.313  0.5812  0.4943  0.2808
14123TIP3    H263785   4.707   0.307   0.420 -0.1175  0.2546 -0.4439
14124TIP3   OH263786   6.368   5.559  16.602 -0.0773 -0.1378 -0.0452
14124TIP3    H163787   6.370   5.502  16.679  1.6896 -0.4364 -0.2641
14124TIP3    H263788   6.458   5.558  16.569 -0.3203  1.6378 -0.9074
14125TIP3   OH263789   2.262   1.576   4.234 -0.2845 -0.4510 -0.7469
14125TIP3    H163790   2.223   1.624   4.161 -1.6287  0.1598  0.3237
14125TIP3    H263791   2.276   1.488   4.200 -0.7910 -0.1539 -1.7624
14126TIP3   OH263792   6.112   2.466  10.664 -0.0057 -0.3996 -0.0965
14126TIP3    H163793   6.148   2.432  10.746  0.4226 -0.3529 -0.2644
14126TIP3    H263794   6.155   2.551  10.652 -2.2816  1.0271  1.1749
14127TIP3   OH263795   3.607   0.640   4.325 -0.3361 -0.3792 -0.1138
14127TIP3    H163796   3.549   0.609   4.255  0.2913 -1.5166 -0.1673
14127TIP3    H263797   3.567   0.606   4.405  0.7990 -2.1788 -0.2373
14128TIP3   OH263798   1.132   6.051  12.832 -0.0751 -0.0440 -0.4420
14128TIP3    H163799   1.168   5.978  12.882 -0.4791 -0.8663 -1.3120
14128TIP3    H263800   1.040   6.028  12.817 -0.8151  1.6593  1.0849
14129TIP3   OH263801   2.403   6.192  11.651 -0.5261  0.3500  0.2685
14129TIP3    H163802   2.335   6.124  11.651  0.0844 -0.3429  2.1053
14129TIP3    H263803   2.382   6.246  11.727  0.0946  1.0685 -0.0643
14130TIP3   OH263804   2.466   5.062  12.101  0.1739 -0.2307  0.3493
14130TIP3    H163805   2.418   4.980  12.090  1.3569 -0.7851 -0.8455
14130TIP3    H263806   2.404   5.119  12.147 -1.3002 -1.2013 -0.3443
14131TIP3   OH263807   2.332   1.717  13.637 -0.7288 -0.4809 -0.3670
14131TIP3    H163808   2.264   1.782  13.620 -0.7775  0.8209  3.6216
14131TIP3    H263809   2.414   1.762  13.617 -0.8713 -0.2667 -0.4698
14132TIP3   OH263810   0.775   0.452   4.859  0.5881 -1.0024 -0.1180
14132TIP3    H163811   0.797   0.359   4.865 -0.8945 -1.2933  2.6051
14132TIP3    H263812   0.693   0.453   4.809  1.1684 -0.9893 -1.1095
14133TIP3   OH263813   1.271   3.262   5.510 -0.1548 -0.0001  0.6863
14133TIP3    H163814   1.367   3.267   5.508 -0.0733 -1.0639 -1.8548
14133TIP3    H263815   1.242   3.336   5.457 -0.7383  0.1054  1.1456
14134TIP3   OH263816   0.775   2.941   5.985 -0.4435  0.0058  0.0866
14134TIP3    H163817   0.699   2.931   6.043 -0.4281 -1.2437 -0.0827
14134TIP3    H263818   0.740   2.978   5.905 -0.6514  0.6738  0.4759
14135TIP3   OH263819   2.705   4.344   5.448 -0.4828 -0.0335  0.2074
14135TIP3    H163820   2.753   4.365   5.369 -1.6578 -1.7840 -1.0568
14135TIP3    H263821   2.616   4.376   5.432 -0.0526  2.4512  2.1781
14136TIP3   OH263822   4.006   2.162   2.930 -0.1168  0.1636  0.0731
14136TIP3    H163823   3.924   2.141   2.975  1.0486 -0.7110  1.9140
14136TIP3    H263824   3.993   2.131   2.841 -1.7290 -0.1085  0.3762
14137TIP3   OH263825   0.710   3.815   3.330  0.5867  0.2638  0.7475
14137TIP3    H163826   0.800   3.810   3.296  0.6817  0.4847  0.9597
14137TIP3    H263827   0.716   3.779   3.418 -0.0170 -2.0444 -0.0977
14138TIP3   OH263828   0.849   6.093   3.665 -0.2643  0.2249 -0.2724
14138TIP3    H163829   0.775   6.147   3.694  0.1540  0.9194 -0.4670
14138TIP3    H263830   0.919   6.156   3.648  0.2177 -0.3817 -0.5713
14139TIP3   OH263831   2.685   0.662   4.936  0.0392 -0.0512 -0.2582
14139TIP3    H163832   2.632   0.640   4.860  1.8387 -1.4850 -1.1856
14139TIP3    H263833   2.626   0.650   5.011 -1.7950  1.4773 -1.3610
14140TIP3   OH263834   2.752   0.511   1.202  0.0929 -0.4037  0.0402
14140TIP3    H163835   2.770   0.420   1.228 -0.4794  0.0266  2.1915
14140TIP3    H263836   2.656   0.517   1.203 -0.2424 -0.9328 -4.7775
14141TIP3   OH263837   4.140   2.800   0.105 -0.2120 -0.1972 -0.0666
14141TIP3    H163838   4.214   2.740   0.113 -1.4236 -1.5112  2.4687
14141TIP3    H263839   4.063   2.744   0.099 -1.1107  1.1383 -2.4518
14142TIP3   OH263840   2.589   4.759  15.660  0.0463 -0.6972 -0.4444
14142TIP3    H163841   2.663   4.800  15.615 -0.7935  0.5629 -0.7129
14142TIP3    H263842   2.627   4.723  15.741  0.3825  3.0995  1.2726
14143TIP3   OH263843   0.211   2.328   4.806 -0.3484  0.2137 -0.0007
14143TIP3    H163844   0.282   2.300   4.748 -0.0548 -0.6885  0.7695
14143TIP3    H263845   0.250   2.398   4.859  0.1791 -0.6795  0.8299
14144TIP3   OH263846   3.991   0.426   1.464 -0.4475  0.3773  0.0766
14144TIP3    H163847   3.919   0.420   1.526 -0.9730  0.3882 -0.5203
14144TIP3    H263848   4.061   0.374   1.503  0.4163  2.9372  2.2613
14145TIP3   OH263849   2.975   4.603  12.822  0.4181 -0.1963  0.3885
14145TIP3    H163850   2.989   4.518  12.780  0.9089  0.1845 -0.2433
14145TIP3    H263851   2.975   4.666  12.750  0.6588  0.4034  0.8972
14146TIP3   OH263852   6.788   3.346   6.374  0.1946  0.6061 -0.3538
14146TIP3    H163853   6.718   3.296   6.333  0.4569  0.2513 -0.3724
14146TIP3    H263854   6.765   3.346   6.468  0.3148  0.2562 -0.3236
14147TIP3   OH263855   5.166   4.000   4.778 -0.0601  0.8953 -0.3062
14147TIP3    H163856   5.127   4.012   4.865  1.3849  0.2999  0.4649
14147TIP3    H263857   5.191   3.908   4.776 -0.9534  0.6644 -1.7594
14148TIP3   OH263858   1.398   1.241  10.479 -0.1906  0.0065 -0.1988
14148TIP3    H163859   1.413   1.147  10.477 -1.1869 -0.1520 -0.6931
14148TIP3    H263860   1.485   1.280  10.480  0.2591 -0.8755 -1.8968
14149TIP3   OH263861   0.294   3.954  11.916 -0.2853  0.6384 -0.3714
14149TIP3    H163862   0.356   3.939  11.988 -0.7805  0.3374  0.0023
14149TIP3    H263863   0.332   4.025  11.865 -1.0753  2.5305  1.5354
14150TIP3   OH263864   3.610   1.440  16.307 -0.4669 -0.6104  0.2733
14150TIP3    H163865   3.566   1.508  16.256  1.5502  1.0701  0.6450
14150TIP3    H263866   3.650   1.383  16.241  2.6562  1.9031 -0.2416
14151TIP3   OH263867   4.872   0.463  13.018  0.0397  0.0284  0.1135
14151TIP3    H163868   4.908   0.550  13.035  2.1135 -0.7870  0.1616
14151TIP3    H263869   4.881   0.451  12.923  1.0686 -0.6495  0.2827
14152TIP3   OH263870   3.746   3.894  10.771  0.4336  0.0797 -0.8780
14152TIP3    H163871   3.744   3.896  10.867  1.5069  2.3750 -0.8142
14152TIP3    H263872   3.656   3.912  10.745  0.1624 -0.3983 -0.2997
14153TIP3   OH263873   5.423   3.733  16.505 -0.0950 -0.0271  0.5427
14153TIP3    H163874   5.445   3.690  16.422  1.9587  0.6192  0.7073
14153TIP3    H263875   5.334   3.703  16.524 -0.5865 -0.2665 -1.8280
14154TIP3   OH263876   1.711   6.742   2.474 -0.2656  0.0147  0.8558
14154TIP3    H163877   1.743   6.728   2.563 -0.1471 -0.3297  0.7634
14154TIP3    H263878   1.697   6.653   2.440  0.5618  0.1055  0.2274
14155TIP3   OH263879   0.312   5.253  11.096 -0.3873  0.7768  0.6289
14155TIP3    H163880   0.332   5.345  11.113  3.3227  0.6107 -1.7942
14155TIP3    H263881   0.376   5.204  11.148  1.3102 -0.1231 -2.0919
14156TIP3   OH263882   6.260   5.614  13.342  0.2797 -0.3893  0.4298
14156TIP3    H163883   6.257   5.526  13.378  1.7206 -0.6212  0.0632
14156TIP3    H263884   6.349   5.622  13.307  0.0722  1.0968  0.1802
14157TIP3   OH263885   1.877   6.475  12.454 -0.4341 -0.8943  0.2543
14157TIP3    H163886   1.919   6.412  12.396  1.1934  0.3831 -0.0318
14157TIP3    H263887   1.842   6.423  12.526 -0.9397 -2.3136 -0.9692
14158TIP3   OH263888   5.243   5.683   1.223  0.5638  0.2124  0.2868
14158TIP3    H163889   5.271   5.749   1.159  1.9831 -0.4326  0.2059
14158TIP3    H263890   5.168   5.723   1.268  1.0519  1.6571 -0.1324
14159TIP3   OH263891   5.350   4.595   1.596  0.2141  0.1472 -0.1741
14159TIP3    H163892   5.430   4.629   1.636 -0.6117 -1.4000  3.1687
14159TIP3    H263893   5.366   4.501   1.585 -0.9104 -0.0802 -0.0136
14160TIP3   OH263894   6.719   2.152   5.113 -0.2638 -0.3883 -0.4324
14160TIP3    H163895   6.697   2.161   5.020  0.6457  0.5928 -0.5582
14160TIP3    H263896   6.707   2.239   5.149 -3.4265 -1.2898  1.0438
14161TIP3   OH263897   5.481   6.285   4.719  0.7767 -0.1377  0.2898
14161TIP3    H163898   5.473   6.295   4.813 -0.3052  0.4592  0.1470
14161TIP3    H263899   5.500   6.373   4.686  1.7483 -0.4474  0.0028
14162TIP3   OH263900   3.103   2.160   0.135 -0.2845  0.0650  0.1069
14162TIP3    H163901   3.012   2.185   0.149 -0.1991  2.3506 -2.4581
14162TIP3    H263902   3.108   2.143   0.041  2.1310  1.0481 -0.0056
14163TIP3   OH263903   3.241   2.926  11.228 -0.3214  0.5956 -0.3677
14163TIP3    H163904   3.276   2.858  11.171  0.7610  0.6064  0.2533
14163TIP3    H263905   3.149   2.933  11.204  0.0409  0.3899 -1.8896
14164TIP3   OH263906   0.682   6.481  10.265  0.5072  0.4126  0.0545
14164TIP3    H163907   0.592   6.451  10.272  0.6164 -0.0726 -0.4925
14164TIP3    H263908   0.734   6.401  10.271  0.9186  0.7270  0.6990
14165TIP3   OH263909   5.306   2.175  13.558  0.2066  0.0153 -0.6986
14165TIP3    H163910   5.350   2.257  13.583  0.3985 -0.1810 -0.3870
14165TIP3    H263911   5.374   2.108  13.568  0.0712 -0.1715 -1.0265
14166TIP3   OH263912   0.435   5.679   0.131 -0.0833 -0.0673 -0.6096
14166TIP3    H163913   0.447   5.676   0.037 -0.2509 -1.3486 -0.6132
14166TIP3    H263914   0.523   5.670   0.167 -0.0290  0.3328 -0.6378
14167TIP3   OH263915   6.264   6.380   4.566 -0.1744  0.0902 -0.0075
14167TIP3    H163916   6.235   6.367   4.475 -0.6312  0.5546  0.0671
14167TIP3    H263917   6.183   6.386   4.616  0.0136  1.9511  0.1352
14168TIP3   OH263918   3.698   0.321  16.489 -0.3388  0.0991  0.1803
14168TIP3    H163919   3.646   0.366  16.555 -2.2785  1.2382 -1.9749
14168TIP3    H263920   3.789   0.336  16.516 -1.0183  1.8294  1.7510
14169TIP3   OH263921   2.334   2.574   1.179  0.4009 -0.0552  0.4816
14169TIP3    H163922   2.296   2.630   1.111  0.7971 -1.0090 -0.5661
14169TIP3    H263923   2.377   2.634   1.238  0.1182  0.8038 -0.1604
14170TIP3   OH263924   4.260   3.143   1.821  0.1694 -0.1680 -0.1900
14170TIP3    H163925   4.226   3.196   1.748 -0.1914 -0.0806  0.0365
14170TIP3    H263926   4.349   3.175   1.834  0.0776  0.1395 -0.2913
14171TIP3   OH263927   2.580   6.543   4.612 -0.0678  0.7635  0.3035
14171TIP3    H163928   2.573   6.518   4.705  0.7117  1.5954  0.6006
14171TIP3    H263929   2.590   6.460   4.566  0.0298  0.3714  1.0093
14172TIP3   OH263930   6.691   3.108  13.942  0.0347  0.2315 -0.1135
14172TIP3    H163931   6.652   3.103  14.029 -0.9098  0.0840 -0.5381
14172TIP3    H263932   6.626   3.069  13.884  1.6094 -1.8071 -0.5992
14173TIP3   OH263933   0.578   3.161   1.450 -0.0968  0.8944 -0.1660
14173TIP3    H163934   0.606   3.213   1.374  0.5146  0.5260 -0.2003
14173TIP3    H263935   0.506   3.212   1.489 -2.6862 -0.4370 -2.8339
14174TIP3   OH263936   0.870   4.036  15.446  0.0206  0.1973 -0.6915
14174TIP3    H163937   0.866   4.092  15.524  0.0737 -1.8477  0.8586
14174TIP3    H263938   0.956   4.055  15.408  0.2968  0.6953  0.1570
14175TIP3   OH263939   0.689   5.042   1.117  0.1471  0.2695  0.0065
14175TIP3    H163940   0.599   5.032   1.146  0.6125 -0.8538  1.1857
14175TIP3    H263941   0.735   5.078   1.193  0.9913 -0.7377  0.0028
14176TIP3   OH263942   4.789   2.752   0.750 -0.7433 -0.1096 -0.3173
14176TIP3    H163943   4.873   2.706   0.750 -1.4258 -1.3792 -1.1215
14176TIP3    H263944   4.775   2.774   0.842  0.7694  0.7201 -0.2393
14177TIP3   OH263945   6.662   3.590  14.880  0.4785 -0.4930  0.1208
14177TIP3    H163946   6.736   3.647  14.858  0.3936 -0.2140  0.5570
14177TIP3    H263947   6.704   3.508  14.908  0.5945 -0.7263 -0.7172
14178TIP3   OH263948   1.322   1.241   5.577 -0.0374 -0.0182  0.4376
14178TIP3    H163949   1.327   1.235   5.672 -1.9141  0.3430  0.5963
14178TIP3    H263950   1.326   1.150   5.547 -0.1235 -0.1803  0.9122
14179TIP3   OH263951   2.948   4.045  12.056 -0.2953  0.6976 -0.5614
14179TIP3    H163952   2.901   3.985  12.114 -0.2478 -1.0690 -2.2630
14179TIP3    H263953   3.023   4.074  12.109 -1.8494  1.5942  1.2953
14180TIP3   OH263954   3.418   0.874  15.319 -0.1240  0.1906 -0.3039
14180TIP3    H163955   3.426   0.779  15.318 -0.2698 -0.0549  3.7306
14180TIP3    H263956   3.329   0.890  15.351 -1.0745  1.8667 -3.3642
14181TIP3   OH263957   6.288   0.987   3.112 -0.2527 -0.6399  0.0968
14181TIP3    H163958   6.252   0.906   3.149 -1.6059 -0.3544 -0.5503
14181TIP3    H263959   6.340   1.025   3.183 -0.3819 -1.5929  0.7183
14182TIP3   OH263960   4.946   2.087   0.489 -0.1484 -0.3231 -0.3477
14182TIP3    H163961   5.020   2.097   0.548  0.6696  2.9012 -1.6817
14182TIP3    H263962   4.968   2.012   0.435  1.5102 -0.2305  0.1660
14183TIP3   OH263963   2.940   4.420   5.200 -0.4545 -0.0047 -0.0131
14183TIP3    H163964   2.934   4.454   5.110  2.7821 -0.3612 -0.5073
14183TIP3    H263965   2.961   4.496   5.253  3.4634 -0.4539 -0.6075
14184TIP3   OH263966   3.826   5.030   4.309 -0.5272  0.5865  0.5823
14184TIP3    H163967   3.803   5.017   4.401 -0.3766  1.0200  0.6833
14184TIP3    H263968   3.845   5.123   4.302  0.7562  0.3216  0.4026
14185TIP3   OH263969   0.936   4.087   4.415 -0.3877  0.3276 -0.0079
14185TIP3    H163970   1.009   4.136   4.453 -1.0564  0.9941  0.4533
14185TIP3    H263971   0.967   3.997   4.411  0.7907  0.7416 -0.6603
14186TIP3   OH263972   6.203   1.188   0.870  0.4838  0.1926 -0.4504
14186TIP3    H163973   6.286   1.220   0.835 -0.2450 -0.3246 -2.7922
14186TIP3    H263974   6.209   1.093   0.861 -0.8124  0.2123 -1.8268
14187TIP3   OH263975   0.402   1.965   2.672  0.3005 -0.0297 -0.3694
14187TIP3    H163976   0.315   1.990   2.642  0.4283 -0.8493 -1.4949
14187TIP3    H263977   0.386   1.911   2.750 -0.3664 -1.9457 -1.7541
14188TIP3   OH263978   1.196   3.444   5.313  0.1714  0.1867  0.9446
14188TIP3    H163979   1.213   3.517   5.373  0.0096  1.5148 -0.5506
14188TIP3    H263980   1.247   3.466   5.235 -0.9092 -0.6408 -0.0222
14189TIP3   OH263981   0.574   1.530  15.014 -0.4112  0.4518 -0.3111
14189TIP3    H163982   0.493   1.493  14.978 -0.6218  1.5568 -0.9877
14189TIP3    H263983   0.643   1.497  14.957 -0.6003  1.1182 -0.9259
14190TIP3   OH263984   0.011   6.424   5.696  0.8446  0.7277  1.0261
14190TIP3    H163985   0.093   6.391   5.660  0.4679  0.0967  0.7195
14190TIP3    H263986   0.026   6.517   5.710  1.0907  0.9343 -0.4957
14191TIP3   OH263987   2.316   5.299  16.325 -0.5606  0.0546 -0.5996
14191TIP3    H163988   2.301   5.391  16.345 -0.2713 -0.2161  0.9577
14191TIP3    H263989   2.358   5.263  16.403 -1.0853 -1.5069 -0.9856
14192TIP3   OH263990   5.293   3.758   4.794 -0.0127  0.6483 -0.1407
14192TIP3    H163991   5.289   3.734   4.701 -0.9012  0.2393 -0.0029
14192TIP3    H263992   5.297   3.675   4.840  2.2257  0.8543  0.1449
14193TIP3   OH263993   5.336   4.202   1.336  0.5318 -0.4015  0.0929
14193TIP3    H163994   5.339   4.113   1.301  0.5032 -0.4996  0.3330
14193TIP3    H263995   5.244   4.215   1.360 -0.0946  0.7534 -2.5900
14194TIP3   OH263996   4.679   3.391  12.524  0.3651 -0.4825  0.4493
14194TIP3    H163997   4.771   3.365  12.525  0.5808 -0.1020 -2.2770
14194TIP3    H263998   4.633   3.317  12.485 -0.5452 -0.6683  1.7834
14195TIP3   OH263999   0.670   2.299  15.154 -0.9001  0.1681  0.5129
14195TIP3    H164000   0.716   2.345  15.225 -0.9584  0.0977  0.5980
14195TIP3    H264001   0.666   2.208  15.184 -0.1900 -0.0182  0.0383
14196TIP3   OH264002   3.997   5.463  11.198  0.1488  0.0239  0.2777
14196TIP3    H164003   3.913   5.459  11.153  0.7617 -2.0219 -0.7661
14196TIP3    H264004   4.041   5.540  11.161  0.2472 -1.0549 -1.9746
14197TIP3   OH264005   0.643   6.570   4.201  0.2381 -0.0579 -0.5722
14197TIP3    H164006   0.549   6.588   4.208  0.3303  0.0022  0.7968
14197TIP3    H264007   0.650   6.475   4.200  0.2037 -0.0755  0.2495
14198TIP3   OH264008   6.459   0.802   5.014 -0.1954  0.3008 -0.1714
14198TIP3    H164009   6.507   0.797   5.096  0.7680 -1.7730 -0.8003
14198TIP3    H264010   6.374   0.762   5.034 -0.6446  1.3882  0.2110
14199TIP3   OH264011   1.207   4.016   0.259 -0.0376 -0.0019  0.1620
14199TIP3    H164012   1.120   4.011   0.218  0.0357  1.0581 -0.1363
14199TIP3    H264013   1.239   4.104   0.238  1.2272 -0.4720  0.0459
14200TIP3   OH264014   4.783   6.299  16.006  0.6520 -0.1522 -0.6217
14200TIP3    H164015   4.845   6.247  15.956 -0.4710 -1.8561 -0.3221
14200TIP3    H264016   4.698   6.258  15.988 -0.1844  1.1671  0.1851
14201TIP3   OH264017   0.726   3.677   5.144  0.9528  0.0763 -0.2108
14201TIP3    H164018   0.797   3.686   5.208 -0.5072 -0.5722  1.5933
14201TIP3    H264019   0.658   3.736   5.175 -0.6033 -1.7580  0.0367
14202TIP3   OH264020   0.059   0.448  11.265 -0.2341  0.1878 -0.1252
14202TIP3    H164021   0.051   0.502  11.186 -0.2182  2.2672  1.2219
14202TIP3    H264022   0.009   0.495  11.331  1.6973 -0.2272  1.7328
14203TIP3   OH264023   2.833   4.334  12.153  0.1293 -0.5737 -0.1318
14203TIP3    H164024   2.858   4.258  12.101 -0.0827  0.5991 -2.0554
14203TIP3    H264025   2.776   4.299  12.222  2.2431 -2.4907  0.7691
14204TIP3   OH264026   1.147   3.370   5.735  0.6345 -0.0868  0.0258
14204TIP3    H164027   1.069   3.320   5.756  1.2944 -1.8049 -1.3182
14204TIP3    H264028   1.170   3.342   5.646  1.2648  2.3759 -0.6858
14205TIP3   OH264029   1.422   0.665  17.109  0.1812 -0.0199  0.1169
14205TIP3    H164030   1.475   0.740  17.137  0.2329  0.7952 -2.0009
14205TIP3    H264031   1.342   0.704  17.073 -0.0963 -1.0247 -0.4051
14206TIP3   OH264032   5.718   2.962  13.445 -0.5252  0.2575  0.1917
14206TIP3    H164033   5.796   2.909  13.459 -0.8234 -0.1465  0.3619
14206TIP3    H264034   5.699   2.952  13.351  0.9505  2.2307 -0.3744
14207TIP3   OH264035   6.314   2.664  14.565 -0.0828 -0.0815 -0.1851
14207TIP3    H164036   6.363   2.665  14.646 -0.3098 -0.9510 -0.0293
14207TIP3    H264037   6.377   2.692  14.498  1.1786 -2.8632 -0.2805
14208TIP3   OH264038   5.909   2.721  12.028  0.0999  0.0745 -0.3309
14208TIP3    H164039   5.976   2.789  12.038  1.9511 -1.3834 -2.1303
14208TIP3    H264040   5.836   2.766  11.985  0.5691  1.2996  0.0955
14209TIP3   OH264041   0.081   1.601  11.650  0.2900 -0.0729  0.1435
14209TIP3    H164042   0.156   1.544  11.666  0.0270 -0.3485  0.4014
14209TIP3    H264043   0.005   1.544  11.660  0.0799 -0.0586 -1.2011
14210TIP3   OH264044   2.723   1.227  16.387 -0.0351  0.2383  0.9412
14210TIP3    H164045   2.796   1.190  16.437 -0.8561 -0.6825  1.4688
14210TIP3    H264046   2.646   1.179  16.417 -1.0814  2.0988  1.3461
14211TIP3   OH264047   4.222   0.914   0.176  0.3972 -0.2928  0.1130
14211TIP3    H164048   4.314   0.926   0.200  1.0773 -1.1637 -1.8847
14211TIP3    H264049   4.174   0.937   0.256  2.4150 -1.8669  1.9146
14212TIP3   OH264050   5.730   5.123  14.979 -0.3968 -0.4589 -0.6331
14212TIP3    H164051   5.755   5.178  14.904 -3.7927  0.2614 -1.4138
14212TIP3    H264052   5.740   5.180  15.055 -0.6115  0.0830 -1.0065
14213TIP3   OH264053   0.660   5.561  16.157  0.3974 -0.0758  0.2129
14213TIP3    H164054   0.679   5.618  16.083 -0.7673  0.5514  0.3719
14213TIP3    H264055   0.568   5.537  16.146  0.0038  0.5785  1.8099
14214TIP3   OH264056   0.735   5.763  17.178  0.0360 -0.3477 -0.3606
14214TIP3    H164057   0.817   5.810  17.163  1.7867 -2.2467  2.2490
14214TIP3    H264058   0.746   5.681  17.130 -0.3163 -0.6291  0.0367
14215TIP3   OH264059   6.760   3.144   0.043 -0.3430  0.1475  0.1792
14215TIP3    H164060   6.676   3.125   0.086 -1.4205 -0.8409 -2.1812
14215TIP3    H264061   6.825   3.133   0.112 -2.1393  1.3164  2.1932
14216TIP3   OH264062   1.486   2.918  16.212 -0.4858  0.5656  0.0721
14216TIP3    H164063   1.530   2.867  16.144 -1.1065 -0.9340  0.7349
14216TIP3    H264064   1.555   2.940  16.274 -0.3527 -0.2518  0.2232
14217TIP3   OH264065   0.450   2.913   2.351  0.1286 -0.5597  0.6353
14217TIP3    H164066   0.518   2.857   2.316 -1.4933 -1.6184 -1.0173
14217TIP3    H264067   0.466   2.915   2.445  1.1755 -2.5119  0.5462
14218TIP3   OH264068   1.787   0.805  11.986  0.4635 -0.5124 -0.3481
14218TIP3    H164069   1.850   0.876  11.977  0.4357 -0.4498 -0.0368
14218TIP3    H264070   1.827   0.744  12.048 -0.1660 -0.0454  0.5211
14219TIP3   OH264071   0.531   1.805  13.754 -0.5449  0.4328 -0.1599
14219TIP3    H164072   0.539   1.868  13.825 -1.8961  2.2245 -1.5086
14219TIP3    H264073   0.518   1.858  13.676  0.4576 -1.4776 -1.7206
14220TIP3   OH264074   3.671   0.748   1.708 -0.0746 -0.2203 -0.7213
14220TIP3    H164075   3.576   0.740   1.699 -0.3169  0.3205  1.0672
14220TIP3    H264076   3.703   0.658   1.700 -0.9179 -0.6352  0.3433
14221TIP3   OH264077   6.006   4.049  13.360  0.0031  0.0244  0.1425
14221TIP3    H164078   5.944   4.068  13.289  1.6901 -0.7416 -1.6163
14221TIP3    H264079   6.092   4.048  13.318  1.2384  0.7728  2.4419
14222TIP3   OH264080   4.879   2.341   1.511  0.1822  0.3820  0.3734
14222TIP3    H164081   4.954   2.348   1.451 -0.2058  0.3566 -0.1131
14222TIP3    H264082   4.920   2.334   1.598  0.7815 -1.1006 -0.0019
14223TIP3   OH264083   3.431   4.534   3.946  0.2934 -0.1541  0.3663
14223TIP3    H164084   3.525   4.551   3.939  0.4675 -0.9452  0.6494
14223TIP3    H264085   3.425   4.457   4.003 -0.3756 -1.6475 -1.6119
14224TIP3   OH264086   0.849   3.838  14.034  0.2688  0.1740 -0.0299
14224TIP3    H164087   0.924   3.781  14.018  0.2013  0.1489 -0.2563
14224TIP3    H264088   0.874   3.923  13.997  0.3982  0.3136  0.3697
14225TIP3   OH264089   1.785   0.725   3.038  0.0180  0.2236 -0.0339
14225TIP3    H164090   1.761   0.816   3.021 -0.8386  0.0417  0.1455
14225TIP3    H264091   1.815   0.692   2.954 -2.5875 -0.1874 -0.9023
14226TIP3   OH264092   4.542   2.844   4.914  0.3272 -0.6611 -0.3242
14226TIP3    H164093   4.471   2.904   4.895  1.4976  0.6944 -0.5552
14226TIP3    H264094   4.556   2.796   4.832  0.6842  0.1658 -0.7598
14227TIP3   OH264095   5.575   5.807  12.671 -0.0537 -0.1054  0.1741
14227TIP3    H164096   5.608   5.886  12.714 -2.7705  1.4954 -0.4209
14227TIP3    H264097   5.569   5.742  12.741 -0.8247  1.2749  1.4629
14228TIP3   OH264098   0.316   6.737  16.198 -0.8286 -0.2828 -0.2910
14228TIP3    H164099   0.364   6.817  16.177 -3.0008  0.7509 -1.7354
14228TIP3    H264100   0.339   6.676  16.127 -0.6650 -0.2485 -0.2664
14229TIP3   OH264101   6.287   4.529  16.804  0.4628 -0.3633 -0.1972
14229TIP3    H164102   6.224   4.521  16.875  0.1017 -1.0348 -0.5841
14229TIP3    H264103   6.350   4.595  16.834 -0.6776  0.6537  0.0081
14230TIP3   OH264104   4.658   3.790  14.429 -0.3056 -0.2828  0.1408
14230TIP3    H164105   4.601   3.817  14.356 -0.3922 -0.8831 -0.0189
14230TIP3    H264106   4.715   3.724  14.391 -0.1583 -0.3893  0.5506
14231TIP3   OH264107   6.403   3.391   4.254 -0.2627 -0.5084 -0.4042
14231TIP3    H164108   6.333   3.326   4.249 -0.3675 -0.3726 -0.7202
14231TIP3    H264109   6.363   3.467   4.296 -0.5112 -0.1605 -1.2647
14232TIP3   OH264110   1.422   4.176  11.649 -0.6007  0.6496 -0.8836
14232TIP3    H164111   1.512   4.205  11.632 -0.3827  1.0790  0.7816
14232TIP3    H264112   1.431   4.082  11.667 -0.5049  0.6573 -0.8880
14233TIP3   OH264113   4.075   5.847   3.610 -0.0019 -0.1207 -0.0165
14233TIP3    H164114   4.051   5.862   3.701 -1.3753 -0.8631 -0.2270
14233TIP3    H264115   4.165   5.816   3.614  0.3852  1.0481  0.9680
14234TIP3   OH264116   6.571   1.865   1.880  0.9516  0.1893 -0.0338
14234TIP3    H164117   6.493   1.909   1.845  0.4254 -0.7961 -0.1451
14234TIP3    H264118   6.558   1.866   1.975  0.5911 -0.3179 -0.0697
14235TIP3   OH264119   1.530   6.591  10.784 -0.6344  0.2810  0.0542
14235TIP3    H164120   1.449   6.570  10.829 -2.2532  0.2866 -2.6433
14235TIP3    H264121   1.562   6.507  10.751  0.4521  0.2862  1.0524
14236TIP3   OH264122   2.400   1.663  14.701  0.8390 -0.2184  0.1469
14236TIP3    H164123   2.331   1.720  14.667 -0.0906 -0.3185  1.7553
14236TIP3    H264124   2.482   1.704  14.672  0.1551  0.9301 -0.2340
14237TIP3   OH264125   5.717   3.980  13.610 -0.3850 -0.5147  0.1172
14237TIP3    H164126   5.661   3.942  13.677 -0.4437 -0.2918  0.1974
14237TIP3    H264127   5.801   3.993  13.654 -0.5906  0.1644  0.3196
14238TIP3   OH264128   4.234   3.726  16.871 -0.2112 -0.1092 -0.0875
14238TIP3    H164129   4.234   3.818  16.895  1.4727 -0.2755  0.7014
14238TIP3    H264130   4.202   3.724  16.781 -0.5548  1.1946 -0.0108
14239TIP3   OH264131   2.251   6.292  11.022 -0.2009  0.6171 -0.1899
14239TIP3    H164132   2.293   6.211  10.992 -1.4496 -0.2707  0.3599
14239TIP3    H264133   2.208   6.267  11.104 -0.4716  1.8943  0.0695
14240TIP3   OH264134   5.641   6.653  12.705 -0.1382  0.2254 -0.2957
14240TIP3    H164135   5.618   6.710  12.778  1.5280  0.4385  0.1115
14240TIP3    H264136   5.563   6.599  12.690 -1.2474  1.6380  0.2289
14241TIP3   OH264137   1.147   3.183  13.489 -0.2032  0.6206  0.5239
14241TIP3    H164138   1.151   3.274  13.461  1.1856  0.7750  1.1548
14241TIP3    H264139   1.117   3.187  13.580 -0.3689  0.4302  0.4781
14242TIP3   OH264140   1.458   5.875   2.322  0.3710 -0.2325 -0.1783
14242TIP3    H164141   1.492   5.820   2.252  1.6549  1.6201 -1.0811
14242TIP3    H264142   1.532   5.891   2.380 -0.5508 -1.3184  1.4090
14243TIP3   OH264143   1.005   0.514  16.918  0.3905 -0.0695 -0.4574
14243TIP3    H164144   0.925   0.565  16.933 -0.3566 -1.3564  0.0947
14243TIP3    H264145   0.985   0.460  16.842 -0.3134 -2.3253  1.2135
14244TIP3   OH264146   3.673   1.393   2.505 -0.1219  0.1997  0.4017
14244TIP3    H164147   3.669   1.478   2.550 -0.5581  1.6311 -2.1411
14244TIP3    H264148   3.762   1.387   2.471 -0.0003 -0.5246  0.8274
14245TIP3   OH264149   3.010   5.493   3.970 -0.2831  0.0285  0.2902
14245TIP3    H164150   3.086   5.550   3.955 -1.0554  0.8492 -0.6879
14245TIP3    H264151   3.017   5.426   3.902 -0.7957  0.5349 -0.2890
14246TIP3   OH264152   2.438   4.238  12.442 -0.2860  0.1846 -0.1127
14246TIP3    H164153   2.381   4.172  12.401  0.4368 -0.4322 -0.1634
14246TIP3    H264154   2.527   4.207  12.423  0.0662  0.4324  1.0578
14247TIP3   OH264155   4.584   6.324   4.935  0.2206  0.4583 -0.2416
14247TIP3    H164156   4.638   6.350   5.009  1.6610  0.4682 -1.2416
14247TIP3    H264157   4.606   6.386   4.866 -0.2768 -0.2004 -1.0184
14248TIP3   OH264158   4.483   5.220  12.524 -0.1833 -0.2027  0.1126
14248TIP3    H164159   4.441   5.299  12.559 -1.7640 -0.8518 -0.2402
14248TIP3    H264160   4.435   5.148  12.564  0.1782 -0.9747 -0.8185
14249TIP3   OH264161   4.820   0.984   3.697 -0.4985  0.5758 -0.6605
14249TIP3    H164162   4.794   0.900   3.736 -1.2820  2.2902  2.9530
14249TIP3    H264163   4.744   1.010   3.645 -1.0364 -0.0869 -0.2297
14250TIP3   OH264164   1.899   0.221   3.196  1.3327  0.9090  0.0340
14250TIP3    H164165   1.911   0.182   3.109 -0.0202 -0.6897  0.5299
14250TIP3    H264166   1.956   0.169   3.254  0.3184  0.3161  0.5177
14251TIP3   OH264167   3.035   2.824   4.183  0.1694 -0.1269  0.1191
14251TIP3    H164168   3.019   2.821   4.089  0.5465  0.9173 -0.0021
14251TIP3    H264169   3.097   2.896   4.193 -0.4861  0.2970  1.2517
14252TIP3   OH264170   2.166   1.883   0.454  0.1615 -0.2623 -0.1737
14252TIP3    H164171   2.163   1.968   0.499  0.2446 -0.1339 -0.4095
14252TIP3    H264172   2.231   1.895   0.385 -0.4650 -0.2331 -0.7765
14253TIP3   OH264173   5.312   2.900   1.480  0.0376  0.4958 -0.1136
14253TIP3    H164174   5.338   2.987   1.510  1.0557 -0.4328  1.9137
14253TIP3    H264175   5.291   2.911   1.388 -1.2834  3.1648  0.4265
14254TIP3   OH264176   0.385   0.651   4.419 -0.0813  0.8627  0.6122
14254TIP3    H164177   0.464   0.700   4.442  0.6017 -0.4394  1.1920
14254TIP3    H264178   0.352   0.619   4.503  0.6266 -1.2888  0.1479
14255TIP3   OH264179   0.701   5.971   0.859  0.2200  0.9130 -0.5073
14255TIP3    H164180   0.770   6.032   0.832  0.4759 -0.1553 -2.4228
14255TIP3    H264181   0.710   5.896   0.800  0.8625 -1.7099  2.6274
14256TIP3   OH264182   6.198   5.065   3.915  0.2371  0.2764 -0.0787
14256TIP3    H164183   6.194   4.984   3.866 -0.2866  0.5194 -0.4399
14256TIP3    H264184   6.204   5.134   3.849 -0.0665  0.5791  0.2030
14257TIP3   OH264185   6.183   5.970   3.855 -0.0764 -0.0509  0.3983
14257TIP3    H164186   6.201   6.057   3.890  1.5607 -0.4306  0.6087
14257TIP3    H264187   6.098   5.978   3.812 -0.6712  1.2518  1.7057
14258TIP3   OH264188   2.833   1.554  11.232  0.5154  0.2387 -0.0503
14258TIP3    H164189   2.746   1.575  11.264  0.0491  0.9504 -1.6600
14258TIP3    H264190   2.874   1.639  11.214  1.5876 -0.0817  0.7679
14259TIP3   OH264191   6.660   1.591   2.757  0.4837  0.2481 -0.2542
14259TIP3    H164192   6.724   1.566   2.690  0.6329  0.1954 -0.0915
14259TIP3    H264193   6.609   1.511   2.772  0.5834  0.2022 -0.1567
14260TIP3   OH264194   3.095   4.983   3.137 -0.0220 -0.2142  0.1661
14260TIP3    H164195   3.150   4.941   3.071  1.0834 -0.3717  1.1386
14260TIP3    H264196   3.151   5.052   3.174 -1.2988  1.1957 -0.4076
14261TIP3   OH264197   2.753   1.651   3.999 -0.4232 -0.1746 -0.9370
14261TIP3    H164198   2.796   1.683   4.079 -1.9975  1.2420 -0.5925
14261TIP3    H264199   2.825   1.631   3.940  0.7924 -1.0826  0.7415
14262TIP3   OH264200   5.028   5.375  14.461  0.0125 -0.4670 -0.8088
14262TIP3    H164201   4.979   5.352  14.540 -0.2844  0.2400 -0.7834
14262TIP3    H264202   5.017   5.299  14.404  1.6632 -1.7556  0.4743
14263TIP3   OH264203   0.595   3.654  16.403 -0.3422  0.1650  0.1566
14263TIP3    H164204   0.627   3.730  16.451 -0.0274 -0.8482  1.6310
14263TIP3    H264205   0.666   3.590  16.409 -0.9047 -0.5239 -0.3754
14264TIP3   OH264206   5.551   0.373   4.940 -0.0784 -0.5187  0.7391
14264TIP3    H164207   5.600   0.290   4.939  1.5498  0.3984  0.0630
14264TIP3    H264208   5.527   0.385   5.032 -0.1055 -1.5971  0.8910
14265TIP3   OH264209   5.351   4.836  11.426  0.0547  0.1531  0.1809
14265TIP3    H164210   5.311   4.897  11.487  0.2076  0.3166  0.1187
14265TIP3    H264211   5.400   4.891  11.365 -1.1000  0.0804 -0.8472
14266TIP3   OH264212   5.596   0.129   0.591  0.6062  0.0205 -0.2913
14266TIP3    H164213   5.573   0.103   0.680 -0.0357  0.2266 -0.3927
14266TIP3    H264214   5.690   0.147   0.595  0.6528 -0.3149  0.2583
14267TIP3   OH264215   1.098   1.247   1.978 -0.2140  0.3893 -0.3554
14267TIP3    H164216   1.142   1.163   1.962 -0.8422  0.0545 -0.3966
14267TIP3    H264217   1.069   1.241   2.069  1.4514  1.3880  0.2826
14268TIP3   OH264218   3.634   6.106  13.507  0.4185  0.2127  0.7733
14268TIP3    H164219   3.626   6.165  13.581 -0.0895  0.9643  0.1450
14268TIP3    H264220   3.545   6.101  13.471  0.8606  0.7774 -0.4606
14269TIP3   OH264221   1.348   6.331  16.376 -0.2825 -0.4116  0.8303
14269TIP3    H164222   1.408   6.396  16.413  0.3139 -0.5751  0.1726
14269TIP3    H264223   1.290   6.308  16.449 -1.9079  2.4195  0.5425
14270TIP3   OH264224   6.511   2.900   2.042 -0.0799 -0.0334 -0.1451
14270TIP3    H164225   6.587   2.946   2.078  0.5659 -1.0170 -0.2110
14270TIP3    H264226   6.509   2.924   1.950 -0.3232  0.6001  0.0147
14271TIP3   OH264227   6.307   5.798   0.782 -0.1337 -0.3183 -0.0596
14271TIP3    H164228   6.212   5.799   0.777 -0.1696  2.6851 -0.2239
14271TIP3    H264229   6.332   5.712   0.746 -2.7074 -0.9482 -0.5408
14272TIP3   OH264230   6.653   1.754  16.497  0.2739  0.5682  0.2880
14272TIP3    H164231   6.602   1.835  16.501  0.1471  0.4610  0.8781
14272TIP3    H264232   6.744   1.783  16.487  0.0812  0.7574 -1.2300
14273TIP3   OH264233   4.135   6.455   3.399  0.6256 -0.7112  1.1977
14273TIP3    H164234   4.049   6.443   3.439  0.1453  0.1255  0.4391
14273TIP3    H264235   4.124   6.428   3.308  1.4165 -1.4773  1.3031
14274TIP3   OH264236   3.026   4.197   4.228 -0.2179  0.4531  0.2976
14274TIP3    H164237   3.017   4.256   4.153 -0.0057 -0.0535 -0.1422
14274TIP3    H264238   2.938   4.165   4.245 -0.2557  0.5077  0.2036
14275TIP3   OH264239   4.221   2.820  16.950 -0.3058 -0.6353  0.4908
14275TIP3    H164240   4.155   2.760  16.987 -0.2919 -1.4708 -0.7655
14275TIP3    H264241   4.190   2.837  16.861  1.5107 -1.6198 -0.3864
14276TIP3   OH264242   6.117   0.537  15.567  0.0322  0.8183 -0.3493
14276TIP3    H164243   6.087   0.599  15.500  0.6076 -0.2376 -1.6496
14276TIP3    H264244   6.203   0.570  15.594 -0.3970  1.4943  0.2182
14277TIP3   OH264245   3.802   1.789   5.920 -0.7336 -0.3354  0.8104
14277TIP3    H164246   3.844   1.705   5.904 -0.5313  0.0667 -0.9710
14277TIP3    H264247   3.863   1.854   5.885 -2.3108  0.3325 -0.8359
14278TIP3   OH264248   1.210   2.040   3.944  0.3278 -0.8410 -0.4953
14278TIP3    H164249   1.135   2.027   3.885 -0.1309  1.0017 -0.3758
14278TIP3    H264250   1.207   2.133   3.966  2.1238 -0.9263  0.2589
14279TIP3   OH264251   6.351   6.719  16.462 -0.1143 -0.0878  0.3107
14279TIP3    H164252   6.342   6.652  16.393 -1.2555  0.8943 -0.5478
14279TIP3    H264253   6.397   6.674  16.533 -1.4288 -1.9979  0.0386
14280TIP3   OH264254   0.552   6.080   4.520 -0.1331 -0.6639  0.5060
14280TIP3    H164255   0.532   6.015   4.453 -0.1014 -0.2601  0.0947
14280TIP3    H264256   0.530   6.038   4.602  3.3698 -2.6800  0.6372
14281TIP3   OH264257   2.290   2.244  11.931 -0.3164 -0.1590  0.2091
14281TIP3    H164258   2.196   2.231  11.932 -0.1738 -1.2082  1.2915
14281TIP3    H264259   2.325   2.172  11.878 -0.1083  0.1557 -0.0888
14282TIP3   OH264260   6.730   4.149   0.338 -0.1280  0.5513  0.1490
14282TIP3    H164261   6.811   4.155   0.388  0.0933 -1.4877  0.1156
14282TIP3    H264262   6.751   4.090   0.265 -1.4385  0.5463 -0.2499
14283TIP3   OH264263   1.084   0.749  16.000 -0.1965 -0.1326 -0.2302
14283TIP3    H164264   1.026   0.813  15.958  0.7131  0.2158 -1.0166
14283TIP3    H264265   1.147   0.726  15.931  0.7413 -0.3042  0.6684
14284TIP3   OH264266   0.351   2.725   0.148  0.0218 -0.9478 -0.0043
14284TIP3    H164267   0.437   2.753   0.179 -0.5858  1.0742 -0.0605
14284TIP3    H264268   0.371   2.674   0.069  1.1271  0.5959 -0.7798
14285TIP3   OH264269   4.684   0.902  13.720 -0.1022  0.7406  0.2983
14285TIP3    H164270   4.669   0.991  13.753  0.4839  0.8031  0.4029
14285TIP3    H264271   4.703   0.850  13.798  2.0283  1.0391  0.0360
14286TIP3   OH264272   0.153   1.291   1.812  0.5102 -0.1778 -0.0204
14286TIP3    H164273   0.171   1.286   1.718 -0.5407  2.6992 -0.4723
14286TIP3    H264274   0.187   1.377   1.839  0.9781 -1.0046  2.3091
14287TIP3   OH264275   4.131   4.092  14.379 -0.5947 -0.0841  0.0079
14287TIP3    H164276   4.114   4.049  14.296 -2.4037  1.9350 -0.7498
14287TIP3    H264277   4.210   4.049  14.413  0.9075 -0.2122 -3.2800
14288TIP3   OH264278   2.891   3.541  11.117 -0.5175  0.3544 -0.0274
14288TIP3    H164279   2.824   3.475  11.100  0.0715 -0.0573 -0.8148
14288TIP3    H264280   2.948   3.538  11.040  0.9156  0.0770  0.9972
14289TIP3   OH264281   3.630   4.946   5.643  0.5634 -0.1673  0.0014
14289TIP3    H164282   3.575   4.894   5.702 -2.3609  1.2694 -1.2432
14289TIP3    H264283   3.690   4.994   5.701  0.1076 -1.3338  1.4901
14290TIP3   OH264284   1.606   4.667   2.966 -0.2849  0.2185 -0.2669
14290TIP3    H164285   1.576   4.593   2.914 -0.5975  1.1473 -1.4640
14290TIP3    H264286   1.579   4.744   2.916  0.1203  1.1448  0.8844
14291TIP3   OH264287   0.675   0.484  10.780 -0.4531  0.4985  0.2168
14291TIP3    H164288   0.615   0.557  10.795 -0.2066  0.6067  0.6885
14291TIP3    H264289   0.618   0.410  10.759 -0.6722  0.9966 -1.0275
14292TIP3   OH264290   1.628   0.443   2.989  0.2659  0.7233 -0.3560
14292TIP3    H164291   1.659   0.440   3.079  1.5385  0.1509 -0.7875
14292TIP3    H264292   1.558   0.378   2.985 -1.6299  2.5956  0.8305
14293TIP3   OH264293   0.118   5.684  11.201 -0.4876  0.3147 -0.0883
14293TIP3    H164294   0.186   5.739  11.240 -0.4944  0.5988 -0.4726
14293TIP3    H264295   0.166   5.610  11.163 -0.3623  0.6486 -0.5922
14294TIP3   OH264296   0.819   5.613  15.271 -0.7457  0.1558  0.3539
14294TIP3    H164297   0.892   5.605  15.333 -1.1920 -0.3384  0.8239
14294TIP3    H264298   0.741   5.613  15.326 -1.0921  1.3627 -0.0924
14295TIP3   OH264299   4.319   3.172   0.214 -0.0091 -0.3564  0.4378
14295TIP3    H164300   4.319   3.266   0.194  0.9653 -0.2488  0.8966
14295TIP3    H264301   4.324   3.129   0.128 -0.3727  0.0081  0.2304
14296TIP3   OH264302   4.913   3.622  14.104  0.3782 -0.2590  0.0428
14296TIP3    H164303   4.885   3.559  14.037 -0.4185  1.9543 -1.8853
14296TIP3    H264304   4.863   3.701  14.083  0.6374  0.7571  2.9087
14297TIP3   OH264305   4.413   6.134   5.068  0.2794  0.3588 -0.0998
14297TIP3    H164306   4.467   6.211   5.049  0.5979  0.1241 -0.1400
14297TIP3    H264307   4.475   6.063   5.082  0.0101  0.2405  0.5522
14298TIP3   OH264308   0.335   2.937  12.937  0.4855 -0.7721  0.0539
14298TIP3    H164309   0.429   2.950  12.927  1.0630 -1.4309  3.3100
14298TIP3    H264310   0.319   2.849  12.904  1.6485 -1.7901  2.0144
14299TIP3   OH264311   0.457   2.419  16.003  0.2863 -0.2381  0.8579
14299TIP3    H164312   0.474   2.335  15.961  1.3703  0.3112  0.1649
14299TIP3    H264313   0.397   2.464  15.944  0.4294 -0.1554  0.7771
14300TIP3   OH264314   1.167   5.466  13.616  0.1985 -0.2365 -0.2853
14300TIP3    H164315   1.178   5.457  13.710 -0.6752 -1.2477 -0.2560
14300TIP3    H264316   1.255   5.478  13.582  0.6933 -1.4852  0.5085
14301TIP3   OH264317   3.345   5.927  14.879  0.3462  0.7589  0.3585
14301TIP3    H164318   3.363   6.021  14.890 -1.4691  1.7208 -3.2703
14301TIP3    H264319   3.402   5.900  14.807  2.0517 -1.4828  2.3954
14302TIP3   OH264320   0.722   2.786   4.895  0.1721  0.3182 -0.3174
14302TIP3    H164321   0.753   2.876   4.885  1.2416  0.8581  4.8365
14302TIP3    H264322   0.634   2.795   4.932  0.8920 -0.5936  1.7513
14303TIP3   OH264323   1.340   1.443   4.216 -0.4255  0.0675  0.0792
14303TIP3    H164324   1.424   1.423   4.257 -0.7654  0.4448  0.9806
14303TIP3    H264325   1.340   1.391   4.136  0.3599 -0.5057  0.4339
14304TIP3   OH264326   0.483   1.976  11.190  0.0636  0.1408  0.3198
14304TIP3    H164327   0.539   1.903  11.164  0.4163 -0.2932  2.1759
14304TIP3    H264328   0.538   2.053  11.177  0.0449  0.0008 -0.6691
14305TIP3   OH264329   5.564   5.302   3.026 -0.0780 -0.6419  0.4021
14305TIP3    H164330   5.658   5.289   3.037 -0.0631 -0.8399  0.0586
14305TIP3    H264331   5.525   5.269   3.107  0.1277 -0.8252  0.4276
14306TIP3   OH264332   4.795   6.278   3.363 -0.8451  0.6812  0.0066
14306TIP3    H164333   4.861   6.317   3.419  1.1616  0.6956 -2.2018
14306TIP3    H264334   4.804   6.324   3.279 -2.2727 -0.7102 -0.9850
14307TIP3   OH264335   4.751   3.375   3.616 -0.5228 -0.0965  0.4302
14307TIP3    H164336   4.694   3.308   3.654  0.9196 -2.3522 -1.1096
14307TIP3    H264337   4.717   3.386   3.527 -1.3908  2.1040  0.9685
14308TIP3   OH264338   4.120   6.779   2.696  0.0667 -0.0994  0.0515
14308TIP3    H164339   4.141   6.873   2.700  1.4271 -0.4291  1.5385
14308TIP3    H264340   4.032   6.777   2.658 -0.4398  1.8617  0.9370
14309TIP3   OH264341   2.506   4.776  16.870  0.1845  0.3841  0.3866
14309TIP3    H164342   2.469   4.860  16.845 -0.9799 -0.3812 -0.5943
14309TIP3    H264343   2.430   4.722  16.894  0.5292 -1.3958 -2.1507
14310TIP3   OH264344   3.561   1.226  14.618 -0.3107  0.0814  0.0446
14310TIP3    H164345   3.487   1.241  14.559 -2.1261 -0.4574  2.0604
14310TIP3    H264346   3.624   1.294  14.594 -2.0334  1.4517 -0.8475
14311TIP3   OH264347   5.072   1.684   3.795  0.2671 -0.5537 -0.1524
14311TIP3    H164348   5.124   1.694   3.875 -0.0782  3.5101 -0.2407
14311TIP3    H264349   4.989   1.647   3.825  0.4882  0.0126  1.2121
14312TIP3   OH264350   4.653   2.463  14.560 -0.2518  0.1977 -0.1800
14312TIP3    H164351   4.642   2.522  14.634  0.9222 -2.1604  2.0134
14312TIP3    H264352   4.726   2.500  14.510  0.1476  0.8741  0.8807
14313TIP3   OH264353   5.277   3.481   1.353 -0.1280 -0.5418 -0.2473
14313TIP3    H164354   5.195   3.436   1.378  0.2281 -1.9973 -1.4793
14313TIP3    H264355   5.323   3.495   1.435 -1.7571  0.6239  0.5148
14314TIP3   OH264356   5.057   6.751   4.007  0.5090  0.1989 -0.3432
14314TIP3    H164357   5.028   6.750   4.098  0.8374  0.3671 -0.2352
14314TIP3    H264358   5.095   6.838   3.994  1.7998 -0.3176 -0.2038
14315TIP3   OH264359   2.931   1.897   2.230 -0.5046 -0.5028 -0.4844
14315TIP3    H164360   3.023   1.889   2.254 -0.2094  0.0104 -1.4009
14315TIP3    H264361   2.909   1.812   2.192  0.0482 -0.1247 -1.7094
14316TIP3   OH264362   3.453   4.455  17.166  0.8757  0.4513 -0.4626
14316TIP3    H164363   3.469   4.507  17.245 -0.3480 -0.5944  0.5196
14316TIP3    H264364   3.523   4.389  17.165  0.4616 -0.0035  0.1731
14317TIP3   OH264365   0.792   0.559  16.485 -0.8966 -0.2306 -0.1987
14317TIP3    H164366   0.856   0.516  16.428 -1.7817 -0.9794 -0.6557
14317TIP3    H264367   0.814   0.652  16.480 -0.2704 -0.4005 -0.8737
14318TIP3   OH264368   5.367   6.235   3.480  0.3010  0.6938 -0.3537
14318TIP3    H164369   5.381   6.268   3.391 -1.1314  2.0941 -0.0927
14318TIP3    H264370   5.295   6.173   3.471  0.6936  0.2223 -0.2829
14319TIP3   OH264371   5.126   4.782  16.386  0.4574 -0.5860 -0.2871
14319TIP3    H164372   5.108   4.842  16.458 -1.0071 -1.1654 -0.1478
14319TIP3    H264373   5.121   4.836  16.307  3.4685  0.3675  0.0414
14320TIP3   OH264374   2.709   1.381  14.424 -0.1988  0.0908  0.3242
14320TIP3    H164375   2.639   1.356  14.484 -2.5525 -0.2724 -2.3543
14320TIP3    H264376   2.704   1.316  14.353  1.7861  1.0561 -0.7933
14321TIP3   OH264377   4.670   3.403   3.298 -0.2269  0.0588  0.4935
14321TIP3    H164378   4.588   3.356   3.311  0.2649 -0.4523  1.9987
14321TIP3    H264379   4.688   3.396   3.205 -0.9527 -1.4480  0.4392
14322TIP3   OH264380   4.539   5.287   0.448  0.3560  0.3505  0.1939
14322TIP3    H164381   4.565   5.262   0.536  0.6748 -0.2404 -0.0620
14322TIP3    H264382   4.570   5.377   0.438 -1.5987  1.2410  1.4521
14323TIP3   OH264383   2.526   1.384  14.180 -0.3255  0.7911 -0.0112
14323TIP3    H164384   2.522   1.479  14.175  0.0708  0.7277 -2.3458
14323TIP3    H264385   2.435   1.356  14.167 -0.1073  0.8075 -1.7046
14324TIP3   OH264386   0.376   0.511   0.729 -0.0858  0.0293 -0.1748
14324TIP3    H164387   0.434   0.581   0.698  1.0869 -1.3646 -1.2321
14324TIP3    H264388   0.342   0.471   0.649  1.3184 -2.2645  0.2850
14325TIP3   OH264389   6.330   2.283  15.269 -0.6892  0.3988 -0.2240
14325TIP3    H164390   6.326   2.352  15.203 -1.7206 -1.1045 -1.8288
14325TIP3    H264391   6.246   2.237  15.260 -0.8583  0.1175  2.1521
14326TIP3   OH264392   2.286   5.973   0.361  0.3427  0.8193 -0.2130
14326TIP3    H164393   2.357   5.985   0.424  0.2381  2.1874 -0.3261
14326TIP3    H264394   2.285   5.879   0.344  0.7676  0.4900  1.3664
14327TIP3   OH264395   1.806   5.258   4.649  0.2753 -0.2235  0.0486
14327TIP3    H164396   1.876   5.302   4.698  0.3659 -1.5606  1.1623
14327TIP3    H264397   1.850   5.189   4.600 -0.1060 -0.3190 -0.1653
14328TIP3   OH264398   0.555   3.214  12.493 -0.0527  0.1086 -0.3159
14328TIP3    H164399   0.515   3.301  12.495  0.1628  0.2075  1.4839
14328TIP3    H264400   0.537   3.178  12.580  0.2851 -1.4595 -0.8661
14329TIP3   OH264401   4.108   5.314   0.036 -0.2296  0.3037 -0.2059
14329TIP3    H164402   4.099   5.338  -0.056 -0.8349  0.8777  0.0027
14329TIP3    H264403   4.026   5.271   0.058 -0.9272  1.9908  0.6074
14330TIP3   OH264404   2.909   4.726   1.301  0.0683  0.2111 -0.3048
14330TIP3    H164405   2.879   4.799   1.355 -1.3610 -0.6376  0.0933
14330TIP3    H264406   2.855   4.731   1.222 -0.9992 -1.1726  0.2945
14331TIP3   OH264407   1.459   6.260  14.279  0.2881 -0.0827  0.6233
14331TIP3    H164408   1.508   6.321  14.334 -0.5897 -0.2657  1.6353
14331TIP3    H264409   1.481   6.286  14.189  0.1426  1.5577  1.0292
14332TIP3   OH264410   2.209   1.729  12.975 -0.2520 -0.3955  0.5417
14332TIP3    H164411   2.180   1.790  13.042 -1.6369  0.0674 -0.4114
14332TIP3    H264412   2.294   1.697  13.005  1.0412  2.7760  0.5958
14333TIP3   OH264413   2.430   1.043  13.638 -0.2332 -0.1226 -0.3972
14333TIP3    H164414   2.398   1.133  13.644 -1.0551 -0.2489 -2.1531
14333TIP3    H264415   2.359   0.995  13.596 -0.5528 -2.0422  2.1318
14334TIP3   OH264416   2.312   2.923   3.075  0.1637  0.0337  0.5541
14334TIP3    H164417   2.331   2.997   3.018  0.5717 -0.7747 -0.3821
14334TIP3    H264418   2.381   2.925   3.142 -1.2277  1.9526  2.0647
14335TIP3   OH264419   2.088   3.261   4.591  0.1195 -0.5768 -0.0862
14335TIP3    H164420   2.013   3.202   4.592  0.4486 -1.0209  1.0328
14335TIP3    H264421   2.133   3.243   4.674  0.0332  1.4906  0.4713
14336TIP3   OH264422   3.486   4.542  16.596  0.3739 -0.2035 -0.2734
14336TIP3    H164423   3.480   4.450  16.622  0.1893 -0.1374 -0.0858
14336TIP3    H264424   3.437   4.548  16.514 -0.6933 -0.0122  0.3685
14337TIP3   OH264425   0.660   2.879  13.390 -0.3045  0.2813 -0.1935
14337TIP3    H164426   0.711   2.807  13.428 -0.5923  0.5472  0.7287
14337TIP3    H264427   0.706   2.901  13.309  2.0297  1.5789  1.3785
14338TIP3   OH264428   1.632   5.122   2.376 -0.0545 -0.7578 -0.2528
14338TIP3    H164429   1.552   5.098   2.423 -0.5226 -1.4834 -1.3688
14338TIP3    H264430   1.689   5.046   2.384  1.4504  0.4788  2.2879
14339TIP3   OH264431   2.417   1.504   2.905  0.1613 -0.1212  0.7126
14339TIP3    H164432   2.343   1.443   2.909 -0.3295  0.4542  0.5159
14339TIP3    H264433   2.470   1.474   2.832  0.0738 -0.4807  0.7962
14340TIP3   OH264434   2.884   5.783  12.076 -0.7051  0.4413 -0.4159
14340TIP3    H164435   2.845   5.809  12.160  0.2084  3.3010 -0.7655
14340TIP3    H264436   2.952   5.721  12.100 -0.3472  1.3401  1.0235
14341TIP3   OH264437   3.032   5.021  15.877 -0.2945 -0.1629  0.7235
14341TIP3    H164438   2.975   4.951  15.846  0.4542  0.2234 -1.7774
14341TIP3    H264439   3.119   4.997  15.846  0.4355  0.6349  2.0508
14342TIP3   OH264440   6.371   4.414  12.252  0.5093 -0.0350 -0.4513
14342TIP3    H164441   6.374   4.320  12.233  2.1222  0.2014 -1.5718
14342TIP3    H264442   6.303   4.448  12.194  0.1695 -0.4602 -0.3039
14343TIP3   OH264443   6.543   5.868  15.941  0.6140  0.4023  0.0889
14343TIP3    H164444   6.540   5.791  15.884  1.0879  1.3618 -1.2982
14343TIP3    H264445   6.468   5.858  15.999 -0.7807  0.0977 -1.6833
14344TIP3   OH264446   4.968   0.156  16.260  0.3996 -0.0582  1.0064
14344TIP3    H164447   4.971   0.212  16.183  1.5635 -0.2727  0.8691
14344TIP3    H264448   4.951   0.216  16.333  2.1260  0.6057  0.9285
14345TIP3   OH264449   5.749   4.570  11.711 -0.5924 -0.3927  0.1537
14345TIP3    H164450   5.686   4.554  11.641  0.5720  0.0826 -1.0423
14345TIP3    H264451   5.715   4.521  11.786 -2.0661 -0.6009 -0.6202
14346TIP3   OH264452   5.552   6.071   5.814 -0.2809  0.0569 -0.4796
14346TIP3    H164453   5.525   5.992   5.860  0.5498  0.3568  0.5610
14346TIP3    H264454   5.494   6.075   5.738 -1.7229 -0.4467  0.5353
14347TIP3   OH264455   1.349   1.893   0.427 -0.3903 -0.2373  0.5532
14347TIP3    H164456   1.367   1.803   0.401 -2.8309 -0.9712  1.0869
14347TIP3    H264457   1.303   1.931   0.352  0.9914  0.7430  0.1652
14348TIP3   OH264458   6.577   5.788  15.008  0.5142 -0.6758  0.5743
14348TIP3    H164459   6.626   5.712  15.041  0.3184 -1.0857 -0.0767
14348TIP3    H264460   6.644   5.854  14.993  0.8940 -1.2501 -0.3524
14349TIP3   OH264461   1.809   5.604   4.687  0.2038  0.5386 -0.4932
14349TIP3    H164462   1.751   5.639   4.620 -1.6041 -0.5473  0.4312
14349TIP3    H264463   1.851   5.682   4.725 -0.8455  1.3762 -1.0073
14350TIP3   OH264464   4.789   4.969  14.493  0.1535  0.1715  0.0317
14350TIP3    H164465   4.873   4.966  14.538  0.1331  1.8698  0.2558
14350TIP3    H264466   4.732   4.911  14.544  0.9851 -0.4177  0.3009
14351TIP3   OH264467   2.403   4.760   0.053  0.3136 -0.7194  0.1175
14351TIP3    H164468   2.342   4.786  -0.016 -1.7532 -1.0783  1.6997
14351TIP3    H264469   2.421   4.841   0.101 -1.0435 -1.0283  1.2062
14352TIP3   OH264470   2.340   4.732   4.616  0.1984 -0.0123  0.5423
14352TIP3    H164471   2.422   4.692   4.588  0.5852  0.5764  0.8122
14352TIP3    H264472   2.360   4.773   4.700 -0.8971 -1.5652  1.6271
14353TIP3   OH264473   5.428   6.296  10.133 -0.1114 -0.8949 -0.2042
14353TIP3    H164474   5.335   6.281  10.118 -0.7357  0.5972  1.7097
14353TIP3    H264475   5.453   6.227  10.195 -0.5326 -0.0512  0.9537
14354TIP3   OH264476   0.308   0.587  11.501  0.3973  0.2553  0.0339
14354TIP3    H164477   0.333   0.655  11.438 -0.9941  0.4682 -0.3289
14354TIP3    H264478   0.303   0.507  11.449 -0.3553  0.3567 -0.0703
14355TIP3   OH264479   1.425   1.733  13.764 -0.2459 -0.6608  0.3274
14355TIP3    H164480   1.447   1.812  13.814  1.3051 -1.7088  1.3988
14355TIP3    H264481   1.508   1.687  13.754 -1.2618 -2.6877  0.6529
14356TIP3   OH264482   3.495   1.702  10.907 -0.0410  0.1613 -0.0108
14356TIP3    H164483   3.399   1.707  10.909 -0.0138  1.1054 -0.3647
14356TIP3    H264484   3.521   1.781  10.860  0.9258  0.0345  0.3098
14357TIP3   OH264485   6.682   0.842  13.538 -0.2138 -0.4920 -0.1795
14357TIP3    H164486   6.704   0.890  13.617 -0.0752  0.0431 -0.5368
14357TIP3    H264487   6.675   0.751  13.566  2.6033 -0.7431 -0.0695
14358TIP3   OH264488   6.627   6.219  14.063  0.2439  0.5975 -0.0143
14358TIP3    H164489   6.687   6.207  13.990  0.4928  1.1213  0.1005
14358TIP3    H264490   6.670   6.282  14.120 -0.1630  0.5520  0.3514
14359TIP3   OH264491   1.220   5.583   0.646 -0.0568  0.0384  0.6684
14359TIP3    H164492   1.194   5.601   0.736 -0.3208  0.6064  0.4788
14359TIP3    H264493   1.138   5.561   0.601 -0.0109  0.3600  0.4231
14360TIP3   OH264494   3.615   1.585   0.282  0.1923 -0.0004 -0.1896
14360TIP3    H164495   3.604   1.571   0.188 -0.9242  0.9605 -0.2287
14360TIP3    H264496   3.652   1.503   0.315  0.6913 -0.3182 -1.4672
14361TIP3   OH264497   5.117   6.300  13.932  0.5057 -0.3671  0.0295
14361TIP3    H164498   5.030   6.312  13.971  1.0914  2.4940  0.7368
14361TIP3    H264499   5.099   6.281  13.840 -0.8533 -2.7757  0.7222
14362TIP3   OH264500   3.666   1.152  13.191  0.5279  0.5082  0.0069
14362TIP3    H164501   3.661   1.242  13.159  0.9172  0.2187 -0.9219
14362TIP3    H264502   3.585   1.111  13.161  1.4523 -0.1148 -1.8272
14363TIP3   OH264503   0.480   4.830   2.732 -0.4117 -0.7104  0.1848
14363TIP3    H164504   0.506   4.742   2.705 -1.1868 -0.5540 -1.1325
14363TIP3    H264505   0.387   4.835   2.714 -0.1762  0.7499 -0.8535
14364TIP3   OH264506   4.191   3.756   2.850 -0.0924 -0.0352 -0.5697
14364TIP3    H164507   4.235   3.807   2.782 -1.1163  0.6863 -0.7149
14364TIP3    H264508   4.261   3.731   2.911  0.4602  1.4761 -0.5390
14365TIP3   OH264509   0.332   0.909  11.003  0.2382  0.9558 -0.3619
14365TIP3    H164510   0.278   0.974  10.959 -0.3476 -0.1448 -1.3402
14365TIP3    H264511   0.271   0.839  11.028  1.3223 -0.9856 -2.7544
14366TIP3   OH264512   5.501   5.961   1.412  0.2623  0.0308  0.0648
14366TIP3    H164513   5.577   5.976   1.355 -1.1978  1.1670 -1.6990
14366TIP3    H264514   5.472   5.873   1.388  0.6541 -0.1725  0.3188
14367TIP3   OH264515   1.771   2.830   4.956  0.2308 -0.1808 -0.4483
14367TIP3    H164516   1.681   2.848   4.985  0.5246 -0.0225  0.3957
14367TIP3    H264517   1.786   2.891   4.884 -0.0783  0.3233 -0.0906
14368TIP3   OH264518   1.965   3.612   0.912  0.1184 -0.0157  0.4456
14368TIP3    H164519   2.029   3.682   0.896 -0.2318 -0.1330 -1.7438
14368TIP3    H264520   1.908   3.648   0.980 -1.5644  2.9913 -2.2769
14369TIP3   OH264521   1.135   1.282  11.893  0.7278 -0.5247 -0.1405
14369TIP3    H164522   1.130   1.256  11.985  2.8934 -0.8862 -0.0646
14369TIP3    H264523   1.106   1.373  11.892  2.5009  0.1301  1.2781
14370TIP3   OH264524   5.778   5.619  13.583  0.7537 -0.4504  0.6495
14370TIP3    H164525   5.783   5.581  13.495 -1.6119 -0.7808  0.5981
14370TIP3    H264526   5.763   5.545  13.641 -0.0800 -0.0110  1.0193
14371TIP3   OH264527   3.479   1.686  13.261 -0.3277 -0.2289 -1.0406
14371TIP3    H164528   3.411   1.663  13.198 -0.6096 -0.9072 -0.5093
14371TIP3    H264529   3.471   1.619  13.330  0.1324  0.3451 -0.4154
14372TIP3   OH264530   3.205   2.920   5.364 -0.3584  0.6870 -0.1759
14372TIP3    H164531   3.224   2.829   5.386 -0.6282  0.8045  0.5621
14372TIP3    H264532   3.275   2.970   5.406  0.2045  0.7778 -1.1807
14373TIP3   OH264533   2.005   3.562   3.713  0.4197 -0.1104 -0.3551
14373TIP3    H164534   1.934   3.625   3.722 -0.7871 -1.1504 -1.9762
14373TIP3    H264535   2.077   3.612   3.675  0.5551  0.9235  1.1764
14374TIP3   OH264536   3.655   5.016   5.183  0.0490  0.0283  0.0004
14374TIP3    H164537   3.686   5.061   5.261  0.5568 -0.8326  0.3124
14374TIP3    H264538   3.566   5.048   5.170  0.2070  0.7004  0.5224
14375TIP3   OH264539   4.149   3.860  11.473  0.2723  0.8062 -0.2258
14375TIP3    H164540   4.147   3.795  11.543  1.7422  0.4407 -0.4889
14375TIP3    H264541   4.199   3.818  11.403  0.3804  1.8502 -0.7882
14376TIP3   OH264542   0.847   0.548   3.576  0.9711 -0.4790 -0.0795
14376TIP3    H164543   0.928   0.595   3.552  1.1783 -0.6938  0.1926
14376TIP3    H264544   0.788   0.564   3.503  1.1933 -0.1553 -0.1933
14377TIP3   OH264545   5.832   1.796   5.412 -0.4788 -0.2045  0.7251
14377TIP3    H164546   5.762   1.789   5.347  0.7884 -1.6812 -0.5723
14377TIP3    H264547   5.896   1.730   5.386  3.0742  3.2084 -0.1893
14378TIP3   OH264548   3.211   6.629  12.963 -0.0526  0.5771 -0.0943
14378TIP3    H164549   3.282   6.647  12.902  0.4647 -0.8423  0.0563
14378TIP3    H264550   3.137   6.679  12.929  0.0962 -0.4901 -2.1495
14379TIP3   OH264551   4.061   5.453   5.480 -0.3544  0.1053  0.0105
14379TIP3    H164552   4.116   5.527   5.507 -0.9326  0.0113  1.5439
14379TIP3    H264553   4.087   5.381   5.538 -0.6475 -0.5420 -0.6444
14380TIP3   OH264554   1.032   2.659   0.453 -0.0978  0.0659  0.0118
14380TIP3    H164555   1.071   2.572   0.446 -2.1593 -0.8411 -1.2402
14380TIP3    H264556   1.086   2.714   0.398  0.6322 -0.6531 -0.0181
14381TIP3   OH264557   4.573   6.049   2.476  0.1633 -0.5730  0.4052
14381TIP3    H164558   4.665   6.074   2.472  0.3992 -1.5465 -1.7259
14381TIP3    H264559   4.537   6.078   2.392 -1.1709 -1.3108  0.7006
14382TIP3   OH264560   6.197   0.040  14.434 -0.3701  0.6518  0.4157
14382TIP3    H164561   6.169  -0.020  14.503 -2.3016  2.9995  1.8337
14382TIP3    H264562   6.153   0.007  14.355 -0.7616 -0.2236  0.9729
14383TIP3   OH264563   1.475   2.255  11.984 -0.9504 -0.2458  0.3643
14383TIP3    H164564   1.416   2.223  12.052 -0.8856  1.0453  1.0531
14383TIP3    H264565   1.417   2.289  11.916 -1.0069 -0.9376  0.0572
14384TIP3   OH264566   5.652   6.044   3.418  0.1347 -0.1684  0.0894
14384TIP3    H164567   5.723   5.996   3.375  1.5175  1.6183  0.2262
14384TIP3    H264568   5.652   6.130   3.375 -0.3958  0.6595  1.6491
14385TIP3   OH264569   5.478   1.174   4.545  0.4198 -0.6580  0.1649
14385TIP3    H164570   5.490   1.204   4.455 -1.0934 -1.0280 -0.1902
14385TIP3    H264571   5.485   1.078   4.540  0.6195 -0.6630  0.4987
14386TIP3   OH264572   3.560   4.267  16.536 -0.2712  0.2344  0.3962
14386TIP3    H164573   3.498   4.221  16.591 -1.0128  0.4587 -0.2317
14386TIP3    H264574   3.544   4.233  16.448  1.2735 -0.5385  0.3703
14387TIP3   OH264575   0.125   0.326  13.124 -0.3110  0.7234 -0.3019
14387TIP3    H164576   0.143   0.232  13.118  0.6145  0.8703 -0.0864
14387TIP3    H264577   0.030   0.332  13.132 -0.3786 -0.1961 -0.2575
14388TIP3   OH264578   2.564   4.913   3.459  0.1498  0.0059  0.4860
14388TIP3    H164579   2.485   4.967   3.460  0.7181  0.8733  1.7051
14388TIP3    H264580   2.632   4.971   3.423  0.4538 -0.3975  0.4008
14389TIP3   OH264581   3.356   5.731  13.499 -0.0042  0.3992 -0.1038
14389TIP3    H164582   3.334   5.695  13.585  2.0333 -2.0831 -0.4897
14389TIP3    H264583   3.304   5.680  13.437  0.1318  0.6789 -0.4520
14390TIP3   OH264584   6.627   3.906  12.775 -0.5396  0.4015  0.2750
14390TIP3    H164585   6.634   3.955  12.693  0.6161 -0.3391 -0.0921
14390TIP3    H264586   6.533   3.900  12.791 -0.7315  1.8755 -0.1795
14391TIP3   OH264587   2.986   6.644  10.650 -0.3588  0.4865 -0.1321
14391TIP3    H164588   3.030   6.626  10.733 -0.6017 -0.4069 -0.1905
14391TIP3    H264589   2.898   6.608  10.661 -0.8533  1.6075 -0.2761
14392TIP3   OH264590   5.387   4.391   0.384 -0.0152  0.3624  0.1869
14392TIP3    H164591   5.475   4.353   0.392 -0.1244  0.3088  1.2071
14392TIP3    H264592   5.402   4.486   0.382  0.0870  0.3433 -0.0154
14393TIP3   OH264593   0.722   0.117  13.263 -0.1075 -0.1500  0.0586
14393TIP3    H164594   0.766   0.163  13.192  0.2019  0.2277  0.4966
14393TIP3    H264595   0.785   0.116  13.335 -0.1545 -1.1400  0.1055
14394TIP3   OH264596   4.920   6.323   1.866  0.3645  0.5625 -0.2455
14394TIP3    H164597   4.850   6.377   1.831  1.3352  1.5600 -0.7348
14394TIP3    H264598   4.971   6.383   1.920  0.5940 -0.2476  0.4562
14395TIP3   OH264599   0.578   6.222  14.864 -0.6242 -0.2365  0.2655
14395TIP3    H164600   0.543   6.193  14.779  0.5675  0.3703 -0.4587
14395TIP3    H264601   0.637   6.151  14.890 -1.5065 -0.7403  0.9416
14396TIP3   OH264602   6.161   0.696  11.807 -0.2555  0.4746 -0.2605
14396TIP3    H164603   6.237   0.746  11.837 -0.6347  2.1576 -1.9447
14396TIP3    H264604   6.103   0.694  11.883  1.2757 -0.5976  0.9729
14397TIP3   OH264605   6.378   2.100  13.491 -1.0017 -0.0065  0.4303
14397TIP3    H164606   6.282   2.109  13.494 -1.0592 -0.6307  0.6086
14397TIP3    H264607   6.392   2.010  13.461 -0.4724 -0.8275  2.9737
14398TIP3   OH264608   1.533   3.823  16.372  0.3950  0.7144 -0.0839
14398TIP3    H164609   1.572   3.905  16.402  0.7507  0.5139  0.0101
14398TIP3    H264610   1.532   3.830  16.277  0.7929  0.6627 -0.0932
14399TIP3   OH264611   4.380   3.616  15.097  0.2386 -0.2960 -0.4254
14399TIP3    H164612   4.455   3.590  15.044  0.1886 -0.5124 -0.3916
14399TIP3    H264613   4.316   3.649  15.034  0.7710  0.9175 -0.3651
14400TIP3   OH264614   5.040   0.248   6.615 -0.2411 -0.2007  0.7141
14400TIP3    H164615   4.982   0.308   6.660 -0.4415 -0.6708  1.0877
14400TIP3    H264616   5.015   0.161   6.646  2.1552 -0.3082  2.6710
14401TIP3   OH264617   0.938   6.549   5.696 -0.6041 -0.0679  0.6279
14401TIP3    H164618   0.967   6.485   5.762 -1.5957  0.1707  1.3209
14401TIP3    H264619   0.896   6.618   5.747 -0.9070  0.3915 -0.2293
14402TIP3   OH264620   2.093   6.551   1.362  0.1561 -0.2310  0.1243
14402TIP3    H164621   2.027   6.481   1.355 -0.7623  0.7137 -1.2769
14402TIP3    H264622   2.171   6.514   1.321  0.6225 -1.4371  1.9742
14403TIP3   OH264623   4.363   2.353  14.513  0.0738 -0.3866 -0.1146
14403TIP3    H164624   4.424   2.402  14.569 -1.2627  0.2537  0.8277
14403TIP3    H264625   4.420   2.294  14.463  1.5235  0.5785  0.3054
14404TIP3   OH264626   3.846   4.091   0.237  0.6990  0.0939 -0.3827
14404TIP3    H164627   3.920   4.038   0.268  1.4746  0.7931 -0.9951
14404TIP3    H264628   3.802   4.036   0.172  1.1193 -0.0483 -0.5488
14405TIP3   OH264629   0.984   1.464   4.884 -0.1218 -0.3155  0.4911
14405TIP3    H164630   1.003   1.412   4.962  0.9154 -1.6053 -0.5969
14405TIP3    H264631   1.068   1.473   4.839 -0.5546  1.0886 -0.0996
14406TIP3   OH264632   3.681   1.752  14.871 -0.0979 -0.2591 -0.1496
14406TIP3    H164633   3.634   1.689  14.927 -1.1923  0.8342  0.2108
14406TIP3    H264634   3.773   1.732  14.886 -0.3530 -0.2306  1.8232
14407TIP3   OH264635   1.714   2.489  14.225 -0.0062 -1.1348 -0.4997
14407TIP3    H164636   1.747   2.467  14.138 -2.0007 -0.0789 -1.6030
14407TIP3    H264637   1.626   2.452  14.228 -0.5188  0.0791  0.5078
14408TIP3   OH264638   4.184   5.742  16.036  1.3885  0.3542  0.2832
14408TIP3    H164639   4.134   5.688  15.975 -0.5813  1.2068  1.0654
14408TIP3    H264640   4.232   5.802  15.980  0.0124  0.7831 -0.4809
14409TIP3   OH264641   2.503   5.513  16.120 -0.0246 -0.8716  0.2486
14409TIP3    H164642   2.482   5.423  16.144 -0.2312 -1.2987 -1.3579
14409TIP3    H264643   2.597   5.512  16.101  0.7096  0.0590  3.3726
14410TIP3   OH264644   3.864   3.515   0.013  0.3501 -0.1266  0.3842
14410TIP3    H164645   3.876   3.599  -0.030 -3.4603 -0.2118 -1.2524
14410TIP3    H264646   3.827   3.537   0.099 -0.7513 -0.0830 -0.0868
14411TIP3   OH264647   4.101   3.226   4.976 -0.0063  0.0816 -0.2923
14411TIP3    H164648   4.115   3.294   5.042  0.6442  2.4841 -2.7643
14411TIP3    H264649   4.188   3.207   4.942 -0.5752  1.1004 -2.4754
14412TIP3   OH264650   6.182   5.195   2.704 -0.6571 -0.2131 -0.4110
14412TIP3    H164651   6.195   5.285   2.676 -0.6831  0.3078  1.1678
14412TIP3    H264652   6.266   5.169   2.742 -0.6793 -0.8365 -0.7577
14413TIP3   OH264653   0.334   3.730  14.823  0.2710  0.0358 -0.5914
14413TIP3    H164654   0.282   3.679  14.886 -1.3617  0.2723 -1.6619
14413TIP3    H264655   0.352   3.813  14.868  0.0389 -0.2064 -0.0457
14414TIP3   OH264656   4.491   2.588  12.952 -0.2784  0.3120 -0.2400
14414TIP3    H164657   4.550   2.621  13.020 -1.1373  0.2609  0.5356
14414TIP3    H264658   4.518   2.498  12.938  0.5741  0.6245 -0.7245
14415TIP3   OH264659   6.489   4.219  11.644  0.0158 -0.1135 -0.3713
14415TIP3    H164660   6.422   4.159  11.675  1.0194 -1.2467 -0.3542
14415TIP3    H264661   6.486   4.212  11.549 -0.7152  0.7789 -0.4323
14416TIP3   OH264662   5.564   1.287   0.779  0.5221 -0.0040 -0.3914
14416TIP3    H164663   5.478   1.330   0.784  0.0638 -0.7454 -1.5764
14416TIP3    H264664   5.594   1.285   0.870 -0.7236  0.2493  0.0558
14417TIP3   OH264665   4.567   4.128  15.926 -0.0421  0.0326  0.6697
14417TIP3    H164666   4.582   4.223  15.934 -0.8125  0.0648  2.1428
14417TIP3    H264667   4.649   4.088  15.955  0.6846  0.2147 -0.9996
14418TIP3   OH264668   2.227   1.632   1.534 -0.4834  0.4275 -0.4460
14418TIP3    H164669   2.245   1.723   1.555  0.4572  0.0764  0.3051
14418TIP3    H264670   2.187   1.596   1.613 -0.1662  0.0006 -0.4767
14419TIP3   OH264671   2.276   1.844   3.428 -0.7587 -0.0409 -0.0855
14419TIP3    H164672   2.277   1.824   3.334  2.2560  0.7383 -0.3082
14419TIP3    H264673   2.240   1.933   3.432  0.4171  0.4933 -0.7075
14420TIP3   OH264674   4.110   2.896   1.845  0.4921 -0.3469 -0.6236
14420TIP3    H164675   4.122   2.872   1.937  1.5419  1.2900 -0.2998
14420TIP3    H264676   4.178   2.961   1.828 -0.5283  0.3603 -2.2018
14421TIP3   OH264677   3.103   0.287  12.389  0.8643  0.0388  0.1203
14421TIP3    H164678   3.095   0.202  12.347  0.1780  0.3281 -0.3620
14421TIP3    H264679   3.022   0.297  12.438 -0.2298  1.4541 -1.8366
14422TIP3   OH264680   0.921   1.066   1.390  0.4731  0.2189 -0.2836
14422TIP3    H164681   0.904   1.142   1.335 -0.6880  1.4362  1.6213
14422TIP3    H264682   1.005   1.085   1.432  0.6541 -0.0246 -0.5308
14423TIP3   OH264683   0.845   6.523  12.413  0.1946  0.2234  0.1654
14423TIP3    H164684   0.809   6.612  12.410 -2.0477 -0.6367 -0.5458
14423TIP3    H264685   0.909   6.521  12.342  0.8710  1.4819  0.7058
14424TIP3   OH264686   0.527   0.346   0.902 -0.4267 -0.4034 -0.1522
14424TIP3    H164687   0.488   0.431   0.882 -0.6744 -0.6392 -0.6743
14424TIP3    H264688   0.465   0.282   0.866 -0.2698 -0.8077  0.2847
14425TIP3   OH264689   5.507   4.287  12.424  0.2365  0.0792 -0.0594
14425TIP3    H164690   5.511   4.382  12.440  1.4756 -0.0870  0.8143
14425TIP3    H264691   5.519   4.248  12.511 -0.1155 -0.8853 -0.4363
14426TIP3   OH264692   2.058   5.871   0.682  0.0684 -0.0219 -0.4314
14426TIP3    H164693   2.090   5.962   0.678 -1.0271  0.3272 -2.7569
14426TIP3    H264694   2.137   5.819   0.700  0.7275  1.3330  0.8815
14427TIP3   OH264695   3.165   6.123  10.811  0.0841 -0.3944 -0.4023
14427TIP3    H164696   3.258   6.144  10.812 -0.1170  0.6013  1.4162
14427TIP3    H264697   3.131   6.159  10.893 -1.8189 -1.1471 -0.8021
14428TIP3   OH264698   4.907   3.729  15.440  0.0889 -0.0253 -0.5031
14428TIP3    H164699   4.855   3.674  15.382  0.6962 -0.1518 -0.9315
14428TIP3    H264700   4.899   3.687  15.526 -2.3524  1.1930 -0.0455
14429TIP3   OH264701   2.297   5.232   0.723  0.5042  0.5952  0.4197
14429TIP3    H164702   2.265   5.155   0.676  0.4925  1.8129 -1.6933
14429TIP3    H264703   2.354   5.197   0.791  0.0225 -1.2903 -0.0906
14430TIP3   OH264704   0.459   5.181  11.638  0.2312 -0.3562 -0.1697
14430TIP3    H164705   0.474   5.167  11.732 -0.3933  1.8413  0.3094
14430TIP3    H264706   0.364   5.169  11.627  0.4849 -2.0826 -0.8586
14431TIP3   OH264707   6.607   5.668   2.929  0.2852  0.5621  0.2934
14431TIP3    H164708   6.578   5.612   2.858 -1.9225 -1.9335  2.9145
14431TIP3    H264709   6.609   5.756   2.891 -0.2526 -0.6817 -2.9107
14432TIP3   OH264710   5.278   4.296  14.542 -0.7675  0.0567 -0.1131
14432TIP3    H164711   5.364   4.337  14.545 -1.0844  0.6767  2.1238
14432TIP3    H264712   5.229   4.337  14.613 -2.4866 -1.2134 -0.4980
14433TIP3   OH264713   1.627   1.738  12.275  0.3243 -0.0874  0.1251
14433TIP3    H164714   1.591   1.657  12.311 -0.5177 -0.3202 -1.1888
14433TIP3    H264715   1.640   1.794  12.352 -0.1014 -1.0620  0.9364
14434TIP3   OH264716   2.568   4.498   1.404  0.5848  0.2750 -0.1579
14434TIP3    H164717   2.663   4.487   1.404  0.5204 -0.5259  1.3063
14434TIP3    H264718   2.538   4.440   1.334  1.0921 -0.5346  0.2779
14435TIP3   OH264719   5.189   1.427   2.438  0.1431 -0.0971 -0.5116
14435TIP3    H164720   5.239   1.430   2.356 -0.5476  0.5934 -0.9142
14435TIP3    H264721   5.155   1.337   2.442  0.3241 -0.1838 -0.8830
14436TIP3   OH264722   3.546   1.089  11.446 -0.1516  0.6794  0.6969
14436TIP3    H164723   3.588   1.003  11.447 -1.6594 -0.1004  0.2891
14436TIP3    H264724   3.616   1.150  11.468  0.8308 -0.7026  1.5930
14437TIP3   OH264725   0.208   2.487  15.558 -0.2052  0.5742  0.3078
14437TIP3    H164726   0.290   2.493  15.509  0.3116 -1.2218  0.8527
14437TIP3    H264727   0.140   2.505  15.494  0.6081  3.0611  0.0516
14438TIP3   OH264728   0.527   6.376   3.975 -0.3681  0.6784 -0.7631
14438TIP3    H164729   0.468   6.446   3.946  0.4519  1.2230 -1.1420
14438TIP3    H264730   0.591   6.368   3.904 -0.3900 -0.3922 -0.6751
14439TIP3   OH264731   4.577   1.377   4.721 -0.4659 -0.4600  0.3490
14439TIP3    H164732   4.575   1.282   4.727 -1.2185 -0.4010  1.3438
14439TIP3    H264733   4.645   1.404   4.782  1.4206 -0.4279 -1.6424
14440TIP3   OH264734   2.695   5.611  11.470 -0.7743  0.5638  0.0981
14440TIP3    H164735   2.775   5.651  11.504 -3.0216  3.0182  3.0896
14440TIP3    H264736   2.700   5.520  11.500  1.5461  0.1646 -1.2344
14441TIP3   OH264737   6.121   1.531   0.219  0.1581  0.0039  0.1442
14441TIP3    H164738   6.038   1.533   0.267 -0.3580  1.2987 -0.7440
14441TIP3    H264739   6.185   1.570   0.279 -0.3282  0.9293  0.0808
14442TIP3   OH264740   2.880   3.970   4.985 -0.1084 -0.2316 -0.4121
14442TIP3    H164741   2.913   4.005   4.902  0.4215  1.1500  0.3523
14442TIP3    H264742   2.935   4.011   5.052 -1.6615  0.0870  0.7334
14443TIP3   OH264743   4.629   2.246  15.280 -0.6267  0.2239 -0.5628
14443TIP3    H164744   4.571   2.264  15.205  0.6780  1.3291 -1.3556
14443TIP3    H264745   4.715   2.232  15.241 -0.1184 -0.2409  0.6763
14444TIP3   OH264746   4.813   6.456   3.164  0.0972  0.2833 -0.1236
14444TIP3    H164747   4.731   6.502   3.146  0.0404  0.3061  0.1999
14444TIP3    H264748   4.825   6.397   3.089  0.9760  1.9628 -1.3889
14445TIP3   OH264749   1.830   1.488   3.813 -0.3913 -0.4455 -0.0885
14445TIP3    H164750   1.755   1.461   3.760 -0.4491  0.0316 -0.2514
14445TIP3    H264751   1.902   1.433   3.782 -0.2535  0.3245 -1.1689
14446TIP3   OH264752   4.186   4.784   0.574 -0.0252  0.1283 -0.1448
14446TIP3    H164753   4.195   4.717   0.642  0.8933 -0.9455 -1.2634
14446TIP3    H264754   4.197   4.736   0.492  0.5417  1.6470 -0.9953
14447TIP3   OH264755   0.166   3.038  11.050 -0.8105  0.3738  0.1270
14447TIP3    H164756   0.160   2.963  10.992  0.9625  0.1930  0.1208
14447TIP3    H264757   0.102   3.100  11.016 -0.9867 -0.3960 -0.9986
14448TIP3   OH264758   4.940   5.140   2.412 -0.3867  0.2774 -0.2314
14448TIP3    H164759   4.858   5.109   2.451  0.9960  0.2804  3.0067
14448TIP3    H264760   4.967   5.069   2.354 -1.5146 -0.8130  0.5104
14449TIP3   OH264761   1.829   0.989  14.418 -0.2975  0.8518 -0.6093
14449TIP3    H164762   1.762   0.988  14.349  0.2824  0.9370 -1.1953
14449TIP3    H264763   1.848   1.082  14.431 -1.3147  0.9129  0.5955
14450TIP3   OH264764   0.160   3.426   6.817 -0.0028 -0.1190 -0.1238
14450TIP3    H164765   0.182   3.333   6.808 -0.7181 -0.5651  2.1457
14450TIP3    H264766   0.065   3.429   6.802  0.1476  0.4135 -1.0533
14451TIP3   OH264767   0.855   3.757  12.327  0.0611 -0.0559  0.1774
14451TIP3    H164768   0.921   3.720  12.385  0.0673 -1.0209 -0.4289
14451TIP3    H264769   0.786   3.788  12.385  0.2219 -0.6941  0.7134
14452TIP3   OH264770   2.597   3.114  13.104  0.0193  0.2599 -0.2390
14452TIP3    H164771   2.517   3.069  13.075 -0.2957  1.1535 -0.7946
14452TIP3    H264772   2.639   3.051  13.163  0.0799 -1.1362 -1.7004
14453TIP3   OH264773   0.599   2.668  15.131  0.0463 -0.0114  0.2129
14453TIP3    H164774   0.671   2.698  15.186  0.6536 -1.6785  0.3695
14453TIP3    H264775   0.560   2.595  15.180 -0.4014 -0.4932 -0.8279
14454TIP3   OH264776   6.649   3.977   4.493  0.5090  0.3959  0.2452
14454TIP3    H164777   6.703   4.055   4.479 -1.2688  1.8048  0.8117
14454TIP3    H264778   6.594   3.972   4.414 -0.5313  0.7195  0.9292
14455TIP3   OH264779   5.252   1.659   4.376 -0.2572  0.4248 -0.4610
14455TIP3    H164780   5.292   1.659   4.463  0.3866  0.7725 -0.7501
14455TIP3    H264781   5.257   1.568   4.347 -0.8263  0.2346  0.0174
14456TIP3   OH264782   1.749   3.808   4.992 -0.0606  0.2018  0.4622
14456TIP3    H164783   1.748   3.872   4.921 -0.1131 -0.6149 -0.2926
14456TIP3    H264784   1.727   3.859   5.071 -0.0754  1.1045 -0.1096
14457TIP3   OH264785   4.109   3.049  13.228  0.5580 -0.3199  0.4253
14457TIP3    H164786   4.088   3.016  13.141  3.3541  0.7096 -0.7570
14457TIP3    H264787   4.168   2.984  13.265  1.5838  0.5713  0.3878
14458TIP3   OH264788   3.002   0.510   0.079 -0.1503 -0.1756  0.0849
14458TIP3    H164789   3.015   0.416   0.080 -0.6198 -0.2702 -1.0034
14458TIP3    H264790   2.961   0.528  -0.006  1.1385  1.1598 -0.3145
14459TIP3   OH264791   5.261   1.877   2.746 -0.1612  0.3309 -0.1115
14459TIP3    H164792   5.321   1.871   2.821 -1.1148 -1.3875  0.5860
14459TIP3    H264793   5.288   1.807   2.688 -1.2593 -0.2672  0.0632
14460TIP3   OH264794   0.119   5.435   6.344  0.4439  0.0439  0.1458
14460TIP3    H164795   0.151   5.346   6.356  0.3031  0.0676  0.7366
14460TIP3    H264796   0.024   5.428   6.357  0.3762  0.2046 -0.2499
14461TIP3   OH264797   1.805   0.119   5.335 -0.2478  0.1798 -0.7690
14461TIP3    H164798   1.877   0.087   5.280  0.3536  1.1005 -0.5272
14461TIP3    H264799   1.814   0.070   5.416  1.2657  1.5714 -0.0312
14462TIP3   OH264800   6.677   6.746   1.903  0.3207 -0.8436  0.4639
14462TIP3    H164801   6.628   6.828   1.905 -1.0635 -1.5643 -1.3034
14462TIP3    H264802   6.634   6.691   1.969 -1.8569 -1.7078 -1.5233
14463TIP3   OH264803   1.978   5.817   2.858  0.3482  0.0776  0.1605
14463TIP3    H164804   2.070   5.806   2.838  0.0583 -1.5406 -0.3996
14463TIP3    H264805   1.962   5.763   2.935 -0.0292  0.8009  0.6090
14464TIP3   OH264806   3.796   1.917   6.365 -0.2195 -0.3381 -0.1753
14464TIP3    H164807   3.801   2.011   6.384 -0.3745 -0.8642  3.0874
14464TIP3    H264808   3.702   1.899   6.362 -0.1969 -0.3036 -1.5243
14465TIP3   OH264809   1.466   5.663  14.114 -0.0916 -0.2904 -0.0771
14465TIP3    H164810   1.391   5.613  14.081  0.3082 -1.0238  0.1297
14465TIP3    H264811   1.533   5.598  14.132  1.1537  0.4688 -1.6895
14466TIP3   OH264812   2.393   0.622  14.819  0.7342  0.2781 -0.4484
14466TIP3    H164813   2.323   0.585  14.764  0.5348 -1.5107  0.9059
14466TIP3    H264814   2.365   0.712  14.835 -1.1784 -0.3068 -0.1682
14467TIP3   OH264815   1.670   5.699  13.488  0.0319  0.1472  0.4016
14467TIP3    H164816   1.674   5.774  13.547  0.1343 -0.5819  1.3451
14467TIP3    H264817   1.759   5.690  13.454 -0.4659  1.8878 -1.6176
14468TIP3   OH264818   4.975   4.681   0.659 -0.5613  0.5209 -0.4021
14468TIP3    H164819   4.991   4.679   0.565 -1.5500  0.0064 -0.5721
14468TIP3    H264820   4.891   4.637   0.670  0.0134 -0.3101  0.8313
14469TIP3   OH264821   6.691   3.048  15.928 -0.0984  0.1631 -0.0895
14469TIP3    H164822   6.681   2.990  16.003 -2.0905 -1.7353 -1.6887
14469TIP3    H264823   6.665   3.134  15.960  0.4780 -0.2984  1.7096
14470TIP3   OH264824   0.134   1.846  16.719 -0.1090 -0.0709 -0.2132
14470TIP3    H164825   0.198   1.816  16.654 -0.2104 -0.5319 -0.1097
14470TIP3    H264826   0.092   1.921  16.678  1.1079  0.7923  0.0726
14471TIP3   OH264827   0.254   5.217   1.921 -1.0943  0.6123 -0.0038
14471TIP3    H164828   0.169   5.238   1.958 -1.3254  0.1758 -0.2805
14471TIP3    H264829   0.277   5.294   1.869 -0.6684  1.3190  1.1934
14472TIP3   OH264830   3.201   4.799   0.045  0.0254 -0.4412  0.2201
14472TIP3    H164831   3.206   4.782  -0.049  2.6370  0.4291  0.1180
14472TIP3    H264832   3.226   4.717   0.086  1.4565 -0.1286  0.0355
14473TIP3   OH264833   1.687   5.597  10.785 -0.3085  0.1294  0.2392
14473TIP3    H164834   1.763   5.598  10.725 -0.6339 -0.1304 -0.1832
14473TIP3    H264835   1.619   5.645  10.737 -1.5137 -2.4940 -0.8657
14474TIP3   OH264836   3.411   3.920   2.534  0.0125  0.3596 -0.7500
14474TIP3    H164837   3.347   3.989   2.516 -1.6270 -0.8409  0.2200
14474TIP3    H264838   3.494   3.966   2.542 -1.0390  2.2576 -0.0601
14475TIP3   OH264839   4.632   4.575   5.563 -0.3620 -0.1822  0.3386
14475TIP3    H164840   4.663   4.607   5.647  0.8031  3.2917 -1.2295
14475TIP3    H264841   4.702   4.517   5.532 -0.1157 -0.2929  1.0743
14476TIP3   OH264842   6.729   4.624   5.653  0.3535 -0.4654  0.3192
14476TIP3    H164843   6.810   4.596   5.610 -0.0498 -0.3067 -0.5670
14476TIP3    H264844   6.719   4.716   5.629 -0.2215 -0.5511  0.2083
14477TIP3   OH264845   6.280   1.836  13.728  0.1673 -0.3052 -0.0499
14477TIP3    H164846   6.375   1.842  13.735  0.2319  2.3982 -1.7859
14477TIP3    H264847   6.263   1.821  13.635 -1.1380 -0.0726  0.1256
14478TIP3   OH264848   3.926   2.462  13.559  0.4286  0.1496 -0.2529
14478TIP3    H164849   3.910   2.378  13.516  0.8806 -0.2781  0.3984
14478TIP3    H264850   3.996   2.443  13.622 -0.6458  0.6144  1.1194
14479TIP3   OH264851   6.203   5.530  16.228  0.0008 -0.1780  0.0651
14479TIP3    H164852   6.170   5.477  16.156  2.6289 -2.3564  0.2947
14479TIP3    H264853   6.193   5.474  16.305  0.8860  0.4989  0.6962
14480TIP3   OH264854   5.473   2.440  15.642  0.7373  0.4444 -0.5656
14480TIP3    H164855   5.563   2.450  15.612  0.7825 -1.9775 -1.3873
14480TIP3    H264856   5.421   2.442  15.561  0.0163  1.6742 -0.1087
14481TIP3   OH264857   3.737   6.214   5.125 -1.0819 -0.1435  0.1735
14481TIP3    H164858   3.826   6.215   5.161 -1.1325 -0.4987  0.3152
14481TIP3    H264859   3.698   6.135   5.162 -1.4962  0.0738  0.2007
14482TIP3   OH264860   4.696   0.610   2.753  1.0293 -0.6240 -0.2180
14482TIP3    H164861   4.778   0.585   2.710  1.2492 -2.5038  1.1900
14482TIP3    H264862   4.656   0.528   2.780 -1.2940  0.2603 -0.7423
14483TIP3   OH264863   4.100   6.698   5.834  0.0131  0.4657 -0.0501
14483TIP3    H164864   4.133   6.769   5.889  0.8622  1.3043 -1.5894
14483TIP3    H264865   4.159   6.624   5.853 -0.4967  0.3222  1.0903
14484TIP3   OH264866   2.646   2.498   1.280 -0.3359 -0.4987  0.1462
14484TIP3    H164867   2.698   2.464   1.207  1.2238  1.1619  0.4248
14484TIP3    H264868   2.632   2.590   1.259 -2.6185 -0.7244  0.4326
14485TIP3   OH264869   6.547   0.179   1.515  0.4490  0.4525 -0.3879
14485TIP3    H164870   6.523   0.089   1.540  0.0271 -0.2148 -2.8421
14485TIP3    H264871   6.494   0.235   1.572  1.7563 -0.7546  2.1816
14486TIP3   OH264872   4.851   2.178   1.152  0.0224 -0.1835 -0.0714
14486TIP3    H164873   4.761   2.197   1.178  0.1609  3.5267 -1.6827
14486TIP3    H264874   4.845   2.151   1.060  0.5549  0.5524 -0.3341
14487TIP3   OH264875   3.958   4.547  13.947  0.4571  0.4235 -0.6170
14487TIP3    H164876   4.028   4.537  14.012 -0.6518  0.1473  0.5663
14487TIP3    H264877   3.978   4.630  13.904  1.7252  0.1701 -0.5743
14488TIP3   OH264878   3.417   0.546  15.786 -0.0285 -0.2939  0.2897
14488TIP3    H164879   3.327   0.519  15.771 -0.0452  0.3414 -0.9244
14488TIP3    H264880   3.441   0.594  15.706  0.6949  1.3624  1.4354
14489TIP3   OH264881   3.040   2.608  15.396  0.1045  0.0769 -0.6570
14489TIP3    H164882   3.085   2.688  15.426  0.1622 -0.3243  0.3887
14489TIP3    H264883   3.084   2.585  15.314  1.0253  0.3601 -0.2598
14490TIP3   OH264884   2.405   6.474  14.636 -1.0661 -0.3285  0.4343
14490TIP3    H164885   2.498   6.456  14.653 -0.4069  2.0084 -0.4041
14490TIP3    H264886   2.386   6.423  14.557 -0.0115  0.4788 -0.3664
14491TIP3   OH264887   0.347   3.372  12.321 -0.0248 -0.0504  0.1385
14491TIP3    H164888   0.294   3.448  12.344  0.3423  0.4329 -0.6045
14491TIP3    H264889   0.437   3.398  12.341  0.3187  0.4073 -1.8289
14492TIP3   OH264890   1.882   5.487   3.558 -0.5107 -0.7413  0.1370
14492TIP3    H164891   1.961   5.434   3.573 -0.5191 -1.0759 -0.8964
14492TIP3    H264892   1.901   5.571   3.600  0.8985 -0.3971 -1.0815
14493TIP3   OH264893   3.961   0.686  16.897  0.4685  0.2030  0.3524
14493TIP3    H164894   3.973   0.780  16.916 -0.5910  0.7482 -1.4505
14493TIP3    H264895   4.014   0.671  16.819  0.3674 -0.6499  0.4450
14494TIP3   OH264896   5.196   3.270  12.705 -0.2094  0.4533 -0.3717
14494TIP3    H164897   5.204   3.226  12.620 -3.0588 -2.0407  0.4660
14494TIP3    H264898   5.263   3.229  12.760  1.7984  2.2334 -1.3472
14495TIP3   OH264899   1.010   4.505  11.562 -0.3925  0.2742  0.2786
14495TIP3    H164900   1.092   4.518  11.610  1.5482 -0.0452 -2.6524
14495TIP3    H264901   1.037   4.505  11.470 -3.8176  0.6968 -0.8466
14496TIP3   OH264902   5.803   1.816  15.588  0.2111  0.2722  0.3828
14496TIP3    H164903   5.892   1.790  15.567 -0.0881 -0.5311  0.1098
14496TIP3    H264904   5.773   1.751  15.652 -0.0533  0.7595  0.7673
14497TIP3   OH264905   6.523   3.075   0.167  0.4245 -0.0055 -0.1299
14497TIP3    H164906   6.482   3.013   0.227  1.7920 -1.5396 -0.7050
14497TIP3    H264907   6.509   3.038   0.080  1.1327  0.5541 -0.4938
14498TIP3   OH264908   4.588   5.854   5.120  1.0846 -0.1005  0.1552
14498TIP3    H164909   4.671   5.859   5.168  1.8843  1.3273 -1.2637
14498TIP3    H264910   4.586   5.763   5.088  1.3438 -0.5831  1.4272
14499TIP3   OH264911   1.434   5.322   1.041 -0.0461 -0.0029 -0.2839
14499TIP3    H164912   1.362   5.277   0.995  0.7047 -0.9080 -0.5998
14499TIP3    H264913   1.505   5.323   0.977  0.5281  0.0512  0.3556
14500TIP3   OH264914   1.701   3.517   4.915 -0.5885 -0.1943  0.1495
14500TIP3    H164915   1.732   3.519   5.006  0.1658 -0.2797 -0.0983
14500TIP3    H264916   1.709   3.607   4.885 -1.7269  0.0247  0.4444
14501TIP3   OH264917   0.673   6.226  11.489  0.0741  0.1192  0.2933
14501TIP3    H164918   0.738   6.293  11.510 -0.9503  0.8760  1.1105
14501TIP3    H264919   0.696   6.199  11.399  1.1300  0.8028  0.3358
14502TIP3   OH264920   0.258   3.754  13.414 -0.1863 -0.4602  0.1173
14502TIP3    H164921   0.202   3.822  13.453  1.8870  0.1180  2.2716
14502TIP3    H264922   0.328   3.741  13.477  1.7909 -1.6304 -2.1678
14503TIP3   OH264923   2.408   3.514   5.341  0.3506  0.2204  0.0604
14503TIP3    H164924   2.436   3.493   5.252 -1.8345 -0.9172 -0.4018
14503TIP3    H264925   2.380   3.605   5.336 -1.8984 -0.4768 -1.0261
14504TIP3   OH264926   0.597   5.154   4.693 -0.3863 -0.8653 -0.4023
14504TIP3    H164927   0.539   5.118   4.626 -2.8028  2.1497 -0.1603
14504TIP3    H264928   0.543   5.156   4.773  1.6398 -2.1425  1.1156
14505TIP3   OH264929   2.644   1.686  15.158  0.5494 -0.4395 -0.3247
14505TIP3    H164930   2.708   1.646  15.217  1.6012  0.4913 -0.7937
14505TIP3    H264931   2.684   1.769  15.132 -1.1932  0.5382 -0.0411
14506TIP3   OH264932   4.243   4.464   1.397  0.7262 -0.1686 -0.3512
14506TIP3    H164933   4.310   4.513   1.348 -0.6918  2.3419  0.0380
14506TIP3    H264934   4.269   4.373   1.388  2.5185  0.4694 -2.7436
14507TIP3   OH264935   3.786   3.594   0.274  0.1234  0.3703 -0.0922
14507TIP3    H164936   3.777   3.523   0.336  1.4425  0.4778  0.2584
14507TIP3    H264937   3.766   3.673   0.324 -1.1228  0.2810 -0.4248
14508TIP3   OH264938   1.739   2.408   3.216  0.6256  0.0218 -1.0191
14508TIP3    H164939   1.723   2.454   3.134 -0.5558 -2.7254 -2.4645
14508TIP3    H264940   1.784   2.327   3.190  1.1261 -0.4655  1.1610
14509TIP3   OH264941   5.469   4.258  14.991  0.3865 -0.1648  0.5916
14509TIP3    H164942   5.450   4.329  15.052 -2.7449 -0.3406 -0.0170
14509TIP3    H264943   5.481   4.301  14.907 -0.2843 -0.2600  0.4451
14510TIP3   OH264944   6.757   6.675   0.578 -0.0113  0.6325  0.4895
14510TIP3    H164945   6.849   6.702   0.589  0.5167 -0.3014 -1.2560
14510TIP3    H264946   6.760   6.579   0.585 -0.9618  0.6289  0.9668
14511TIP3   OH264947   6.510   1.861  15.545  0.4734  0.1185  0.2265
14511TIP3    H164948   6.468   1.937  15.505 -1.2503 -1.0680 -0.3232
14511TIP3    H264949   6.579   1.837  15.484 -0.1952  0.1299 -0.5550
14512TIP3   OH264950   2.693   4.820   4.697 -0.1650 -0.1076  0.3206
14512TIP3    H164951   2.713   4.836   4.605 -0.9852  0.3113  0.2036
14512TIP3    H264952   2.667   4.905   4.731 -0.0710 -0.3044  0.8901
14513TIP3   OH264953   0.070   5.843  15.447 -0.2890  0.1651 -0.1106
14513TIP3    H164954   0.065   5.810  15.537  1.2098 -1.6839 -0.6495
14513TIP3    H264955   0.153   5.809  15.413 -0.2120  1.8769 -1.8150
14514TIP3   OH264956   0.859   5.196  12.368 -0.2934 -0.4548  0.4534
14514TIP3    H164957   0.820   5.156  12.445 -1.4994  0.9530  0.6227
14514TIP3    H264958   0.951   5.170  12.371 -0.6127 -1.5448  1.5947
14515TIP3   OH264959   2.890   3.579   0.431 -0.3962  0.0046  0.3346
14515TIP3    H164960   2.840   3.637   0.487 -2.8878 -1.0664 -0.6636
14515TIP3    H264961   2.889   3.495   0.476  0.3457 -0.0859  0.1952
14516TIP3   OH264962   0.962   6.495   0.416  0.7799 -0.1140  0.1206
14516TIP3    H164963   0.894   6.503   0.482  1.6801 -0.7186  1.1446
14516TIP3    H264964   0.925   6.538   0.339  0.1770  1.7363  1.3621
14517TIP3   OH264965   2.434   2.749   5.532  0.0095 -0.2724  0.0189
14517TIP3    H164966   2.479   2.666   5.516  0.0263 -0.8303  2.5754
14517TIP3    H264967   2.446   2.799   5.451  0.7304 -2.4138 -1.2693
14518TIP3   OH264968   5.783   6.791   2.773  0.0653 -0.1767  0.2726
14518TIP3    H164969   5.703   6.758   2.814  0.4564  0.8723  1.9893
14518TIP3    H264970   5.853   6.764   2.833  0.9590 -0.5368 -0.8804
14519TIP3   OH264971   1.699   5.435   0.103 -0.2383 -0.5016  0.1473
14519TIP3    H164972   1.786   5.421   0.141 -0.1850 -1.5122 -0.3384
14519TIP3    H264973   1.716   5.466   0.014 -0.3783  0.8210  0.5542
14520TIP3   OH264974   1.855   5.039   1.391 -0.5094 -0.7848  0.2676
14520TIP3    H164975   1.784   4.980   1.414 -1.4920 -0.4880 -1.7239
14520TIP3    H264976   1.851   5.044   1.295  0.7268  1.0499  0.2613
14521TIP3   OH264977   5.932   6.743  13.023  0.4453  0.3012  0.1251
14521TIP3    H164978   5.896   6.681  12.960 -2.2854  1.8022  0.0532
14521TIP3    H264979   5.919   6.829  12.982  1.4878  1.1116  1.4224
14522TIP3   OH264980   5.155   4.189   2.604 -0.7042  0.6108  0.5002
14522TIP3    H164981   5.213   4.129   2.557 -2.6686  0.2861 -1.6934
14522TIP3    H264982   5.201   4.273   2.601  1.3361 -0.3472  2.2111
14523TIP3   OH264983   1.915   3.051  16.283 -0.0954  0.5837 -0.0113
14523TIP3    H164984   2.001   3.049  16.241 -0.2901  1.5889 -0.4879
14523TIP3    H264985   1.932   3.092  16.368 -0.2082  1.4741 -0.4040
14524TIP3   OH264986   2.563   0.620  10.946 -0.1254 -0.3787  0.5141
14524TIP3    H164987   2.648   0.661  10.962  0.3913 -1.5593  0.9425
14524TIP3    H264988   2.511   0.688  10.904  0.6973  0.6921  1.1722
14525TIP3   OH264989   3.064   5.864  14.500 -0.8368  0.4894  0.2642
14525TIP3    H164990   3.073   5.791  14.561 -1.2603  1.2123  1.2204
14525TIP3    H264991   3.152   5.875  14.464 -1.0904 -1.4880 -1.1168
14526TIP3   OH264992   1.329   5.562  12.299 -0.2193  0.6959  0.0214
14526TIP3    H164993   1.372   5.509  12.233  2.2640 -0.0766  2.0801
14526TIP3    H264994   1.387   5.637  12.311 -0.0655  0.3300  1.9330
14527TIP3   OH264995   6.470   3.932   1.160  0.3562  0.1085 -0.0378
14527TIP3    H164996   6.529   3.941   1.234 -1.0632 -0.0309  1.1753
14527TIP3    H264997   6.513   3.870   1.102  1.4535  0.1317  0.7233
14528TIP3   OH264998   0.711   0.362   2.600  0.4084 -0.1269  0.1687
14528TIP3    H164999   0.794   0.407   2.616 -0.8894  2.5946 -0.1571
14528TIP3    H265000   0.699   0.369   2.505  0.3627 -1.6656  0.0342
14529TIP3   OH265001   6.099   5.616  13.695  0.4029 -0.5367  0.4338
14529TIP3    H165002   6.141   5.563  13.762  1.6467  0.7373  0.7144
14529TIP3    H265003   6.141   5.589  13.613 -0.2252 -1.2129  0.3301
14530TIP3   OH265004   6.214   1.840  16.112  0.0471 -0.0606  0.2791
14530TIP3    H165005   6.273   1.883  16.175  0.4169 -0.7684  0.4302
14530TIP3    H265006   6.266   1.769  16.076 -0.8666 -0.9932  0.7608
14531TIP3   OH265007   1.673   2.480   5.374  0.5415  0.1911 -0.2319
14531TIP3    H165008   1.625   2.406   5.411  1.3487 -1.1427 -1.7319
14531TIP3    H265009   1.613   2.554   5.383 -1.1276 -1.0610 -0.5052
14532TIP3   OH265010   4.152   1.567   6.291  0.6007  0.4484 -0.3498
14532TIP3    H165011   4.086   1.535   6.352  1.3932 -0.1650  0.2069
14532TIP3    H265012   4.223   1.599   6.346  1.0061  0.5847 -0.9345
14533TIP3   OH265013   5.435   4.596   3.348  0.1053 -0.0587  0.3995
14533TIP3    H165014   5.520   4.640   3.339 -0.3076  0.5189 -0.8837
14533TIP3    H265015   5.371   4.663   3.323 -0.5586 -1.2929 -1.3762
14534TIP3   OH265016   0.371   0.854   3.566 -0.0474 -0.0808 -0.3923
14534TIP3    H165017   0.343   0.942   3.593 -1.3401 -0.0915 -1.6089
14534TIP3    H265018   0.300   0.822   3.511 -0.5752 -2.7269  1.6151
14535TIP3   OH265019   4.534   6.612  14.709  0.0171  0.3202 -0.4027
14535TIP3    H165020   4.595   6.662  14.654  0.4631  0.3949  0.1516
14535TIP3    H265021   4.508   6.538  14.655  1.3923 -0.2665 -0.2792
14536TIP3   OH265022   5.338   4.634  14.555  0.1553 -0.0544 -0.0112
14536TIP3    H165023   5.370   4.711  14.507 -1.8320  0.4614 -0.6108
14536TIP3    H265024   5.316   4.668  14.642 -1.2084  0.1926 -0.4391
14537TIP3   OH265025   3.090   3.923  11.819 -0.0085  0.1196 -0.4269
14537TIP3    H165026   3.165   3.873  11.852  2.9001  4.1799 -0.1032
14537TIP3    H265027   3.048   3.957  11.898  0.8862  1.8082 -0.6408
14538TIP3   OH265028   2.127   0.095   3.998  0.0555  0.1488 -0.2267
14538TIP3    H165029   2.108   0.065   4.087 -2.8589 -1.0422 -1.1426
14538TIP3    H265030   2.202   0.042   3.970  0.2764 -0.2800  1.1009
14539TIP3   OH265031   2.447   2.290   5.344 -0.4973 -0.2618 -0.3749
14539TIP3    H165032   2.358   2.273   5.312 -0.7227 -0.0742  0.1549
14539TIP3    H265033   2.459   2.229   5.416 -0.6433  0.5517  0.3517
14540TIP3   OH265034   0.579   1.452  11.551  0.1995  0.0862  0.5289
14540TIP3    H165035   0.662   1.440  11.597  0.4059  0.3595  0.2371
14540TIP3    H265036   0.601   1.443  11.458 -0.0848  0.2191  0.4462
14541TIP3   OH265037   1.425   0.025  11.661  0.5484 -0.1648 -0.0233
14541TIP3    H165038   1.425   0.065  11.748 -0.4662 -0.1072 -0.0359
14541TIP3    H265039   1.514   0.037  11.629  0.2084  2.5205 -0.2066
14542TIP3   OH265040   4.583   6.368   2.806  0.1932 -0.8711 -0.4704
14542TIP3    H165041   4.514   6.373   2.740  0.7619  0.3881 -1.0076
14542TIP3    H265042   4.536   6.359   2.889 -0.6801  0.6394 -0.7612
14543TIP3   OH265043   5.712   5.830   3.828  0.1780  0.1266  0.2287
14543TIP3    H165044   5.780   5.897   3.817  0.3976 -0.1094  0.1516
14543TIP3    H265045   5.663   5.859   3.906  0.3392  0.3167  0.2605
14544TIP3   OH265046   4.852   4.325   0.884 -0.4006  0.0626  0.2473
14544TIP3    H165047   4.938   4.366   0.883  0.1677 -1.0730  0.5040
14544TIP3    H265048   4.798   4.379   0.826  0.0803  1.6105  1.1898
14545TIP3   OH265049   4.369   4.509  11.334  0.3674  0.2398 -0.5416
14545TIP3    H165050   4.368   4.417  11.359  0.8567  0.0343 -1.2460
14545TIP3    H265051   4.397   4.509  11.243  1.8314  1.1746 -0.1405
14546TIP3   OH265052   4.796   1.240  17.156 -0.5439  0.2342 -0.2291
14546TIP3    H165053   4.820   1.179  17.087 -1.6832 -2.0217  1.2649
14546TIP3    H265054   4.749   1.310  17.111  0.8706  0.1085 -2.0079
14547TIP3   OH265055   1.605   2.718  14.705 -0.0920 -0.0159 -0.2650
14547TIP3    H165056   1.565   2.799  14.673  0.3228 -0.7721 -3.0288
14547TIP3    H265057   1.537   2.652  14.695 -0.0719 -0.2233  0.9067
14548TIP3   OH265058   2.493   5.432  13.831 -0.8064  0.3270 -0.1984
14548TIP3    H165059   2.402   5.457  13.815 -0.8152 -0.5953 -1.7995
14548TIP3    H265060   2.529   5.416  13.744  0.2622 -1.4993  0.5352
14549TIP3   OH265061   4.193   6.642  11.439  0.2512 -0.7227  0.7174
14549TIP3    H165062   4.171   6.605  11.354  0.2568 -0.4161  0.5793
14549TIP3    H265063   4.287   6.660  11.435  0.1005  0.0609  0.4796
14550TIP3   OH265064   5.737   1.220  13.492  0.4222 -0.2674 -0.2042
14550TIP3    H165065   5.653   1.173  13.497  0.6140 -0.5370  0.6960
14550TIP3    H265066   5.716   1.300  13.444 -0.7069  0.3814  1.2655
14551TIP3   OH265067   0.109   2.934   4.654 -0.4063  0.0301 -0.2044
14551TIP3    H165068   0.085   2.947   4.563 -0.6373  0.1364 -0.1311
14551TIP3    H265069   0.164   3.009   4.676  0.4988 -0.5239 -0.5437
14552TIP3   OH265070   3.245   4.963  13.488  0.5422 -0.1636  0.6141
14552TIP3    H165071   3.150   4.969  13.485  0.4874  0.2439  2.2616
14552TIP3    H265072   3.265   4.883  13.439 -0.6286 -0.1328  0.0552
14553TIP3   OH265073   6.162   4.804  16.825  0.0787 -0.3655 -0.1944
14553TIP3    H165074   6.075   4.796  16.787  0.2640 -0.2812 -0.6460
14553TIP3    H265075   6.209   4.726  16.793  0.6578  0.4044 -1.2988
14554TIP3   OH265076   1.254   6.446   6.264 -0.2247 -0.6188 -0.3564
14554TIP3    H165077   1.318   6.517   6.255 -0.7104 -0.2739 -1.2275
14554TIP3    H265078   1.195   6.476   6.332 -0.3070 -0.2731 -0.5758
14555TIP3   OH265079   1.757   0.214  14.337 -0.3822  0.1349 -0.0454
14555TIP3    H165080   1.739   0.157  14.411  1.5803  0.3578  0.6808
14555TIP3    H265081   1.767   0.155  14.262 -0.7882 -0.2498  0.2045
14556TIP3   OH265082   4.944   0.243  11.038 -0.1031 -0.0963  0.2240
14556TIP3    H165083   4.854   0.222  11.063 -0.2512  1.7188  1.3762
14556TIP3    H265084   4.953   0.337  11.054  1.2873  0.2774 -2.1948
14557TIP3   OH265085   4.856   0.434  13.302 -0.3276 -0.2819  0.4305
14557TIP3    H165086   4.836   0.525  13.324  2.6386  0.6495 -0.2651
14557TIP3    H265087   4.868   0.435  13.207  0.3145 -1.2448  0.4822
14558TIP3   OH265088   1.790   3.268  15.455  0.2163 -0.1862  0.7034
14558TIP3    H165089   1.858   3.201  15.468 -0.3363 -0.7758  0.6181
14558TIP3    H265090   1.826   3.347  15.496  1.4543 -0.1685 -0.3327
14559TIP3   OH265091   1.772   3.132  11.871  0.2432  1.0645 -0.6558
14559TIP3    H165092   1.784   3.037  11.877 -1.4212  0.9173  2.7113
14559TIP3    H265093   1.850   3.168  11.913  0.4306  1.1638 -1.0849
14560TIP3   OH265094   6.439   5.887  12.887 -0.2121  0.7605  0.4840
14560TIP3    H165095   6.432   5.978  12.860  0.8965  1.1606  1.4941
14560TIP3    H265096   6.483   5.889  12.971  0.5554 -0.7596  0.1653
14561TIP3   OH265097   2.248   1.410   4.468  0.1070  0.3318  0.4626
14561TIP3    H165098   2.246   1.475   4.397  1.3771  0.3823  0.4481
14561TIP3    H265099   2.232   1.461   4.547 -0.1289  0.4698  0.3269
14562TIP3   OH265100   0.514   2.453  12.498 -0.1462  0.1417  0.7200
14562TIP3    H165101   0.602   2.482  12.473 -0.1404 -0.2640  0.2494
14562TIP3    H265102   0.455   2.517  12.458 -0.0480  0.7659  1.5464
14563TIP3   OH265103   3.940   1.478  12.667 -0.4585  0.0109 -0.5186
14563TIP3    H165104   3.937   1.571  12.689 -0.9819 -0.3853  1.1670
14563TIP3    H265105   4.032   1.454  12.679 -0.4979  0.0985 -0.0124
14564TIP3   OH265106   2.252   3.041  15.217  0.4129  0.7839 -0.5007
14564TIP3    H165107   2.247   2.954  15.179  0.1796  0.1405  0.9546
14564TIP3    H265108   2.165   3.056  15.255  1.2407  0.4830  1.6589
14565TIP3   OH265109   5.769   5.540  14.239 -0.2849  0.0021  0.0529
14565TIP3    H165110   5.764   5.566  14.147  1.4762  1.3506  0.2916
14565TIP3    H265111   5.861   5.518  14.253 -0.6973 -1.0548  1.2962
14566TIP3   OH265112   4.567   0.677   1.786 -0.0942 -0.0397 -0.5567
14566TIP3    H165113   4.479   0.641   1.777  0.0922 -0.9158  0.8576
14566TIP3    H265114   4.558   0.747   1.851  0.0325  0.7734 -1.3848
14567TIP3   OH265115   3.125   3.666   5.110 -0.5882 -0.0589  0.1136
14567TIP3    H165116   3.102   3.696   5.198 -1.9550  2.5613 -1.0243
14567TIP3    H265117   3.047   3.685   5.058  0.2139 -1.4936 -1.7089
14568TIP3   OH265118   0.438   1.672  12.538  0.1033  0.6128  0.6904
14568TIP3    H165119   0.441   1.581  12.509 -0.5399  0.8946 -0.2889
14568TIP3    H265120   0.424   1.723  12.458 -0.3653  1.5088  1.3229
14569TIP3   OH265121   3.594   3.113   1.871 -0.6193  0.3692 -0.1984
14569TIP3    H165122   3.533   3.040   1.878 -1.3004  0.9423  0.0782
14569TIP3    H265123   3.557   3.180   1.929  0.9229  0.3027  0.9082
14570TIP3   OH265124   0.340   0.157  15.805  0.0111  0.9083 -0.1422
14570TIP3    H165125   0.373   0.244  15.831 -1.2835  1.2309  0.5311
14570TIP3    H265126   0.275   0.136  15.872  0.0333 -0.4214 -0.5241
14571TIP3   OH265127   1.625   3.983  14.880 -0.4896 -0.1533  0.5374
14571TIP3    H165128   1.624   3.894  14.846 -1.0746 -0.5421  1.5247
14571TIP3    H265129   1.685   4.030  14.822 -0.6332 -1.0327 -0.3600
14572TIP3   OH265130   3.804   5.394   5.348 -0.3029 -0.1960 -0.6314
14572TIP3    H165131   3.824   5.363   5.260 -0.3274 -1.7323 -0.1305
14572TIP3    H265132   3.889   5.396   5.392 -0.3913 -0.1557 -0.4633
14573TIP3   OH265133   4.685   6.243  12.347 -0.0123 -0.2079  0.1402
14573TIP3    H165134   4.627   6.223  12.274 -1.4574  0.1850  1.1317
14573TIP3    H265135   4.773   6.234  12.311 -0.6509  1.2796 -2.0197
14574TIP3   OH265136   0.222   3.531  12.593  0.5928 -0.0613  0.1485
14574TIP3    H165137   0.243   3.604  12.651  0.9835  0.0185 -0.0864
14574TIP3    H265138   0.304   3.483  12.584  1.1531  1.1834 -2.0985
14575TIP3   OH265139   6.656   3.317   2.723  0.2249  0.2832 -0.8097
14575TIP3    H165140   6.727   3.252   2.720  0.0269 -0.1704  1.8784
14575TIP3    H265141   6.699   3.399   2.700  1.6113 -0.0280  0.4896
14576TIP3   OH265142   6.576   5.913  13.117  0.2580  0.5170 -0.3030
14576TIP3    H165143   6.579   6.005  13.144  1.1933  1.3071 -2.8800
14576TIP3    H265144   6.667   5.889  13.103  0.0483 -0.9523  0.6387
14577TIP3   OH265145   0.682   5.693   2.934  0.1432 -0.8874  0.1932
14577TIP3    H165146   0.730   5.725   2.858  1.1815 -1.4285  0.5986
14577TIP3    H265147   0.739   5.709   3.009 -1.6667  1.4593  1.1984
14578TIP3   OH265148   2.360   2.816   1.345  0.3095  0.6387  0.1238
14578TIP3    H165149   2.344   2.790   1.436  2.3414  2.1802  1.0043
14578TIP3    H265150   2.294   2.883   1.327  0.0288  0.4702  0.5132
14579TIP3   OH265151   5.560   4.550  15.866 -0.2145 -0.3136 -0.1213
14579TIP3    H165152   5.509   4.572  15.788 -0.6476 -0.0761  0.2218
14579TIP3    H265153   5.639   4.508  15.832 -0.2686  0.0379 -0.6991
14580TIP3   OH265154   4.665   3.529   6.219  0.2010 -0.1067  0.6427
14580TIP3    H165155   4.701   3.490   6.139 -0.1113 -0.4764  0.6763
14580TIP3    H265156   4.592   3.583   6.189 -0.8498 -1.3907  0.7861
14581TIP3   OH265157   2.123   0.035   1.298  0.2463  0.0521  0.4764
14581TIP3    H165158   2.097  -0.055   1.319 -1.4508  0.5815  0.7727
14581TIP3    H265159   2.101   0.085   1.377  1.9897  0.6188  0.6528
14582TIP3   OH265160   1.134   4.177   3.983 -0.1860  0.1200 -0.2546
14582TIP3    H165161   1.126   4.212   3.894  2.7124 -1.1397 -1.1281
14582TIP3    H265162   1.182   4.245   4.031 -0.4396  0.1711 -0.0726
14583TIP3   OH265163   5.223   4.155   4.450 -0.5009 -0.0005  0.4464
14583TIP3    H165164   5.153   4.172   4.513 -2.3088 -0.4971 -1.3315
14583TIP3    H265165   5.223   4.060   4.438  0.9727 -0.0927  0.8960
14584TIP3   OH265166   0.875   0.748   3.986  0.3638 -0.1495 -0.4536
14584TIP3    H165167   0.800   0.807   3.990  0.4784 -0.0674  1.5050
14584TIP3    H265168   0.850   0.681   3.922 -1.9756 -0.9040  1.1137
14585TIP3   OH265169   2.045   2.992  12.138 -0.2540  0.0892  0.6336
14585TIP3    H165170   2.044   3.058  12.069 -1.4689  1.3719  1.8035
14585TIP3    H265171   2.081   2.914  12.097 -1.8496  0.4996 -1.7427
14586TIP3   OH265172   5.060   1.374  14.081  0.3092 -0.5533  0.4971
14586TIP3    H165173   5.117   1.438  14.038  0.2468 -1.8268 -1.6787
14586TIP3    H265174   5.120   1.312  14.122  0.8592 -2.9098 -3.2751
14587TIP3   OH265175   6.512   2.966   1.794 -0.1009  0.1038  0.7022
14587TIP3    H165176   6.572   3.008   1.732 -1.2809  1.1567  0.2318
14587TIP3    H265177   6.434   3.022   1.793 -1.7994 -2.1481 -0.0270
14588TIP3   OH265178   1.475   6.514   4.053 -0.4511  0.1661 -0.4272
14588TIP3    H165179   1.398   6.480   4.007 -1.0416  0.4388  0.3613
14588TIP3    H265180   1.540   6.443   4.046 -1.5969 -1.0869  1.0235
14589TIP3   OH265181   5.549   4.781   2.723  0.3733  0.1016 -0.3088
14589TIP3    H165182   5.590   4.718   2.782 -2.3438 -1.8753 -0.3650
14589TIP3    H265183   5.532   4.857   2.778 -1.0149 -1.2481  1.2318
14590TIP3   OH265184   4.362   0.475  12.396  0.4261  0.0549  0.1283
14590TIP3    H165185   4.345   0.439  12.483  0.1565 -1.0466 -0.3559
14590TIP3    H265186   4.279   0.467  12.350  0.8601 -0.4922 -0.5988
14591TIP3   OH265187   0.833   2.008   1.898  0.7394  0.2048  0.1360
14591TIP3    H165188   0.776   2.085   1.906  1.2222  0.5619  0.1834
14591TIP3    H265189   0.810   1.971   1.813  1.5375  1.2602 -0.5743
14592TIP3   OH265190   6.424   2.361  14.117 -0.0230 -0.1205  0.1966
14592TIP3    H165191   6.457   2.392  14.032  0.0829 -0.0557  0.2607
14592TIP3    H265192   6.369   2.432  14.149  0.8128  0.3208  0.6851
14593TIP3   OH265193   6.008   5.924   4.173 -0.4232 -0.0702 -0.5711
14593TIP3    H165194   6.077   5.860   4.157 -1.2197 -0.7349 -1.4373
14593TIP3    H265195   5.948   5.914   4.099 -0.2236  2.1372 -1.1193
14594TIP3   OH265196   5.814   3.707   1.464 -0.2046 -0.1368  0.0711
14594TIP3    H165197   5.867   3.783   1.437  0.0679 -0.6961 -1.0182
14594TIP3    H265198   5.839   3.638   1.403  0.7636 -1.6126  2.0298
14595TIP3   OH265199   2.405   3.715   2.963  0.0023  0.1201  0.3552
14595TIP3    H165200   2.477   3.763   2.922 -1.2735  0.4261 -1.6534
14595TIP3    H265201   2.426   3.623   2.949  0.5388  0.1762  0.7654
14596TIP3   OH265202   0.635   4.985  12.961 -0.3412 -0.0065 -0.1603
14596TIP3    H165203   0.665   4.917  12.902 -1.9317 -1.0463  0.1668
14596TIP3    H265204   0.678   4.965  13.045  1.6493  1.2757 -0.7992
14597TIP3   OH265205   1.194   0.962   1.147  0.4890  0.3057 -0.2707
14597TIP3    H165206   1.125   0.915   1.194  0.9727 -0.5042 -0.3379
14597TIP3    H265207   1.251   0.892   1.113  0.1564  0.8420 -2.0747
14598TIP3   OH265208   4.863   5.023  13.193  0.3177 -0.1633  0.9834
14598TIP3    H165209   4.784   4.983  13.228 -1.2805 -0.1832 -2.2656
14598TIP3    H265210   4.930   4.955  13.200 -1.1595 -1.8339 -0.2686
14599TIP3   OH265211   2.291   0.525   4.404  0.3026  0.0925  0.1833
14599TIP3    H165212   2.217   0.476   4.367  0.4080 -0.8439  1.1683
14599TIP3    H265213   2.282   0.613   4.367  0.5196 -0.8154 -2.2358
14600TIP3   OH265214   4.348   5.021   4.101  0.6482  0.3364  0.0337
14600TIP3    H165215   4.304   5.005   4.185  0.2966 -0.8316 -0.3597
14600TIP3    H265216   4.433   5.057   4.125  0.4857  0.1686  0.8852
14601TIP3   OH265217   1.905   6.627  14.665  0.0597 -0.0171 -0.2724
14601TIP3    H165218   1.834   6.574  14.701 -2.1420  0.9834 -2.7900
14601TIP3    H265219   1.923   6.692  14.733  0.1119 -1.5838  1.2795
14602TIP3   OH265220   0.731   5.733  13.016  0.3261  0.1144 -0.5406
14602TIP3    H165221   0.695   5.697  12.935  0.5319  0.1614 -0.6538
14602TIP3    H265222   0.658   5.781  13.055  0.1859 -0.0290 -0.6264
14603TIP3   OH265223   1.083   6.297   1.617 -0.1835 -0.1218 -0.8361
14603TIP3    H165224   1.035   6.275   1.698  0.7675 -0.6763 -0.4118
14603TIP3    H265225   1.142   6.223   1.603  0.8537  0.7412 -1.1159
14604TIP3   OH265226   6.760   0.460  16.297 -0.2683 -0.0702  0.0877
14604TIP3    H165227   6.822   0.422  16.360  0.5974  0.0571 -0.6639
14604TIP3    H265228   6.719   0.532  16.345 -0.0707 -0.3584  0.7044
14605TIP3   OH265229   0.006   6.108  12.351 -0.1097  0.6447 -0.2347
14605TIP3    H165230   0.088   6.074  12.387 -0.2473  0.5186 -0.0339
14605TIP3    H265231  -0.062   6.056  12.394 -0.3900  1.8918  0.9170
14606TIP3   OH265232   6.770   2.504   0.691  1.0141  0.2407  0.1720
14606TIP3    H165233   6.742   2.462   0.772 -0.4271  2.4238  0.9173
14606TIP3    H265234   6.850   2.459   0.666  0.7295 -1.4166  2.0396
14607TIP3   OH265235   1.139   0.245  11.429  0.1009  0.5454  0.2118
14607TIP3    H165236   1.232   0.267  11.430  0.1309  0.4204  0.0891
14607TIP3    H265237   1.095   0.326  11.401  0.1334  0.7532  0.7490
14608TIP3   OH265238   4.733   5.754  15.354  0.2300 -0.1898  0.2419
14608TIP3    H165239   4.655   5.719  15.398 -0.5634 -2.2367 -2.5105
14608TIP3    H265240   4.698   5.815  15.289  1.1094  0.4106  0.3113
14609TIP3   OH265241   2.673   0.115  14.068  0.1120  0.0343  0.2096
14609TIP3    H165242   2.646   0.181  14.133 -1.0548  0.3562 -0.5791
14609TIP3    H265243   2.741   0.065  14.113  2.2339  2.7544  0.3342
14610TIP3   OH265244   6.527   5.348  16.283 -0.2008 -0.1914  0.0845
14610TIP3    H165245   6.538   5.269  16.335  1.2919  0.9488  1.6400
14610TIP3    H265246   6.567   5.417  16.337 -0.1740  1.3628 -1.8254
14611TIP3   OH265247   2.102   0.011   4.254  0.0442 -0.2351  0.1416
14611TIP3    H165248   2.172   0.066   4.289  0.2939  1.6114 -2.8322
14611TIP3    H265249   2.025   0.035   4.306  0.7047  1.1019  0.5623
14612TIP3   OH265250   0.427   2.805  11.947 -0.3266 -0.4803 -0.0971
14612TIP3    H165251   0.411   2.835  12.037  1.1548 -0.1729  0.0816
14612TIP3    H265252   0.474   2.722  11.958 -0.2412 -0.5009 -0.5997
14613TIP3   OH265253   5.805   5.950  13.611  0.3662 -0.5741  0.1346
14613TIP3    H165254   5.816   6.029  13.663 -1.4459 -0.3178  0.1633
14613TIP3    H265255   5.762   5.978  13.531 -2.1521 -1.7379  0.9745
14614TIP3   OH265256   3.328   2.834  13.267  0.6079  0.1380  0.2078
14614TIP3    H165257   3.420   2.855  13.288  0.3861  1.4140 -0.0258
14614TIP3    H265258   3.285   2.833  13.353  1.1966 -2.6369  0.5883
14615TIP3   OH265259   1.969   2.459  11.759  0.3013 -0.2098 -0.0454
14615TIP3    H165260   1.936   2.382  11.714  0.9420  0.0025 -0.8980
14615TIP3    H265261   2.032   2.497  11.699 -0.5988  1.4596  0.0212
14616TIP3   OH265262   3.755   1.913  11.638  0.3357 -0.4816 -0.1466
14616TIP3    H165263   3.661   1.925  11.625  0.3650  0.3880  0.3963
14616TIP3    H265264   3.795   1.958  11.564  0.3156 -2.0454 -1.1660
14617TIP3   OH265265   1.613   0.609   1.823 -0.2352 -0.6208  0.5252
14617TIP3    H165266   1.704   0.609   1.793  0.6255  1.4986  2.7433
14617TIP3    H265267   1.611   0.674   1.893 -3.7109  0.0956 -0.0502
14618TIP3   OH265268   1.828   5.130   4.926  0.1243  0.1819  0.0273
14618TIP3    H165269   1.833   5.225   4.913  2.0642  0.0164 -0.8172
14618TIP3    H265270   1.906   5.108   4.976 -0.2927 -0.9865  0.2052
14619TIP3   OH265271   0.702   3.711   2.147  0.3274  0.3297  0.4413
14619TIP3    H165272   0.756   3.692   2.070 -3.1396 -2.3670 -1.6487
14619TIP3    H265273   0.739   3.656   2.217 -0.0713 -2.1946 -1.1849
14620TIP3   OH265274   3.068   5.353  16.635 -0.2617  0.7853 -0.1677
14620TIP3    H165275   3.052   5.259  16.647 -0.5473  1.0312  1.7272
14620TIP3    H265276   2.986   5.395  16.661  0.7867  1.6678  2.0361
14621TIP3   OH265277   6.396   1.130  12.623  0.3653  0.4011 -0.0764
14621TIP3    H165278   6.360   1.206  12.578 -0.2825  0.1396 -0.0029
14621TIP3    H265279   6.387   1.058  12.561  1.1316  0.4039 -0.2093
14622TIP3   OH265280   0.068   1.503   2.145  0.4053 -0.6058 -0.3170
14622TIP3    H165281   0.073   1.598   2.154 -0.2069 -0.5737 -0.2811
14622TIP3    H265282   0.081   1.487   2.051  1.5615 -0.5687 -0.1775
14623TIP3   OH265283   1.463   0.831   5.733 -0.0218 -0.4707 -0.7586
14623TIP3    H165284   1.426   0.746   5.710 -0.7729 -0.7827  1.4084
14623TIP3    H265285   1.557   0.820   5.722 -0.2007 -1.1805 -1.6834
14624TIP3   OH265286   5.485   4.307  12.133 -0.2482 -0.0611 -0.3237
14624TIP3    H165287   5.521   4.286  12.219  1.3802  3.2405 -0.0476
14624TIP3    H265288   5.556   4.287  12.072 -0.1235  0.8278 -0.4789
14625TIP3   OH265289   3.464   5.749  16.096 -0.5112 -0.5481  0.0483
14625TIP3    H165290   3.397   5.707  16.149  0.6537 -0.8644  1.3148
14625TIP3    H265291   3.547   5.715  16.130  0.5319  2.8275  1.2321
14626TIP3   OH265292   5.702   2.650  17.175  0.5119 -0.2145 -0.3036
14626TIP3    H165293   5.739   2.566  17.203  0.7611  0.3441  1.1348
14626TIP3    H265294   5.657   2.631  17.094  0.7320 -1.7036 -0.0975
14627TIP3   OH265295   3.482   2.975   2.661 -0.2436  0.5083 -0.8208
14627TIP3    H165296   3.554   2.985   2.723 -0.8101 -3.4331  0.7419
14627TIP3    H265297   3.408   3.019   2.703 -0.1645 -0.5668  0.5170
14628TIP3   OH265298   6.415   0.268  14.785  0.0303 -0.3386 -0.3563
14628TIP3    H165299   6.325   0.238  14.778 -0.8941  1.9293  0.7114
14628TIP3    H265300   6.415   0.354  14.743  1.1971  0.5474  1.3510
14629TIP3   OH265301   5.767   2.425  15.504  0.2555 -0.4048 -0.2373
14629TIP3    H165302   5.842   2.411  15.563  1.4867 -3.2131 -2.2386
14629TIP3    H265303   5.798   2.489  15.441 -0.4637  1.2952  1.0453
14630TIP3   OH265304   5.511   5.227  13.791 -0.1058 -0.0755  0.3757
14630TIP3    H165305   5.555   5.170  13.854 -1.1510 -0.1535  1.0709
14630TIP3    H265306   5.462   5.166  13.735  0.3095  0.0355 -0.1208
14631TIP3   OH265307   2.261   4.891  12.011  0.0853 -0.0247  0.2468
14631TIP3    H165308   2.321   4.819  11.988  1.5525  1.1368  0.2817
14631TIP3    H265309   2.219   4.862  12.092  0.5225 -0.9152  0.1733
14632TIP3   OH265310   1.115   4.964   0.180  0.1422  0.3563 -0.4383
14632TIP3    H165311   1.174   4.908   0.231 -0.7098 -0.4957 -0.3522
14632TIP3    H265312   1.173   5.021   0.129  1.0138  0.7313  0.9326
14633TIP3   OH265313   6.559   5.168   3.763  0.0619  0.1752  0.3771
14633TIP3    H165314   6.570   5.256   3.727 -0.0222 -0.0805 -0.2828
14633TIP3    H265315   6.600   5.173   3.850 -0.4471  1.0161  0.5791
14634TIP3   OH265316   0.612   4.394  16.230 -0.1728 -0.0231 -0.0747
14634TIP3    H165317   0.638   4.454  16.160 -0.6388 -0.0550 -0.2812
14634TIP3    H265318   0.690   4.384  16.283 -0.1587  0.9925  0.1220
14635TIP3   OH265319   2.232   5.622  14.869 -0.0921  0.4352 -0.2346
14635TIP3    H165320   2.261   5.534  14.847 -0.0483  0.4085 -0.0716
14635TIP3    H265321   2.212   5.618  14.963 -0.0870  0.5984 -0.2259
14636TIP3   OH265322   1.714   1.681   2.238 -0.5213  0.1728 -0.7131
14636TIP3    H165323   1.763   1.599   2.239 -2.9020 -1.4283  2.5325
14636TIP3    H265324   1.680   1.688   2.149  2.7729 -0.2479 -2.1794
14637TIP3   OH265325   1.848   5.979  11.515  0.3241  0.3576  1.1796
14637TIP3    H165326   1.762   5.960  11.552  0.1749 -1.6451 -0.0294
14637TIP3    H265327   1.899   5.900  11.531  0.7859  0.0945 -1.1974
14638TIP3   OH265328   1.250   2.206   5.377 -0.2660  0.4517  0.4355
14638TIP3    H165329   1.225   2.295   5.355 -1.2382  0.0116 -0.3526
14638TIP3    H265330   1.217   2.192   5.466  2.0325  1.6404  1.5392
14639TIP3   OH265331   2.760   3.718  12.057 -0.4656 -0.3816 -0.2012
14639TIP3    H165332   2.704   3.788  12.023 -1.7466 -1.0304  0.5023
14639TIP3    H265333   2.699   3.657  12.098  0.8596 -0.4487  1.7880
14640TIP3   OH265334   0.768   0.002   2.870 -0.0833 -0.2608  0.4544
14640TIP3    H165335   0.748   0.095   2.885  2.2328  0.5033 -0.7347
14640TIP3    H265336   0.719  -0.020   2.791 -1.0131 -0.2148  1.0014
14641TIP3   OH265337   0.830   5.381   0.298  0.4410  0.2453 -0.4500
14641TIP3    H165338   0.757   5.328   0.263  1.8206 -1.6822 -0.5741
14641TIP3    H265339   0.821   5.373   0.393  0.3817  0.1489 -0.4629
14642TIP3   OH265340   5.725   3.189   0.355  0.4226 -0.9532 -0.6546
14642TIP3    H165341   5.770   3.120   0.306  1.0476  0.0059 -1.4721
14642TIP3    H265342   5.641   3.199   0.310 -0.0683 -1.8077  0.0413
14643TIP3   OH265343   4.727   6.075  13.123  0.2226 -0.1601 -0.1719
14643TIP3    H165344   4.810   6.056  13.080  0.4115  0.3315 -0.0281
14643TIP3    H265345   4.712   6.168  13.108 -1.4924 -0.6858 -2.2534
14644TIP3   OH265346   5.098   4.831  14.273  0.1614 -0.1580  0.1126
14644TIP3    H165347   5.146   4.867  14.199 -3.0420 -0.6620 -2.4091
14644TIP3    H265348   5.129   4.741  14.281 -0.2477 -0.4504 -1.4010
14645TIP3   OH265349   4.594   0.512   4.815 -0.1965  0.3942  0.8250
14645TIP3    H165350   4.596   0.490   4.722 -3.2626  1.3083  0.4142
14645TIP3    H265351   4.526   0.579   4.822 -0.3351  0.0667  3.7764
14646TIP3   OH265352   3.187   4.638  11.341  0.9313 -0.1803 -0.0385
14646TIP3    H165353   3.238   4.632  11.421  1.1467 -0.4897 -0.1963
14646TIP3    H265354   3.148   4.551  11.330 -0.9161  0.4678  0.9222
14647TIP3   OH265355   2.314   0.523   4.889 -0.0931 -0.4047 -0.1990
14647TIP3    H165356   2.287   0.613   4.871 -0.3204 -0.2914  0.6485
14647TIP3    H265357   2.374   0.530   4.964 -0.9530 -1.0516  0.5728
14648TIP3   OH265358   4.487   1.840   3.690  0.0831 -0.0603  0.0507
14648TIP3    H165359   4.414   1.866   3.633  0.9159  0.7402 -0.6956
14648TIP3    H265360   4.447   1.823   3.775 -1.2737 -1.8243 -0.8941
14649TIP3   OH265361   0.816   1.938   2.307  0.2854  0.2305 -0.2725
14649TIP3    H165362   0.748   2.004   2.295 -1.3734 -0.5722  3.3295
14649TIP3    H265363   0.798   1.873   2.239 -0.6224  1.4665 -1.2712
14650TIP3   OH265364   2.190   1.858  16.426 -0.2238  0.2828  0.2217
14650TIP3    H165365   2.103   1.828  16.452 -0.6878 -1.8003 -3.1151
14650TIP3    H265366   2.244   1.779  16.427  0.5778  0.7611 -1.4703
14651TIP3   OH265367   4.637   5.021   1.539 -0.1166 -0.5097  0.2538
14651TIP3    H165368   4.710   5.083   1.530  0.8765 -1.6091  0.4163
14651TIP3    H265369   4.567   5.072   1.579 -0.1305  1.0936 -1.6494
14652TIP3   OH265370   3.778   0.438   5.187  0.3923  0.0082 -0.3825
14652TIP3    H165371   3.799   0.494   5.262 -1.8621 -0.0945  0.4070
14652TIP3    H265372   3.845   0.370   5.189  1.3452  0.9238  0.5446
14653TIP3   OH265373   3.698   5.115  12.865 -0.4156 -0.5361  0.4978
14653TIP3    H165374   3.639   5.165  12.809  0.9130  1.3444  0.7082
14653TIP3    H265375   3.641   5.080  12.934 -1.8009 -1.5808 -1.1076
14654TIP3   OH265376   4.909   2.623  14.479  0.2471  0.2270  0.0636
14654TIP3    H165377   4.870   2.709  14.462  0.5581  0.7731  1.8785
14654TIP3    H265378   4.975   2.640  14.547  1.4506 -1.1953 -0.7007
14655TIP3   OH265379   1.774   3.342   5.638  0.3004  0.3017  0.0309
14655TIP3    H165380   1.770   3.252   5.670  1.5230 -0.0088 -0.6045
14655TIP3    H265381   1.841   3.384   5.692 -0.4597  0.9267  0.5121
14656TIP3   OH265382   0.548   1.537   3.321  0.3547  0.0911 -0.4745
14656TIP3    H165383   0.487   1.484   3.373 -0.2164  0.0741 -1.1416
14656TIP3    H265384   0.511   1.536   3.233  1.0893  0.4560 -0.7953
14657TIP3   OH265385   0.310   6.547  15.930 -0.2906  0.6902 -0.2822
14657TIP3    H165386   0.312   6.592  15.845  0.7789 -0.0366 -0.6636
14657TIP3    H265387   0.392   6.499  15.933 -0.5246  0.3470  0.9843
14658TIP3   OH265388   4.660   0.364   5.453 -0.6421 -0.2719  0.3032
14658TIP3    H165389   4.651   0.425   5.379 -0.2590 -0.6871 -0.0964
14658TIP3    H265390   4.708   0.290   5.416  1.0345  0.2244  1.3833
14659TIP3   OH265391   4.804   4.261  12.013 -0.5281  0.1831 -0.2932
14659TIP3    H165392   4.759   4.182  11.982  1.0423  0.1096 -2.5871
14659TIP3    H265393   4.875   4.227  12.068  0.4638 -0.0879 -1.6927
14660TIP3   OH265394   4.866   2.090  12.515  0.8784  0.0472 -0.0080
14660TIP3    H165395   4.844   2.029  12.444 -0.5179  0.6731 -0.1333
14660TIP3    H265396   4.952   2.125  12.490  0.1808  0.6602 -1.6996
14661TIP3   OH265397   2.339   2.552   0.432  0.0208 -0.3496 -0.3718
14661TIP3    H165398   2.246   2.539   0.447 -0.2145 -1.0348 -2.1688
14661TIP3    H265399   2.360   2.494   0.359  1.4037  1.2496 -1.3355
14662TIP3   OH265400   4.024   2.054  14.556 -0.1408  0.5815 -0.3650
14662TIP3    H165401   3.949   2.091  14.602 -0.1601 -0.2438  0.2949
14662TIP3    H265402   4.029   2.103  14.474 -3.1021 -1.0876 -1.7414
14663TIP3   OH265403   5.266   3.627  12.754 -0.3959 -0.1344 -0.0114
14663TIP3    H165404   5.190   3.656  12.704 -1.7619 -0.6690  1.6869
14663TIP3    H265405   5.230   3.577  12.827  1.5594  0.0810  1.1680
14664TIP3   OH265406   3.197   5.824  16.817 -0.6318  0.2900  0.2132
14664TIP3    H165407   3.258   5.840  16.745 -1.5955  1.9887 -0.3035
14664TIP3    H265408   3.251   5.790  16.888  0.9339  1.6738 -0.2396
14665TIP3   OH265409   3.395   6.185  15.263  0.4213 -0.2932 -0.1552
14665TIP3    H165410   3.351   6.113  15.308  1.4348 -0.2549  0.9312
14665TIP3    H265411   3.477   6.147  15.232  0.9275  0.3583  0.3581
14666TIP3   OH265412   3.934   4.533  14.394  0.1240 -0.0279 -0.2310
14666TIP3    H165413   3.973   4.561  14.311  1.3847 -2.9768 -0.7938
14666TIP3    H265414   3.947   4.607  14.453  1.1993  1.3462 -2.0725
14667TIP3   OH265415   2.369   4.616  14.287  0.1521 -0.1005  0.7388
14667TIP3    H165416   2.354   4.664  14.205 -1.4302 -0.1277  0.9814
14667TIP3    H265417   2.396   4.529  14.258  2.5449  0.7242  0.2968
14668TIP3   OH265418   3.878   5.738  13.014 -0.1149  0.2166 -0.2324
14668TIP3    H165419   3.877   5.830  12.989 -1.0699 -0.1870 -1.9053
14668TIP3    H265420   3.902   5.692  12.933  0.4287 -0.9896  0.5915
14669TIP3   OH265421   1.480   3.381   6.278  0.0734 -0.4585 -0.2409
14669TIP3    H165422   1.570   3.413   6.284 -0.1481  0.0056  0.8034
14669TIP3    H265423   1.487   3.287   6.296  0.4096 -0.5418 -0.7669
14670TIP3   OH265424   2.042   1.538  17.103  0.3041  0.0881  0.0146
14670TIP3    H165425   2.066   1.446  17.098  2.2003  0.4433  1.1808
14670TIP3    H265426   2.011   1.550  17.193 -0.1671  0.5270 -0.2048
14671TIP3   OH265427   1.175   6.280  12.187  0.1258  0.2716 -0.2161
14671TIP3    H165428   1.219   6.296  12.270  1.8558 -0.2535 -0.9972
14671TIP3    H265429   1.246   6.274  12.123 -1.0208 -1.4348 -1.4042
14672TIP3   OH265430   1.860   2.216   3.089  0.1814 -0.7362  0.3781
14672TIP3    H165431   1.862   2.185   2.998 -0.2517 -1.7843  0.7124
14672TIP3    H265432   1.875   2.137   3.141  2.9894  0.1973  1.1738
14673TIP3   OH265433   5.562   6.573  11.051 -0.0132 -0.1565 -0.3293
14673TIP3    H165434   5.511   6.574  10.970 -0.3920 -1.6976 -0.1514
14673TIP3    H265435   5.510   6.625  11.112 -1.9108 -2.3350  0.0821
14674TIP3   OH265436   6.604   2.989  16.586 -0.4794 -0.1278 -0.5866
14674TIP3    H165437   6.520   2.962  16.548 -0.0418 -0.2486 -1.5104
14674TIP3    H265438   6.645   2.907  16.613 -0.7072 -0.0583 -0.0268
14675TIP3   OH265439   3.278   6.129   2.150  0.4547  0.2874  0.1690
14675TIP3    H165440   3.240   6.214   2.128 -0.7742 -0.5496 -1.1149
14675TIP3    H265441   3.373   6.142   2.139  0.1865  1.0645 -1.7590
14676TIP3   OH265442   2.047   1.319   0.188 -0.4079  0.1795 -0.6482
14676TIP3    H165443   2.003   1.402   0.171  0.0287  0.1930 -1.8454
14676TIP3    H265444   2.035   1.304   0.281 -0.8597  1.3780 -0.4909
14677TIP3   OH265445   3.920   4.569  11.889 -0.6445  0.6978  0.3014
14677TIP3    H165446   3.980   4.494  11.888  0.0840  1.2541  1.1725
14677TIP3    H265447   3.861   4.553  11.815 -1.2157 -1.3094  1.1052
14678TIP3   OH265448   6.115   3.610  14.050 -0.1095 -0.1336  0.1297
14678TIP3    H165449   6.183   3.551  14.082 -2.1673 -3.5007 -1.1902
14678TIP3    H265450   6.135   3.621  13.957  0.0798  1.1079  0.2947
14679TIP3   OH265451   5.409   4.199  16.430 -0.5540 -0.3486 -0.4847
14679TIP3    H165452   5.414   4.107  16.457 -2.4635 -0.2842  0.2514
14679TIP3    H265453   5.424   4.248  16.511  1.3726  0.0487 -1.0380
14680TIP3   OH265454   4.822   4.373   0.419 -0.3444  0.2773 -0.1002
14680TIP3    H165455   4.762   4.382   0.492 -0.8137 -1.0431 -0.2905
14680TIP3    H265456   4.862   4.286   0.431  2.5761  1.6321  0.7882
14681TIP3   OH265457   6.415   3.602   5.926  0.2314 -0.4136  0.6414
14681TIP3    H165458   6.414   3.549   6.006 -1.9743 -0.8732  0.3710
14681TIP3    H265459   6.346   3.565   5.871  2.3373 -0.7730 -1.9894
14682TIP3   OH265460   4.418   6.518  12.205 -0.2507  0.2359 -0.4763
14682TIP3    H165461   4.462   6.548  12.125  0.7661  0.5578  0.1880
14682TIP3    H265462   4.426   6.591  12.266 -0.6296 -0.1768  0.0796
14683TIP3   OH265463   5.094   3.476  12.897 -0.2344 -0.5105 -0.0864
14683TIP3    H165464   5.094   3.441  12.808  1.0273 -0.9134  0.0464
14683TIP3    H265465   5.115   3.401  12.952  2.7161  0.3825  0.1927
14684TIP3   OH265466   0.192   2.041  14.364  0.0125 -0.3377 -0.6551
14684TIP3    H165467   0.272   2.043  14.416  1.6426  0.0073 -3.0296
14684TIP3    H265468   0.171   1.948  14.356 -1.4629 -0.3413  2.2166
14685TIP3   OH265469   2.588   5.814   6.370 -0.2132  0.1684  0.1822
14685TIP3    H165470   2.616   5.764   6.294  0.2687  0.5394  0.1105
14685TIP3    H265471   2.535   5.885   6.334  2.8126  2.4355 -0.2118
14686TIP3   OH265472   4.345   0.068  14.991 -0.1152  0.2000 -0.4575
14686TIP3    H165473   4.411   0.024  15.045  1.2525  1.7621 -0.7808
14686TIP3    H265474   4.309   0.136  15.047 -0.3367  0.3547 -0.7821
14687TIP3   OH265475   3.197   1.543   5.813  0.1398 -0.0834 -0.3345
14687TIP3    H165476   3.199   1.473   5.748 -0.1303  1.1764 -1.7599
14687TIP3    H265477   3.136   1.608   5.778 -0.7393  0.2520  1.6295
14688TIP3   OH265478   3.691   6.267   0.608 -0.2538  0.1612  0.0210
14688TIP3    H165479   3.770   6.318   0.623 -0.4757  1.9313 -3.6404
14688TIP3    H265480   3.722   6.183   0.576  0.3138  1.0746 -2.0583
14689TIP3   OH265481   2.041   2.221  12.316 -0.5455  0.4155  0.0188
14689TIP3    H165482   2.043   2.131  12.283 -1.2785  0.6678 -0.7536
14689TIP3    H265483   1.993   2.269  12.249  1.4693  1.7751 -0.5577
14690TIP3   OH265484   5.673   3.014   4.171  0.2113 -0.0646 -0.5382
14690TIP3    H165485   5.582   3.043   4.160 -0.2588 -0.1434  2.4390
14690TIP3    H265486   5.669   2.919   4.164 -0.5398 -0.3428  2.3927
14691TIP3   OH265487   6.545   1.976   0.460  0.0410  0.0102 -0.9434
14691TIP3    H165488   6.577   1.975   0.551  1.1076 -0.8207 -1.2983
14691TIP3    H265489   6.482   2.048   0.457 -0.2186 -0.1264  0.5253
14692TIP3   OH265490   6.067   1.311   1.489  0.1617 -0.1367  0.4810
14692TIP3    H165491   6.084   1.306   1.395 -1.3531  0.1367  0.1631
14692TIP3    H265492   6.115   1.388   1.518 -0.0905  0.3026 -0.2515
14693TIP3   OH265493   1.498   2.098   0.605 -0.0399 -0.3417 -0.4692
14693TIP3    H165494   1.586   2.059   0.605 -0.5970 -1.6218  0.2491
14693TIP3    H265495   1.480   2.114   0.512  0.4523 -1.2217 -0.7274
14694TIP3   OH265496   3.330   1.862   4.769  0.1773 -0.0641 -0.1384
14694TIP3    H165497   3.301   1.921   4.700  1.3919 -0.6624 -1.2094
14694TIP3    H265498   3.425   1.857   4.758  0.7614  1.4746  2.9171
14695TIP3   OH265499   0.471   4.563  12.856  0.7249  0.1295 -0.0403
14695TIP3    H165500   0.463   4.628  12.926 -1.5389  0.5552 -0.6197
14695TIP3    H265501   0.397   4.505  12.870  0.4799 -0.0253 -1.8463
14696TIP3   OH265502   5.663   1.908  14.536 -0.0772 -0.2424 -0.8092
14696TIP3    H165503   5.650   1.813  14.545  0.4921 -0.2338  0.2966
14696TIP3    H265504   5.737   1.916  14.476  0.4685 -0.5425 -0.1965
14697TIP3   OH265505   5.745   3.736   5.398 -0.0198 -0.0182  0.3732
14697TIP3    H165506   5.679   3.712   5.462 -0.6311  0.8642  0.0967
14697TIP3    H265507   5.726   3.681   5.322 -0.8159  0.6348  0.0837
14698TIP3   OH265508   5.061   2.350  12.631  0.1379  0.3095 -0.4517
14698TIP3    H165509   4.994   2.323  12.693  0.8589 -0.4726  0.0147
14698TIP3    H265510   5.016   2.359  12.548 -0.7243  0.7473  0.0534
14699TIP3   OH265511   2.320   2.212  11.219 -0.1510  0.2191 -0.1072
14699TIP3    H165512   2.297   2.182  11.307  1.1462  2.9061  1.2666
14699TIP3    H265513   2.247   2.184  11.164 -2.3235  0.7823  2.3334
14700TIP3   OH265514   3.649   2.873  11.236  0.1241  0.6207  0.0012
14700TIP3    H165515   3.608   2.891  11.320  1.3432  1.4314  0.4491
14700TIP3    H265516   3.582   2.825  11.186  0.0690 -1.6418  2.0958
14701TIP3   OH265517   4.411   3.351  14.728 -0.4078  0.3285 -0.6845
14701TIP3    H165518   4.425   3.442  14.700  0.6262  0.4943  0.2797
14701TIP3    H265519   4.499   3.318  14.745 -0.8610 -0.4172  0.3154
14702TIP3   OH265520   4.348   4.303  12.264  0.2947  0.2500  0.0333
14702TIP3    H165521   4.388   4.322  12.179  0.4487  1.6801  0.4072
14702TIP3    H265522   4.417   4.257  12.312  0.9113  1.1752  0.0617
14703TIP3   OH265523   1.819   3.650   3.136  0.6050  0.5968 -0.1750
14703TIP3    H165524   1.751   3.703   3.178 -1.3234 -0.9843 -1.1419
14703TIP3    H265525   1.887   3.642   3.203 -1.0303  0.5944  1.5972
14704TIP3   OH265526   6.693   3.258   4.913  0.0389 -0.5893 -0.6582
14704TIP3    H165527   6.640   3.285   4.839  0.6033 -0.6363 -1.0872
14704TIP3    H265528   6.664   3.169   4.933 -2.1778  0.4183  1.0780
14705TIP3   OH265529   1.898   3.651  12.728 -0.5278  0.6281 -0.3291
14705TIP3    H165530   1.847   3.692  12.659 -0.6865  0.2675 -0.4264
14705TIP3    H265531   1.834   3.605  12.782 -0.0841 -2.9436 -2.4919
14706TIP3   OH265532   0.934   1.443  11.331 -0.0306  0.6622 -0.2890
14706TIP3    H165533   1.003   1.502  11.300  0.0398  0.2001 -1.0507
14706TIP3    H265534   0.952   1.431  11.424  0.7645  0.7556 -0.4238
14707TIP3   OH265535   2.798   2.904  16.612  0.1372 -0.6776 -0.1532
14707TIP3    H165536   2.742   2.951  16.550 -0.9860 -1.1855  0.4455
14707TIP3    H265537   2.740   2.841  16.654  1.2250 -1.4011  0.3205
14708TIP3   OH265538   0.867   0.821  16.484 -0.3226  0.2508 -0.5361
14708TIP3    H165539   0.837   0.864  16.564 -2.6738 -0.2008 -1.0957
14708TIP3    H265540   0.904   0.891  16.432  1.7361  0.4756  1.0878
14709TIP3   OH265541   6.280   2.696   1.911 -0.3341 -0.7974 -0.0362
14709TIP3    H165542   6.325   2.714   1.994  1.4151  0.8085 -1.2547
14709TIP3    H265543   6.344   2.648   1.859 -2.0047 -3.3208  0.0588
14710TIP3   OH265544   1.530   6.540   1.669  0.1666  0.4230 -0.0593
14710TIP3    H165545   1.619   6.505   1.667  0.1417  0.2513  1.1297
14710TIP3    H265546   1.535   6.616   1.726 -0.5272  0.1606  0.3731
14711TIP3   OH265547   5.368   0.790  15.649 -0.4937 -0.1747 -0.0355
14711TIP3    H165548   5.392   0.712  15.698 -0.9237  0.0774  0.5890
14711TIP3    H265549   5.395   0.863  15.705  1.5890  0.1847 -1.3982
14712TIP3   OH265550   2.828   4.955  16.390 -0.5946 -0.4391 -0.5973
14712TIP3    H165551   2.778   5.037  16.387 -1.8482 -1.1316  0.0932
14712TIP3    H265552   2.912   4.979  16.428 -0.6073  0.6736 -1.2269
14713TIP3   OH265553   6.132   6.368   1.517  0.2566  0.2477  0.2075
14713TIP3    H165554   6.163   6.372   1.607  2.3828 -0.8692 -0.4075
14713TIP3    H265555   6.154   6.453   1.480 -0.7835  0.7747  0.7539
14714TIP3   OH265556   4.757   0.926   0.124  0.2894 -0.2749 -0.3895
14714TIP3    H165557   4.739   0.885   0.208  0.3688  0.1558 -0.1605
14714TIP3    H265558   4.794   1.012   0.146  0.4435 -0.2168 -0.8605
14715TIP3   OH265559   2.846   0.545   2.720  0.3901 -0.5780  0.1389
14715TIP3    H165560   2.897   0.465   2.734  0.2332 -0.6019  0.6226
14715TIP3    H265561   2.776   0.539   2.786  0.4111 -0.0177  0.2135
14716TIP3   OH265562   2.862   3.720   3.234  0.1266 -0.0468  0.4650
14716TIP3    H165563   2.891   3.676   3.314 -0.2001 -0.0380  0.5904
14716TIP3    H265564   2.792   3.778   3.264  0.9954  1.0470  0.4083
14717TIP3   OH265565   0.218   5.298   2.841 -0.6723 -0.1850 -0.4663
14717TIP3    H165566   0.236   5.362   2.910 -0.5984  1.2988 -1.7960
14717TIP3    H265567   0.240   5.214   2.880  0.8717  0.7498  0.8036
14718TIP3   OH265568   2.881   3.318   1.017  1.0115  0.8856 -0.0960
14718TIP3    H165569   2.975   3.329   1.032  1.5773  0.2857 -2.6714
14718TIP3    H265570   2.871   3.224   1.000 -0.3999  0.6191  1.8395
14719TIP3   OH265571   1.096   5.444   0.239  0.5529  0.6661  0.7278
14719TIP3    H165572   1.022   5.397   0.279  0.4598 -0.7371 -0.9487
14719TIP3    H265573   1.072   5.452   0.146  0.9409  3.4084  0.7746
14720TIP3   OH265574   6.100   4.778   5.590  0.3330  0.0200 -0.1657
14720TIP3    H165575   6.098   4.684   5.571  2.3980  0.1508 -1.3400
14720TIP3    H265576   6.192   4.795   5.613 -0.3028  1.5082  1.5097
14721TIP3   OH265577   2.484   3.991  12.785  0.6232  0.0034 -1.5002
14721TIP3    H165578   2.437   4.044  12.850  0.2989 -0.1385 -1.6187
14721TIP3    H265579   2.560   4.045  12.762  2.0256 -0.8994  0.6911
14722TIP3   OH265580   5.835   5.440   3.258  0.6382 -0.0003  1.0128
14722TIP3    H165581   5.852   5.394   3.176  1.9515  0.9909  0.7104
14722TIP3    H265582   5.758   5.493   3.241  1.8134  1.4054 -0.1084
14723TIP3   OH265583   1.612   2.448   4.047  0.1161  0.4426  0.1180
14723TIP3    H165584   1.535   2.489   4.085 -0.4947 -1.3968  0.9896
14723TIP3    H265585   1.578   2.387   3.982  0.9951  1.2561 -1.1653
14724TIP3   OH265586   0.789   4.244  12.827  0.0922  0.3084 -0.1840
14724TIP3    H165587   0.799   4.239  12.732 -2.4903  0.5834 -0.5303
14724TIP3    H265588   0.833   4.326  12.851 -0.7544  1.1470 -1.3975
14725TIP3   OH265589   0.901   0.655   1.943 -0.1507 -0.8413 -0.1209
14725TIP3    H165590   0.809   0.628   1.947  0.1890 -2.1853 -0.7300
14725TIP3    H265591   0.938   0.602   1.872  0.9973 -0.0054 -0.1642
14726TIP3   OH265592   2.793   5.479  14.525  0.2426  0.3721  0.5913
14726TIP3    H165593   2.880   5.485  14.484 -0.1931  0.7013 -0.3167
14726TIP3    H265594   2.786   5.558  14.578  0.4891  0.3530  0.6559
14727TIP3   OH265595   2.219   5.038  14.336  0.0877  0.1517  0.2299
14727TIP3    H165596   2.128   5.025  14.362  0.1501  0.6266  0.7046
14727TIP3    H265597   2.214   5.103  14.266  0.2233  2.1477  1.9555
14728TIP3   OH265598   1.395   0.585  13.705 -0.3243  0.4616  0.3496
14728TIP3    H165599   1.345   0.505  13.690  0.2540 -0.0942  1.3229
14728TIP3    H265600   1.337   0.639  13.759 -1.4790  1.5206 -1.8204
14729TIP3   OH265601   3.348   4.488   4.749  0.2897 -0.3556  0.3007
14729TIP3    H165602   3.309   4.479   4.835  0.0123  0.8336  0.3208
14729TIP3    H265603   3.274   4.488   4.688  0.4683 -0.9783  0.0700
14730TIP3   OH265604   6.591   1.922  12.808 -0.1907 -0.2307  0.1701
14730TIP3    H165605   6.614   1.950  12.896 -0.3331  1.6843 -0.3516
14730TIP3    H265606   6.543   1.840  12.820 -0.4610  0.1425  1.8755
14731TIP3   OH265607   0.059   2.215  14.728 -0.5255  0.3185 -0.2930
14731TIP3    H165608   0.094   2.263  14.653 -0.0003 -0.3733 -0.4977
14731TIP3    H265609   0.135   2.173  14.768 -0.8479  0.3960  0.4269
14732TIP3   OH265610   0.270   1.675   2.585  0.2421 -0.2017  0.2307
14732TIP3    H165611   0.278   1.593   2.536  0.6320 -0.9448  1.4872
14732TIP3    H265612   0.318   1.739   2.532  0.8700 -1.0349 -0.2386
14733TIP3   OH265613   4.337   0.592   0.702  0.5486  0.4862  0.5171
14733TIP3    H165614   4.358   0.621   0.790  0.9022  0.2096  0.5294
14733TIP3    H265615   4.250   0.628   0.684  1.2918  2.2535  0.2230
14734TIP3   OH265616   2.290   5.023   2.482 -0.0626  0.0971 -0.1936
14734TIP3    H165617   2.262   4.933   2.503  0.3697 -0.1814 -0.7775
14734TIP3    H265618   2.385   5.017   2.478  0.0877  0.9393  1.3372
14735TIP3   OH265619   6.052   0.426  13.066  0.0291 -0.7058 -0.5979
14735TIP3    H165620   6.015   0.475  13.139 -0.6514 -2.6623  0.4458
14735TIP3    H265621   6.146   0.443  13.070  0.3240 -2.4576  2.1416
14736TIP3   OH265622   3.237   1.759  10.889  0.3634 -0.1516 -0.0992
14736TIP3    H165623   3.156   1.734  10.845  0.5550  0.2138 -0.6689
14736TIP3    H265624   3.250   1.851  10.864  1.5873 -0.5458 -0.9870
14737TIP3   OH265625   2.684   2.393   6.975  0.2491 -0.6660  0.0675
14737TIP3    H165626   2.651   2.474   6.938  0.0228 -0.7074  0.1744
14737TIP3    H265627   2.719   2.344   6.901 -0.1663 -0.7329 -0.0884
14738TIP3   OH265628   1.823   2.639   4.723  0.1569 -0.1796  0.6076
14738TIP3    H165629   1.782   2.682   4.798  0.4373  1.4568 -0.1437
14738TIP3    H265630   1.823   2.546   4.746 -1.1675  0.1164  1.9477
14739TIP3   OH265631   2.083   3.901   1.963 -0.2713 -0.3286 -1.1514
14739TIP3    H165632   2.156   3.845   1.938  0.3541 -0.6157  1.1576
14739TIP3    H265633   2.013   3.841   1.988  0.2541 -0.1382  0.9122
14740TIP3   OH265634   0.897   3.473  11.601  0.1288 -0.3141 -0.0436
14740TIP3    H165635   0.817   3.510  11.564  0.0895 -0.2827  0.0738
14740TIP3    H265636   0.922   3.533  11.671 -0.5698 -1.1223  0.9283
14741TIP3   OH265637   4.306   4.788  17.073 -0.5064  0.2229 -0.6325
14741TIP3    H165638   4.210   4.783  17.074 -0.4955 -0.7315  1.5435
14741TIP3    H265639   4.331   4.790  17.166  1.6372 -1.4105 -1.0947
14742TIP3   OH265640   3.581   5.429   3.287  0.2719  0.1540 -0.5666
14742TIP3    H165641   3.488   5.448   3.275  0.5456  3.7737  1.6231
14742TIP3    H265642   3.610   5.399   3.201 -2.5794  0.4423 -1.7510
14743TIP3   OH265643   4.483   3.296  16.587 -0.0456 -0.5217 -0.8279
14743TIP3    H165644   4.563   3.348  16.594  0.0624 -0.7757 -0.1129
14743TIP3    H265645   4.482   3.265  16.497 -0.7791  1.7953 -1.7117
14744TIP3   OH265646   4.600   5.385  11.114 -0.6963  0.4562 -0.0615
14744TIP3    H165647   4.507   5.389  11.137 -0.2213  0.6047  2.0371
14744TIP3    H265648   4.641   5.452  11.168  0.8089 -0.4568 -0.0043
14745TIP3   OH265649   4.977   0.018  15.742 -0.0399  0.0526  0.0079
14745TIP3    H165650   5.008  -0.033  15.817 -0.6517  0.1046  0.3026
14745TIP3    H265651   4.936  -0.047  15.685 -1.9852  0.3490  0.9881
14746TIP3   OH265652   4.213   4.556   1.955 -0.4023  0.5707  0.0224
14746TIP3    H165653   4.133   4.553   1.904 -0.6348  1.1181  0.3424
14746TIP3    H265654   4.192   4.510   2.036  0.3868 -1.5240 -0.9119
14747TIP3   OH265655   4.966   5.180   4.445 -0.2153  0.4780  0.2077
14747TIP3    H165656   4.886   5.174   4.394 -0.2507  0.2697  0.2848
14747TIP3    H265657   5.028   5.124   4.399 -0.3067  0.1329  0.4982
14748TIP3   OH265658   0.289   1.487   2.350 -0.2649  0.1058 -0.2882
14748TIP3    H165659   0.361   1.476   2.287 -0.0213 -1.0701  0.1665
14748TIP3    H265660   0.210   1.490   2.296  0.0739  0.8085 -0.7538
14749TIP3   OH265661   0.774   4.646  15.349  0.4802 -0.2229 -0.2861
14749TIP3    H165662   0.790   4.552  15.346  0.9803 -0.1642  0.2301
14749TIP3    H265663   0.861   4.685  15.339 -0.0251  0.2893 -3.7702
14750TIP3   OH265664   3.456   0.487   4.508  0.5416  0.2586 -0.2554
14750TIP3    H165665   3.360   0.493   4.509  0.3689  1.2418 -4.2267
14750TIP3    H265666   3.475   0.395   4.525 -1.0475  0.0893  0.8532
14751TIP3   OH265667   4.037   6.738   3.417  0.0922 -0.2420  0.1513
14751TIP3    H165668   4.104   6.673   3.394 -0.0953 -0.5529  0.4676
14751TIP3    H265669   4.069   6.820   3.379 -0.1739 -0.7157 -1.1668
14752TIP3   OH265670   1.629   4.531  14.828 -0.1539 -0.2319 -0.0266
14752TIP3    H165671   1.666   4.546  14.915 -2.1075 -0.5399  0.9149
14752TIP3    H265672   1.657   4.607  14.777  0.3547  0.3706  1.1000
14753TIP3   OH265673   6.540   2.648   5.364 -0.5345 -0.3473 -0.3257
14753TIP3    H165674   6.605   2.666   5.431  1.4613 -1.3543 -1.8795
14753TIP3    H265675   6.456   2.667   5.406  0.6964  0.4219  1.9504
14754TIP3   OH265676   1.293   1.492  16.586 -0.1005 -0.6418 -0.2485
14754TIP3    H165677   1.344   1.573  16.577 -0.5186 -0.2690  0.6570
14754TIP3    H265678   1.351   1.432  16.632 -0.8027  0.1455  1.8050
14755TIP3   OH265679   3.019   0.680   3.554 -0.2053  0.2877  0.2051
14755TIP3    H165680   3.110   0.708   3.564  0.8272 -2.5735 -0.1670
14755TIP3    H265681   2.999   0.633   3.634 -0.5078 -1.1132 -0.6549
14756TIP3   OH265682   6.761   4.493  13.814  0.0120  0.4095  0.3021
14756TIP3    H165683   6.702   4.446  13.872 -1.5279  1.8220 -0.0532
14756TIP3    H265684   6.771   4.579  13.855  0.7820  0.6324 -0.3303
14757TIP3   OH265685   6.644   0.703   0.700 -0.2555  0.0882  0.2319
14757TIP3    H165686   6.653   0.748   0.784 -0.2259 -0.0244  0.2881
14757TIP3    H265687   6.718   0.734   0.649  0.5481 -0.9502  0.7425
14758TIP3   OH265688   5.441   3.906  14.192  0.1875  0.4487 -0.2394
14758TIP3    H165689   5.417   3.817  14.219 -0.8510  0.5162 -0.9103
14758TIP3    H265690   5.490   3.941  14.266 -1.0667 -0.0027  0.8339
14759TIP3   OH265691   3.789   4.061  12.312  0.0616 -0.6753 -0.1155
14759TIP3    H165692   3.860   4.116  12.344  1.0599 -2.2892  0.5354
14759TIP3    H265693   3.750   4.023  12.390  0.0288 -1.6578 -0.5973
14760TIP3   OH265694   4.129   1.268   3.703  0.5841 -0.6589 -0.1331
14760TIP3    H165695   4.198   1.330   3.679  0.3006  0.1242  0.9879
14760TIP3    H265696   4.163   1.182   3.677  0.8669 -0.0402 -1.9747
14761TIP3   OH265697   1.599   3.482   4.165 -0.2665  0.1381  0.0665
14761TIP3    H165698   1.620   3.558   4.111  1.3872  0.4497  1.0493
14761TIP3    H265699   1.645   3.409   4.122  0.9576  0.3660  0.9305
14762TIP3   OH265700   6.170   1.614   0.617 -0.1130  0.0227 -0.2696
14762TIP3    H165701   6.208   1.619   0.704  0.5250 -1.3292 -0.4528
14762TIP3    H265702   6.122   1.696   0.607  0.5572  0.5909  0.9960
14763TIP3   OH265703   5.641   3.397  12.177 -0.3784 -0.1711 -0.1280
14763TIP3    H165704   5.547   3.405  12.190 -0.4419  0.6091 -0.9606
14763TIP3    H265705   5.651   3.359  12.090  0.0700 -0.1845 -0.0744
14764TIP3   OH265706   2.271   5.659  15.943 -0.0291  0.0654 -0.6486
14764TIP3    H165707   2.325   5.645  16.021 -1.5327  1.6655  0.7572
14764TIP3    H265708   2.310   5.736  15.901  1.5550 -1.5373 -2.2569
14765TIP3   OH265709   4.366   6.518  15.528  0.2753 -0.2103  0.3901
14765TIP3    H165710   4.280   6.559  15.521  1.3397  2.3510  0.9614
14765TIP3    H265711   4.400   6.518  15.438 -0.6945 -2.2866 -0.0332
14766TIP3   OH265712   6.609   3.176   6.248 -0.2241  0.5552 -0.0414
14766TIP3    H165713   6.606   3.084   6.223 -0.8357  1.1394 -2.2826
14766TIP3    H265714   6.517   3.202   6.256 -0.0615  0.6261  2.1229
14767TIP3   OH265715   6.602   5.578  16.434 -0.0393  0.1603  1.1157
14767TIP3    H165716   6.567   5.602  16.348  2.8125 -1.1424 -0.5657
14767TIP3    H265717   6.615   5.662  16.478 -0.3385  0.9670 -0.2520
14768TIP3   OH265718   6.331   3.175   0.438 -0.2118  0.3310 -0.1708
14768TIP3    H165719   6.349   3.173   0.532 -2.9525  0.4402  0.4488
14768TIP3    H265720   6.391   3.110   0.401  0.6797  0.0165  1.6950
14769TIP3   OH265721   3.811   2.114   3.915 -0.4055 -0.2622  0.3767
14769TIP3    H165722   3.834   2.146   4.002 -1.4086 -0.7263  0.8267
14769TIP3    H265723   3.728   2.069   3.927 -0.8207  0.1100 -0.9216
14770TIP3   OH265724   3.753   1.243  11.515 -0.0380  0.3189  0.0896
14770TIP3    H165725   3.793   1.329  11.525 -2.0259  1.3762 -0.5716
14770TIP3    H265726   3.785   1.210  11.431 -0.4964  1.1299 -0.4131
14771TIP3   OH265727   6.476   5.217  13.001 -0.4057  0.5659 -0.1386
14771TIP3    H165728   6.410   5.206  12.932  0.2818  0.0930 -0.7330
14771TIP3    H265729   6.456   5.147  13.064 -1.1348  1.0995  0.2380
14772TIP3   OH265730   5.397   5.563   2.719 -0.1284 -0.3187  0.3225
14772TIP3    H165731   5.319   5.607   2.685  1.0087  1.2988 -0.3054
14772TIP3    H265732   5.443   5.533   2.641  0.9931  0.7526  0.5462
14773TIP3   OH265733   2.677   3.066   0.646 -0.1088  0.1746  0.0261
14773TIP3    H165734   2.584   3.048   0.659  0.3199 -1.5086  1.1951
14773TIP3    H265735   2.711   2.989   0.600  0.5764  1.1366 -1.1443
14774TIP3   OH265736   1.432   1.228   0.581 -0.3089 -0.2692 -0.2441
14774TIP3    H165737   1.499   1.191   0.638 -0.3143  1.0770  0.7084
14774TIP3    H265738   1.359   1.167   0.585  0.8047 -1.7352 -1.2628
14775TIP3   OH265739   1.884   0.886  10.848  0.0632  0.2551 -0.2238
14775TIP3    H165740   1.820   0.953  10.823  0.3508  0.4725 -0.3955
14775TIP3    H265741   1.848   0.804  10.815  0.2772  0.4939 -1.0717
14776TIP3   OH265742   6.741   0.169   0.132  0.4004 -0.2992  0.2711
14776TIP3    H165743   6.753   0.080   0.098  0.5433 -0.6468  1.2083
14776TIP3    H265744   6.698   0.158   0.217 -0.4160  0.5865 -0.0014
14777TIP3   OH265745   6.711   1.236   0.367 -0.9734 -0.0603  0.4409
14777TIP3    H165746   6.788   1.210   0.317 -1.3767  1.0503 -0.7836
14777TIP3    H265747   6.700   1.329   0.350 -1.9187  0.0551  1.5199
14778TIP3   OH265748   3.862   1.918   0.029  0.1172 -0.2235 -0.0231
14778TIP3    H165749   3.881   1.835   0.073  1.1890  0.5596  1.0669
14778TIP3    H265750   3.942   1.970   0.039 -0.5007  0.9205 -0.7439
14779TIP3   OH265751   3.623   5.139  13.926  0.0859 -0.2056  0.3431
14779TIP3    H165752   3.628   5.049  13.892 -0.7058 -0.3425  0.5692
14779TIP3    H265753   3.651   5.132  14.017 -1.0003 -0.4168  0.6737
14780TIP3   OH265754   2.696   0.116   0.305 -0.3623  0.5799  0.0942
14780TIP3    H165755   2.771   0.170   0.330 -0.7579  1.2568 -0.1584
14780TIP3    H265756   2.626   0.178   0.286  0.0216  0.1716 -3.1948
14781TIP3   OH265757   2.175   0.532   5.581  0.0770  0.5623  0.3011
14781TIP3    H165758   2.234   0.606   5.593  1.4303 -0.2999 -0.7471
14781TIP3    H265759   2.233   0.457   5.568 -1.2514 -0.6196  0.8755
14782TIP3   OH265760   5.242   2.614   1.056 -0.0739 -0.0331  0.0287
14782TIP3    H165761   5.315   2.576   1.104  0.5836  1.0689 -0.0453
14782TIP3    H265762   5.236   2.704   1.090 -1.0405  0.0613 -0.3638
14783TIP3   OH265763   0.652   2.717   4.201  0.1840 -0.0221 -0.9429
14783TIP3    H165764   0.693   2.710   4.288  1.7307  0.3422 -1.5986
14783TIP3    H265765   0.661   2.809   4.178  1.3054 -0.4127 -2.1663
14784TIP3   OH265766   3.569   3.729  11.655  0.1729  0.2662  0.3028
14784TIP3    H165767   3.585   3.783  11.733 -0.4534  0.1939  0.4923
14784TIP3    H265768   3.633   3.759  11.591  2.1319 -1.0966  1.5124
14785TIP3   OH265769   2.022   4.372   5.775 -0.0440 -0.3852 -0.4112
14785TIP3    H165770   2.017   4.395   5.867 -0.1030 -2.1900  0.0840
14785TIP3    H265771   2.109   4.401   5.747  0.5797 -1.1889  0.6371
14786TIP3   OH265772   6.570   4.686  14.346  0.1964  0.1867 -0.3251
14786TIP3    H165773   6.661   4.695  14.371  0.1901  1.9229 -0.7528
14786TIP3    H265774   6.566   4.721  14.256 -0.7380 -0.6437 -0.6292
14787TIP3   OH265775   5.921   1.615  15.793 -0.0986  0.2162  0.5454
14787TIP3    H165776   5.987   1.643  15.729  1.9230  0.8597  2.7811
14787TIP3    H265777   5.900   1.525  15.768  2.3459 -0.3377  0.2575
14788TIP3   OH265778   1.322   0.790  16.610 -0.4278  0.5759  0.1348
14788TIP3    H165779   1.384   0.793  16.538  0.1756  0.0571  0.6257
14788TIP3    H265780   1.257   0.725  16.583 -0.1410  0.3001  0.1131
14789TIP3   OH265781   2.070   3.758  13.988 -0.3124  0.5667  0.1692
14789TIP3    H165782   2.026   3.704  13.923 -0.9310  0.5469  0.5946
14789TIP3    H265783   2.142   3.799  13.941  0.0172 -0.4364 -0.2167
14790TIP3   OH265784   3.241   3.301  13.166  0.6091 -0.1357 -0.1151
14790TIP3    H165785   3.193   3.335  13.241 -0.7616  1.1956 -1.5228
14790TIP3    H265786   3.184   3.318  13.091  1.6496 -1.9875 -1.4058
14791TIP3   OH265787   1.367   3.071   0.868 -0.0687  0.1603 -0.4064
14791TIP3    H165788   1.273   3.080   0.853 -0.1523  0.5486  0.3277
14791TIP3    H265789   1.375   2.996   0.927 -0.0978  1.4933  1.3488
14792TIP3   OH265790   5.386   1.709   1.576 -0.4831 -0.7424 -0.0219
14792TIP3    H165791   5.380   1.672   1.664 -2.8951 -0.9238 -0.2094
14792TIP3    H265792   5.395   1.633   1.519  1.5531 -0.6055  0.0349
14793TIP3   OH265793   1.695   2.273   1.433 -0.0372 -0.9274  0.4361
14793TIP3    H165794   1.618   2.323   1.462  0.8905  1.0511 -0.3363
14793TIP3    H265795   1.659   2.189   1.405 -2.2055  0.4908 -1.4534
14794TIP3   OH265796   1.804   4.640   4.655 -0.0983 -0.4693  0.1043
14794TIP3    H165797   1.898   4.651   4.662 -0.0378 -0.7409 -0.3100
14794TIP3    H265798   1.768   4.723   4.688  0.3212  0.3907 -1.5179
14795TIP3   OH265799   2.139   0.840   6.655 -0.1593 -0.5860 -0.2846
14795TIP3    H165800   2.092   0.892   6.719 -0.8738 -1.6842  0.1181
14795TIP3    H265801   2.123   0.884   6.571 -1.2836 -0.5217 -0.0427
14796TIP3   OH265802   1.593   6.138  13.539  0.0812 -0.4575 -0.0923
14796TIP3    H165803   1.682   6.172  13.534 -0.2585  0.7284  1.1592
14796TIP3    H265804   1.539   6.207  13.500 -0.5596  0.2798  1.9529
14797TIP3   OH265805   6.197   2.598  16.451  0.6431 -0.6324 -0.2083
14797TIP3    H165806   6.272   2.591  16.392 -0.2600 -0.3346 -1.4299
14797TIP3    H265807   6.236   2.617  16.537  2.0316 -1.8574 -0.5185
14798TIP3   OH265808   3.131   6.197  13.611  0.2018  0.2911  0.1317
14798TIP3    H165809   3.048   6.227  13.574  0.2487 -0.3507 -0.5163
14798TIP3    H265810   3.194   6.264  13.586 -0.1144  0.7773  0.6218
14799TIP3   OH265811   2.122   0.713  12.016  0.1747 -0.7354  0.7558
14799TIP3    H165812   2.078   0.691  12.098 -0.4885 -1.3977  0.2486
14799TIP3    H265813   2.098   0.641  11.957  2.0217 -1.1620  0.4635
14800TIP3   OH265814   0.425   6.688  12.437  0.2012  0.5995 -0.5124
14800TIP3    H165815   0.448   6.719  12.350 -0.3340  1.7212 -0.2720
14800TIP3    H265816   0.360   6.620  12.423 -2.3598  2.9426 -0.9509
14801TIP3   OH265817   0.174   5.285  11.327 -0.3816 -0.5445 -0.0729
14801TIP3    H165818   0.195   5.370  11.366  0.4841 -0.9290  0.3264
14801TIP3    H265819   0.173   5.301  11.232 -0.6791 -0.0042  0.0166
14802TIP3   OH265820   6.745   1.286   2.265 -0.7457  0.1736 -0.0594
14802TIP3    H165821   6.788   1.358   2.218 -1.1413  1.3705  1.3523
14802TIP3    H265822   6.740   1.215   2.200  1.4247  0.7087 -0.8881
14803TIP3   OH265823   2.648   2.413   0.329 -0.4044 -0.2569  0.0780
14803TIP3    H165824   2.625   2.485   0.270  0.7218 -1.0415 -1.4037
14803TIP3    H265825   2.574   2.352   0.323 -0.0177 -0.6340 -1.0664
14804TIP3   OH265826   1.221   0.898  13.050 -0.3634 -0.2706 -0.2151
14804TIP3    H165827   1.242   0.808  13.024  1.5111  1.2644 -5.3230
14804TIP3    H265828   1.295   0.924  13.105 -0.0609 -1.3440 -0.0750
14805TIP3   OH265829   3.076   1.474  15.183  0.0740  0.3545  0.1537
14805TIP3    H165830   3.140   1.423  15.133  1.0988  0.9094  0.8662
14805TIP3    H265831   3.128   1.524  15.245 -1.1579 -0.1587  1.6618
14806TIP3   OH265832   1.075   6.372   2.515  0.3581 -0.7040  0.2602
14806TIP3    H165833   1.165   6.344   2.529  0.3635 -1.2712 -0.8689
14806TIP3    H265834   1.082   6.454   2.467  0.2853  0.0892  1.5453
14807TIP3   OH265835   1.682   2.771   1.319  0.6199  0.1883  0.1329
14807TIP3    H165836   1.649   2.707   1.382  0.1626  0.2813 -0.0145
14807TIP3    H265837   1.769   2.795   1.353  0.2663  0.4396  0.8682
14808TIP3   OH265838   3.500   5.387  10.462 -0.2106 -0.0265  0.6344
14808TIP3    H165839   3.411   5.406  10.433  0.7233  1.0294 -1.8700
14808TIP3    H265840   3.542   5.473  10.470  0.9974 -0.5468  0.2039
14809TIP3   OH265841   3.949   0.876   1.310  0.0407 -0.1026 -0.2474
14809TIP3    H165842   3.906   0.819   1.373  0.0577  0.4179  0.2485
14809TIP3    H265843   3.878   0.914   1.259 -0.0037 -0.1790 -0.2426
14810TIP3   OH265844   5.872   1.530   5.447 -0.4361 -0.0656  0.2798
14810TIP3    H165845   5.889   1.483   5.365  1.2800 -0.5188  0.8611
14810TIP3    H265846   5.781   1.507   5.469  0.0610 -2.4689  0.0834
14811TIP3   OH265847   2.875   1.140  12.955 -0.0064 -0.1511  0.0709
14811TIP3    H165848   2.788   1.123  12.992 -1.2933 -1.9297 -3.3269
14811TIP3    H265849   2.865   1.223  12.908  0.2084 -0.2677 -0.1794
14812TIP3   OH265850   4.944   4.836   4.308  1.0104  0.6267  0.0307
14812TIP3    H165851   5.006   4.886   4.253  2.4003 -0.4469  0.5827
14812TIP3    H265852   4.978   4.747   4.308 -0.4130  0.0574  0.5759
14813TIP3   OH265853   4.718   3.670  16.939 -0.1422  0.0683 -0.4484
14813TIP3    H165854   4.636   3.620  16.940 -0.0592 -0.2727 -3.0221
14813TIP3    H265855   4.692   3.757  16.909  0.4133 -0.0774 -1.4021
14814TIP3   OH265856   2.046   4.766  15.483  0.6606  0.4273 -0.5614
14814TIP3    H165857   2.015   4.737  15.568 -0.0568  0.3940 -0.8265
14814TIP3    H265858   2.126   4.815  15.502  0.8426 -0.0940  0.0679
14815TIP3   OH265859   6.543   3.232   3.997 -0.4831 -0.1303  0.2018
14815TIP3    H165860   6.526   3.139   4.013 -0.5059  0.0716  1.4176
14815TIP3    H265861   6.576   3.265   4.080  1.4413  0.5385 -0.7684
14816TIP3   OH265862   1.345   1.608  14.887 -0.5760  0.2603  0.3732
14816TIP3    H165863   1.430   1.587  14.925  0.2832  2.1650 -0.3889
14816TIP3    H265864   1.285   1.610  14.962  0.3651  0.4569  1.1380
14817TIP3   OH265865   5.399   6.586  11.432 -0.2807  0.5322 -0.6490
14817TIP3    H165866   5.307   6.607  11.444 -0.4390  0.4020 -1.5135
14817TIP3    H265867   5.428   6.645  11.363 -0.2716 -0.8052 -1.8539
14818TIP3   OH265868   1.352   6.389   5.205  0.2942 -0.0870 -0.2882
14818TIP3    H165869   1.382   6.319   5.263  2.8674  0.4286 -0.8537
14818TIP3    H265870   1.427   6.447   5.197 -0.6176  0.9080 -2.5766
14819TIP3   OH265871   0.919   2.573  11.564 -0.0716  0.4098 -0.0210
14819TIP3    H165872   0.917   2.591  11.470 -0.2122  0.9157  0.0756
14819TIP3    H265873   0.870   2.491  11.574 -0.9238  0.8740 -0.2753
14820TIP3   OH265874   6.158   0.970  13.608 -0.4686  0.0802  0.0121
14820TIP3    H165875   6.249   0.963  13.579 -0.2495 -0.1935  0.7436
14820TIP3    H265876   6.114   0.897  13.566  0.2169 -1.3678  1.7005
14821TIP3   OH265877   5.063   0.552   1.578 -0.0450  0.6212  0.6870
14821TIP3    H165878   5.015   0.628   1.612 -0.1496  1.0907 -0.4711
14821TIP3    H265879   5.010   0.521   1.505 -0.8441 -1.5637  2.0722
14822TIP3   OH265880   3.915   1.284  15.132 -0.0792 -0.1897  0.4239
14822TIP3    H165881   3.949   1.269  15.220  0.3423  0.1461  0.3208
14822TIP3    H265882   3.951   1.213  15.079 -0.5392 -0.5386  0.5719
14823TIP3   OH265883   3.182   3.294  11.385 -0.7361  0.1712  0.3525
14823TIP3    H165884   3.181   3.291  11.481 -2.2470  2.3987  0.4747
14823TIP3    H265885   3.098   3.256  11.359 -0.7579  0.4710 -0.0246
14824TIP3   OH265886   3.504   6.750   3.925  0.5049  0.0286 -0.1825
14824TIP3    H165887   3.541   6.706   3.849 -1.2665 -0.9378 -0.5185
14824TIP3    H265888   3.480   6.679   3.984 -0.7136  0.6334  0.0622
14825TIP3   OH265889   2.689   5.876  14.841  0.1897 -0.0524 -0.1158
14825TIP3    H165890   2.727   5.961  14.817 -0.5065  0.3248  0.0750
14825TIP3    H265891   2.658   5.888  14.931 -3.1166  0.6913 -1.2096
14826TIP3   OH265892   1.403   3.578  16.406 -0.1643 -0.6140  0.3147
14826TIP3    H165893   1.444   3.664  16.396 -2.7301  0.6323 -0.3205
14826TIP3    H265894   1.390   3.547  16.316  0.0681 -1.3454  0.5205
14827TIP3   OH265895   5.764   4.160   3.157  0.2145  0.9516 -0.4015
14827TIP3    H165896   5.701   4.219   3.115 -1.4554  0.7239  1.5941
14827TIP3    H265897   5.712   4.114   3.223  2.8150  2.1232  2.7422
14828TIP3   OH265898   0.038   0.880  12.761 -0.4647  0.0767  0.4045
14828TIP3    H165899   0.026   0.790  12.733 -0.5153  0.6201 -1.4472
14828TIP3    H265900  -0.048   0.906  12.794  0.3384 -1.5577  4.4119
14829TIP3   OH265901   6.730   0.033  16.852 -0.9218  0.5317 -0.1242
14829TIP3    H165902   6.690  -0.042  16.807 -2.5030  1.2434  0.0096
14829TIP3    H265903   6.763  -0.004  16.934 -0.4424 -0.2679 -0.6645
14830TIP3   OH265904   4.097   1.899  16.588  0.0574  0.3743  0.2455
14830TIP3    H165905   4.170   1.961  16.596  1.2531 -0.8538 -0.7031
14830TIP3    H265906   4.138   1.817  16.562 -1.6999 -0.3326 -0.4318
14831TIP3   OH265907   3.010   4.774   4.771 -0.4175 -0.5270  0.4035
14831TIP3    H165908   3.054   4.855   4.796 -0.0144 -0.6308  0.0222
14831TIP3    H265909   3.070   4.730   4.712 -1.4393 -0.1995 -0.9221
14832TIP3   OH265910   4.180   2.993   3.933  0.6316  0.3028  0.9651
14832TIP3    H165911   4.145   2.910   3.965 -0.9700  0.0352 -1.2527
14832TIP3    H265912   4.271   2.993   3.961  0.9355 -2.6308  0.3006
14833TIP3   OH265913   0.488   2.920   1.304  0.6400 -0.4962  0.1563
14833TIP3    H165914   0.393   2.923   1.298  0.6870 -0.6506 -0.7169
14833TIP3    H265915   0.509   2.986   1.371 -0.1283 -1.2025  1.1330
14834TIP3   OH265916   0.579   4.390  13.443 -0.1350  0.5127  0.0089
14834TIP3    H165917   0.501   4.352  13.402  0.9772 -1.2063 -0.6387
14834TIP3    H265918   0.571   4.365  13.535 -0.1749 -0.0078 -0.1292
14835TIP3   OH265919   6.634   0.386  12.982 -0.2782 -0.3056  0.3991
14835TIP3    H165920   6.649   0.309  12.927 -0.5514 -0.3656  0.4033
14835TIP3    H265921   6.698   0.450  12.951 -0.2609 -0.4256  0.1790
14836TIP3   OH265922   0.397   0.128   3.308  0.2833  0.4582 -0.4004
14836TIP3    H165923   0.471   0.093   3.359  0.6043 -1.0603 -1.8129
14836TIP3    H265924   0.387   0.066   3.236 -1.4308  1.4649 -1.0760
14837TIP3   OH265925   1.250   6.534  17.140  0.1403  0.0579  0.5109
14837TIP3    H165926   1.258   6.440  17.124 -1.3890 -0.2331  1.1999
14837TIP3    H265927   1.257   6.543  17.235 -0.5311  0.5203  0.5302
14838TIP3   OH265928   4.492   1.379  15.710 -0.0578 -0.6274 -0.3418
14838TIP3    H165929   4.523   1.393  15.621  0.5261 -1.1595 -0.2358
14838TIP3    H265930   4.552   1.313  15.746  0.5706  0.5739  0.8965
14839TIP3   OH265931   3.173   0.518  14.024  0.8534  0.2692  0.1114
14839TIP3    H165932   3.167   0.537  14.118  1.5501 -0.5370  0.3273
14839TIP3    H265933   3.262   0.486  14.012  0.5934 -0.1576 -0.7313
14840TIP3   OH265934   4.651   3.519  11.235 -0.2365 -0.0686  0.3961
14840TIP3    H165935   4.718   3.454  11.212 -1.5294 -1.5284  0.5737
14840TIP3    H265936   4.636   3.568  11.154  0.0063 -0.7242 -0.0545
14841TIP3   OH265937   2.162   4.696   2.553 -0.0789  0.6473 -0.2123
14841TIP3    H165938   2.165   4.639   2.630  0.5517 -0.0405 -0.7154
14841TIP3    H265939   2.088   4.664   2.502  0.8310 -0.3683 -0.9453
14842TIP3   OH265940   0.162   1.105  11.277  0.0395 -0.2547 -0.0852
14842TIP3    H165941   0.237   1.075  11.328  0.4866  0.2245 -0.4496
14842TIP3    H265942   0.200   1.152  11.202 -0.5914  1.8886  0.8443
14843TIP3   OH265943   0.408   0.750   4.833 -0.0334 -0.1009  0.6362
14843TIP3    H165944   0.465   0.716   4.764 -1.3220  0.1540 -0.5897
14843TIP3    H265945   0.326   0.703   4.822 -0.1178 -0.4044  2.3270
14844TIP3   OH265946   0.577   0.778  16.486 -0.2982 -0.3544 -0.1750
14844TIP3    H165947   0.634   0.757  16.413 -0.6474  1.3187 -0.9939
14844TIP3    H265948   0.632   0.828  16.546  0.3484 -2.8118  1.4207
14845TIP3   OH265949   0.313   4.169   2.760 -0.1270  0.6840  0.0428
14845TIP3    H165950   0.286   4.079   2.778  1.4492  0.3977  1.2411
14845TIP3    H265951   0.283   4.218   2.837 -0.4757  1.0733 -0.3396
14846TIP3   OH265952   2.410   4.385   0.914 -0.6943  0.2562 -0.0660
14846TIP3    H165953   2.379   4.476   0.906  0.4289  0.5568 -1.3142
14846TIP3    H265954   2.334   4.332   0.892 -0.8135  0.9498 -1.4693
14847TIP3   OH265955   4.458   6.524  13.272  0.0106 -0.5892 -0.2063
14847TIP3    H165956   4.403   6.550  13.345 -0.5979 -0.5012 -0.6813
14847TIP3    H265957   4.477   6.432  13.288 -1.1088 -0.9026 -0.5215
14848TIP3   OH265958   2.431   3.730   1.449 -0.0886  0.3737  0.9435
14848TIP3    H165959   2.475   3.674   1.513  1.2521  0.1466 -0.1378
14848TIP3    H265960   2.360   3.677   1.415  0.7928 -0.4869  0.3807
14849TIP3   OH265961   0.549   6.776   5.572 -0.2042  0.2903  0.6104
14849TIP3    H165962   0.544   6.850   5.632  0.8175  0.1188  0.9292
14849TIP3    H265963   0.553   6.699   5.629 -2.9137 -0.1885  0.2898
14850TIP3   OH265964   6.135   0.585   5.079 -0.4040 -0.4015 -0.1842
14850TIP3    H165965   6.187   0.611   5.155  0.3348  2.9459 -1.6409
14850TIP3    H265966   6.062   0.647   5.077 -0.3615 -0.3391 -2.1800
14851TIP3   OH265967   0.005   6.143  12.978  0.3925  0.1497 -0.1340
14851TIP3    H165968  -0.015   6.134  12.885 -0.8116 -1.6320  0.2544
14851TIP3    H265969   0.091   6.102  12.989 -0.7459 -2.3793 -0.0332
14852TIP3   OH265970   3.682   0.798   5.568 -0.7333 -0.0820 -0.1952
14852TIP3    H165971   3.709   0.886   5.540  0.5936 -0.2271  0.5420
14852TIP3    H265972   3.600   0.812   5.615  1.3187  1.4033  3.3464
14853TIP3   OH265973   6.231   4.292   1.756  0.3227  0.0756  0.2376
14853TIP3    H165974   6.155   4.250   1.796 -0.5640  1.0580 -0.3380
14853TIP3    H265975   6.194   4.344   1.684  1.7247 -0.6495 -1.0618
14854TIP3   OH265976   4.721   6.354  13.081 -0.0111  0.7868 -0.7116
14854TIP3    H165977   4.802   6.405  13.084  0.0257  0.7742 -1.4724
14854TIP3    H265978   4.673   6.387  13.005 -0.7790  0.8707 -0.2090
14855TIP3   OH265979   6.050   1.336   0.635  0.0745 -0.2924 -0.3851
14855TIP3    H165980   6.100   1.417   0.621  1.3915 -1.3096 -1.8884
14855TIP3    H265981   6.109   1.280   0.685 -0.7304 -0.4656  0.4058
14856TIP3   OH265982   6.480   2.686   5.057 -0.1232  0.0201  0.2052
14856TIP3    H165983   6.540   2.638   5.114 -0.9829 -0.3346  0.8252
14856TIP3    H265984   6.520   2.680   4.970 -0.4526 -2.2532  0.1663
14857TIP3   OH265985   3.314   3.366   1.826  0.3212  0.2707 -0.3468
14857TIP3    H165986   3.311   3.357   1.731  0.6388  0.4995 -0.3799
14857TIP3    H265987   3.285   3.281   1.859  0.3515  0.1417 -0.6473
14858TIP3   OH265988   4.052   4.566  13.607 -0.1279  0.4535  0.4914
14858TIP3    H165989   4.148   4.567  13.611 -0.0986 -0.8423  0.6539
14858TIP3    H265990   4.028   4.482  13.646 -1.3680  1.0555  1.0369
14859TIP3   OH265991   6.506   6.780  17.164  0.1987  0.0601  0.2350
14859TIP3    H165992   6.475   6.760  17.253  0.1346  0.0344  0.2071
14859TIP3    H265993   6.595   6.745  17.161 -0.0161 -0.4722  0.0920
14860TIP3   OH265994   6.764   5.856   5.447  0.4798  0.0555 -0.5412
14860TIP3    H165995   6.846   5.904   5.442 -0.2479  1.5070  0.8854
14860TIP3    H265996   6.702   5.916   5.488 -0.9358 -1.5062 -0.2569
14861TIP3   OH265997   1.759   5.941  12.134 -0.0234  0.5550 -0.1549
14861TIP3    H165998   1.743   5.950  12.040 -1.4209 -1.5634 -0.1762
14861TIP3    H265999   1.838   5.887  12.140 -0.6231 -0.3407 -0.1474
14862TIP3   OH266000   3.202   1.811   5.233  0.2538 -0.6949 -0.7293
14862TIP3    H166001   3.198   1.788   5.140  0.5323 -1.4794 -0.5566
14862TIP3    H266002   3.275   1.759   5.267 -2.2325 -3.5227  0.7690
14863TIP3   OH266003   2.354   1.553  12.100 -0.2197  0.0162 -0.0587
14863TIP3    H166004   2.293   1.593  12.038  0.6698 -2.3051 -2.5980
14863TIP3    H266005   2.297   1.512  12.165 -1.3211 -0.3214 -1.1934
14864TIP3   OH266006   4.529   3.833   4.747 -0.2806  0.2195  0.3468
14864TIP3    H166007   4.551   3.905   4.805  0.5558  0.4043 -0.1873
14864TIP3    H266008   4.548   3.754   4.798  1.2636  0.3756  0.0448
14865TIP3   OH266009   0.433   6.378   0.118 -0.0466 -0.0047  0.0249
14865TIP3    H166010   0.424   6.323   0.195  0.4694 -0.5460 -0.2886
14865TIP3    H266011   0.472   6.320   0.052 -0.7319  0.3669 -0.7286
14866TIP3   OH266012   5.721   4.591   0.766  0.5339  0.1324  0.5286
14866TIP3    H166013   5.705   4.503   0.732  1.0740  0.8564 -1.7777
14866TIP3    H266014   5.766   4.576   0.849  0.3857 -1.7687  0.3225
14867TIP3   OH266015   5.112   5.093   1.378  0.5939  0.3215  0.4818
14867TIP3    H166016   5.068   5.010   1.361 -0.2629  0.4474  1.9612
14867TIP3    H266017   5.177   5.100   1.308  0.3442 -1.3473  0.0392
14868TIP3   OH266018   1.020   3.059  14.594  0.1697 -0.0562  0.1608
14868TIP3    H166019   0.973   3.079  14.513  0.7871 -0.3113 -0.2671
14868TIP3    H266020   1.008   3.136  14.649  1.4054  0.9672 -0.9456
14869TIP3   OH266021   3.526   4.725   5.514  1.0171  0.3150 -0.1251
14869TIP3    H166022   3.581   4.795   5.548  0.5469  0.3879  0.5142
14869TIP3    H266023   3.529   4.658   5.582 -0.6582  0.8317  0.5051
14870TIP3   OH266024   6.156   1.436  14.964  0.6663  0.6631 -0.2672
14870TIP3    H166025   6.071   1.473  14.989  0.0646 -0.1113 -1.0952
14870TIP3    H266026   6.150   1.343  14.986  1.6456  0.7624  0.5043
14871TIP3   OH266027   1.485   0.470  15.253 -0.1998 -0.2495 -0.3664
14871TIP3    H166028   1.562   0.417  15.231  0.6141  0.0383  1.5545
14871TIP3    H266029   1.416   0.406  15.272  0.7294 -0.6973  1.7858
14872TIP3   OH266030   2.128   2.813  15.140 -0.9170 -0.5558 -0.0053
14872TIP3    H166031   2.043   2.830  15.182 -0.4534  0.1513  0.6603
14872TIP3    H266032   2.154   2.727  15.172 -0.1225  0.3638  1.9594
14873TIP3   OH266033   1.204   6.394  13.277 -0.1939  0.1400  0.1600
14873TIP3    H166034   1.241   6.478  13.249 -3.2733  1.2255 -1.0854
14873TIP3    H266035   1.174   6.353  13.197  0.7868 -2.0207  0.8123
14874TIP3   OH266036   2.768   5.596   4.086 -0.3429  0.0373  0.4127
14874TIP3    H166037   2.853   5.557   4.067  0.5043  1.0853  1.9310
14874TIP3    H266038   2.753   5.657   4.013  0.5114  0.3406  0.4805
14875TIP3   OH266039   6.067   6.002  16.700  0.6483  0.1710  0.6300
14875TIP3    H166040   6.143   5.948  16.676  0.3639  0.1115 -0.1855
14875TIP3    H266041   6.048   5.978  16.791 -0.0541 -1.8496  0.0293
14876TIP3   OH266042   3.119   2.512  12.738 -0.2749 -0.5211  0.1074
14876TIP3    H166043   3.072   2.433  12.764 -0.2612 -0.1617  1.2914
14876TIP3    H266044   3.060   2.584  12.761 -0.0724 -0.1568 -0.4855
14877TIP3   OH266045   5.762   3.871   1.105  0.4363  0.3790 -0.2013
14877TIP3    H166046   5.686   3.825   1.068 -0.0891  0.4139  0.7934
14877TIP3    H266047   5.826   3.801   1.122  0.5403  0.3187 -0.8144
14878TIP3   OH266048   2.692   0.117  14.424  0.0885 -0.0454 -0.0620
14878TIP3    H166049   2.696   0.105  14.519  0.9351  1.6686  0.1701
14878TIP3    H266050   2.784   0.116  14.397 -0.1947 -1.8841 -1.1033
14879TIP3   OH266051   2.395   6.542  11.870  0.1597  0.6605 -0.0420
14879TIP3    H166052   2.404   6.630  11.905  1.0314 -0.0197  1.5506
14879TIP3    H266053   2.387   6.486  11.947 -1.8802 -0.5292 -1.0390
14880TIP3   OH266054   4.834   0.999  13.195  0.3894  0.2821 -0.7347
14880TIP3    H166055   4.885   1.063  13.145  0.1012 -0.7540 -2.4481
14880TIP3    H266056   4.890   0.921  13.198 -0.3635 -0.2873 -1.1234
14881TIP3   OH266057   1.537   0.390   1.936  0.1864  0.5959 -0.3555
14881TIP3    H166058   1.445   0.371   1.918  0.3170 -1.5154  0.9130
14881TIP3    H266059   1.555   0.469   1.885 -2.9657  2.5658  1.2955
14882TIP3   OH266060   2.254   5.330  16.026  0.3033 -0.2692  0.0465
14882TIP3    H166061   2.295   5.318  16.111 -1.1523 -2.9295  0.5036
14882TIP3    H266062   2.325   5.319  15.962  0.7807 -2.3039  0.8586
14883TIP3   OH266063   5.061   1.091  15.134  0.7378 -0.1390 -0.6330
14883TIP3    H166064   5.066   1.183  15.162  1.3333 -0.7049  1.2503
14883TIP3    H266065   4.969   1.067  15.148  0.3943  0.3633 -1.8854
14884TIP3   OH266066   2.827   2.306  13.843 -0.5112 -0.2220  0.0877
14884TIP3    H166067   2.774   2.374  13.884 -0.6898  0.2429 -0.8699
14884TIP3    H266068   2.791   2.223  13.876 -0.6932  0.1285  0.7816
14885TIP3   OH266069   4.129   0.459  16.977  0.6634 -0.0958 -0.1619
14885TIP3    H166070   4.088   0.373  16.976  0.3120 -0.0035  1.7738
14885TIP3    H266071   4.063   0.518  16.940  0.0147 -0.3461  0.5575
14886TIP3   OH266072   6.740   1.210   0.646 -0.1736 -0.2534  0.2239
14886TIP3    H166073   6.740   1.243   0.556  1.2738 -0.5059  0.1107
14886TIP3    H266074   6.830   1.181   0.661 -0.9801 -2.5976  0.8891
14887TIP3   OH266075   0.961   6.756   0.129 -0.2553 -0.3284 -0.1083
14887TIP3    H166076   0.942   6.832   0.184 -0.0814  0.8102 -1.5637
14887TIP3    H266077   1.003   6.793   0.051 -2.8136 -1.5854 -2.2219
14888TIP3   OH266078   4.608   3.025  13.770  0.0331 -0.1940 -0.0394
14888TIP3    H166079   4.633   2.946  13.723  0.2317  1.1902 -2.4360
14888TIP3    H266080   4.513   3.016  13.784  0.5152 -2.3068  2.8446
14889TIP3   OH266081   5.326   3.983   1.175  0.5546  0.2962  0.1039
14889TIP3    H166082   5.394   3.917   1.187  1.6498  1.4439  0.4155
14889TIP3    H266083   5.248   3.933   1.149  1.4101 -1.0777  0.0903
14890TIP3   OH266084   4.213   2.912   4.937  0.4928  0.3592 -0.1061
14890TIP3    H166085   4.144   2.973   4.912  1.6651  1.7060 -0.1571
14890TIP3    H266086   4.200   2.836   4.880 -0.6557  0.7704 -0.4107
14891TIP3   OH266087   0.987   4.051  11.839 -0.0726 -0.3047  0.0891
14891TIP3    H166088   0.922   3.982  11.854 -1.6088  0.8144 -1.1118
14891TIP3    H266089   0.991   4.059  11.743  0.3100  1.0750  0.2073
14892TIP3   OH266090   2.217   5.860  13.481 -0.2352 -0.2288 -0.1245
14892TIP3    H166091   2.256   5.835  13.565 -1.5685  0.1913  0.6473
14892TIP3    H266092   2.287   5.909  13.436  0.0292  0.8372  1.3756
14893TIP3   OH266093   0.369   5.968  17.148 -0.1088  0.2386  0.6585
14893TIP3    H166094   0.327   5.946  17.064  0.2639 -0.8711  0.7473
14893TIP3    H266095   0.435   5.900  17.160 -1.0637 -0.4237  2.5164
14894TIP3   OH266096   5.268   1.436  16.269  0.1329  0.5521  0.2502
14894TIP3    H166097   5.340   1.375  16.256  1.3433  2.3644 -2.9609
14894TIP3    H266098   5.189   1.382  16.268  1.2424 -1.1198 -0.5093
14895TIP3   OH266099   4.258   4.864  15.365 -0.1376  0.2683  0.1086
14895TIP3    H166100   4.348   4.840  15.389 -0.2318 -0.5503 -0.3161
14895TIP3    H266101   4.212   4.869  15.448 -0.0898 -1.0033  0.2391
14896TIP3   OH266102   5.744   3.422  11.107  0.2155  0.1012  0.5967
14896TIP3    H166103   5.657   3.452  11.080  0.3384 -0.3954 -0.3799
14896TIP3    H266104   5.735   3.327  11.114  1.3309 -0.2939 -2.1511
14897TIP3   OH266105   1.612   3.348  16.572 -0.5545 -0.3099  0.7624
14897TIP3    H166106   1.546   3.318  16.510 -1.0381  0.0365  1.0997
14897TIP3    H266107   1.650   3.426  16.531  1.1293 -1.6423 -0.3966
14898TIP3   OH266108   5.104   6.201  15.441 -0.2667  0.2651  0.0297
14898TIP3    H166109   5.031   6.198  15.380 -1.2513 -0.4681  1.1981
14898TIP3    H266110   5.086   6.131  15.504  1.1466  0.4411  0.6784
14899TIP3   OH266111   5.459   3.761   2.556  0.1223 -0.1490 -0.4419
14899TIP3    H166112   5.535   3.704   2.566 -0.0221 -0.4118 -0.8085
14899TIP3    H266113   5.384   3.701   2.560 -0.0777  0.1254  0.0788
14900TIP3   OH266114   3.735   0.314  13.305 -0.1686  0.2357  0.5454
14900TIP3    H166115   3.773   0.251  13.245  0.3958  0.9828  0.1006
14900TIP3    H266116   3.804   0.333  13.368 -0.4968  0.0512  0.9729
14901TIP3   OH266117   6.093   4.922  15.770  0.0681 -0.0102 -0.7559
14901TIP3    H166118   6.091   4.836  15.811 -0.0050  0.1605 -0.3914
14901TIP3    H266119   6.141   4.910  15.689  3.2842  0.3161  0.9377
14902TIP3   OH266120   5.940   4.846   3.642 -0.6530  0.3025 -0.1794
14902TIP3    H166121   5.888   4.766   3.652 -1.1282  0.4190 -1.4967
14902TIP3    H266122   5.961   4.850   3.548 -1.2785  2.0839 -0.2880
14903TIP3   OH266123   1.573   2.799  13.622  0.3409  0.2375 -0.6523
14903TIP3    H166124   1.613   2.758  13.545 -1.3204 -0.1822 -1.3447
14903TIP3    H266125   1.481   2.809  13.598  0.1355  1.7408  0.6253
14904TIP3   OH266126   1.879   4.152  15.904 -0.1413 -1.2508 -0.0198
14904TIP3    H166127   1.934   4.177  15.979 -0.8806 -2.3853  0.9350
14904TIP3    H266128   1.839   4.234  15.876 -0.2182 -0.8615  1.1434
14905TIP3   OH266129   2.166   4.775  12.862  0.2933 -0.2845  0.5894
14905TIP3    H166130   2.081   4.818  12.866  1.7492  2.8237  1.2101
14905TIP3    H266131   2.196   4.789  12.772  0.2418 -1.2231  0.4170
14906TIP3   OH266132   6.751   6.439  13.595  0.1363  0.6527  0.3784
14906TIP3    H166133   6.825   6.391  13.632 -0.2257  0.6419  1.1062
14906TIP3    H266134   6.764   6.529  13.625 -0.0046  0.7037  0.2852
14907TIP3   OH266135   3.861   1.679   0.149  0.5002 -0.3064  0.3672
14907TIP3    H166136   3.833   1.728   0.227 -0.5118 -0.0947 -0.1156
14907TIP3    H266137   3.791   1.616   0.134  1.1484 -0.9886  0.1749
14908TIP3   OH266138   3.507   2.610   3.339 -0.1312  0.1377  0.6822
14908TIP3    H166139   3.427   2.574   3.377 -0.8475  0.7483 -0.1972
14908TIP3    H266140   3.492   2.704   3.338 -1.5547  0.0806 -3.9250
14909TIP3   OH266141   5.748   5.190   5.028 -0.1898 -0.4362 -0.5021
14909TIP3    H166142   5.699   5.271   5.013  1.6203  0.5639 -1.3881
14909TIP3    H266143   5.720   5.160   5.114 -0.5647  1.4088  0.0599
14910TIP3   OH266144   3.982   5.554  14.989  0.4838  0.0471 -0.3741
14910TIP3    H166145   3.981   5.641  15.029 -1.4253 -0.4472  0.8232
14910TIP3    H266146   3.952   5.568  14.899  0.8281  0.6838 -0.3947
14911TIP3   OH266147   6.298   6.269  15.424 -0.0344  0.3651 -0.6946
14911TIP3    H166148   6.338   6.276  15.337  1.4227  2.5200  0.0499
14911TIP3    H266149   6.329   6.186  15.459 -0.2855 -0.3240 -2.0253
14912TIP3   OH266150   1.919   3.184  16.506  0.1414 -0.2147 -0.0808
14912TIP3    H166151   1.834   3.211  16.541 -1.2704 -2.2207 -1.7275
14912TIP3    H266152   1.973   3.170  16.584 -1.3942 -0.0177  1.0780
14913TIP3   OH266153   1.798   6.263   3.677  0.4025 -0.5685  0.1894
14913TIP3    H166154   1.855   6.300   3.610  0.6379  1.3930  1.3749
14913TIP3    H266155   1.857   6.215   3.735  0.6650  0.2883  0.6452
14914TIP3   OH266156   3.917   1.409   1.863  0.0542 -0.2202 -0.0812
14914TIP3    H166157   3.930   1.502   1.884 -1.7452  0.4673 -1.6811
14914TIP3    H266158   3.859   1.377   1.932  2.1146 -0.7089  1.5168
14915TIP3   OH266159   3.612   4.558   1.563 -0.1940  0.0894 -0.7561
14915TIP3    H166160   3.532   4.518   1.528 -0.7394  1.6624 -1.3691
14915TIP3    H266161   3.603   4.550   1.658 -0.4544 -0.8863 -0.8496
14916TIP3   OH266162   4.696   3.006   4.711  0.2533  0.0424 -0.1813
14916TIP3    H166163   4.745   2.940   4.761 -0.3506 -1.9050 -1.9862
14916TIP3    H266164   4.762   3.049   4.657  0.6442  0.8980  0.9581
14917TIP3   OH266165   1.604   0.078   0.479 -0.1116  0.1704  0.3192
14917TIP3    H166166   1.618   0.113   0.568  1.8907 -0.0036  0.1294
14917TIP3    H266167   1.540   0.008   0.491 -1.9150  1.8780  1.1759
14918TIP3   OH266168   0.600   4.261   3.264 -0.5988  0.0361 -0.6592
14918TIP3    H166169   0.635   4.204   3.332  0.1173  0.5622 -0.5793
14918TIP3    H266170   0.540   4.205   3.215 -0.2172 -0.6764 -0.3286
14919TIP3   OH266171   3.123   5.020   4.389  0.3594 -0.1924 -0.0390
14919TIP3    H166172   3.218   5.012   4.379  0.4463  2.0072 -1.6283
14919TIP3    H266173   3.093   4.930   4.402  2.4205 -1.2704 -1.9453
14920TIP3   OH266174   5.042   5.881  11.118 -0.2128 -0.2618 -0.1727
14920TIP3    H166175   4.982   5.856  11.048 -0.9826 -0.7449  0.6347
14920TIP3    H266176   5.010   5.834  11.195  0.0665  0.9431  0.7170
14921TIP3   OH266177   4.753   5.457  11.358  0.2150  0.3512 -0.5370
14921TIP3    H166178   4.723   5.366  11.368  1.7915  0.0266  2.2840
14921TIP3    H266179   4.681   5.509  11.394 -0.3243  0.2032 -1.3593
14922TIP3   OH266180   1.078   4.444  15.705  0.6449  0.4575 -0.1313
14922TIP3    H166181   1.119   4.425  15.621  2.1733 -0.5867  0.7962
14922TIP3    H266182   1.078   4.540  15.711  0.8052  0.5319 -1.1695
14923TIP3   OH266183   2.855   6.296  16.874  0.2275 -0.8840 -0.0057
14923TIP3    H166184   2.921   6.327  16.937 -0.4930 -1.6541  1.1684
14923TIP3    H266185   2.885   6.330  16.790  1.5067 -0.2544  0.6668
14924TIP3   OH266186   3.174   3.020  16.862 -0.0357 -0.0971 -0.1462
14924TIP3    H166187   3.250   3.073  16.841 -0.3996  0.1581 -0.8465
14924TIP3    H266188   3.207   2.954  16.924  0.7792 -0.0829 -0.5573
14925TIP3   OH266189   1.831   4.916   0.881 -0.5699  0.2815 -0.2201
14925TIP3    H166190   1.787   4.915   0.796 -0.2113 -2.0465 -0.4283
14925TIP3    H266191   1.911   4.865   0.868  0.4920  1.5370  1.0461
14926TIP3   OH266192   0.245   6.018  13.145 -0.3129 -0.2828  0.4595
14926TIP3    H166193   0.248   6.072  13.224 -1.0018 -1.1011  1.0656
14926TIP3    H266194   0.337   6.010  13.117 -0.1603  0.7689  0.6457
14927TIP3   OH266195   4.394   5.036   1.720  0.2370 -0.2197 -0.4240
14927TIP3    H166196   4.345   5.097   1.665  0.0279 -0.9863 -1.1096
14927TIP3    H266197   4.339   4.958   1.726  2.1026 -1.8877 -2.8538
14928TIP3   OH266198   4.488   3.290  15.649 -0.2186  0.2315 -0.0832
14928TIP3    H166199   4.527   3.329  15.570  1.7632 -1.1152  0.1431
14928TIP3    H266200   4.532   3.335  15.721  0.7083 -1.0688  0.1881
14929TIP3   OH266201   3.942   0.349  13.941  0.4650  0.3371  0.7889
14929TIP3    H166202   3.973   0.265  13.906 -0.2371  0.6682 -0.7120
14929TIP3    H266203   3.855   0.359  13.905  1.3496  2.7286 -0.9246
14930TIP3   OH266204   0.441   1.204   0.738  0.6123  0.1103  0.1217
14930TIP3    H166205   0.506   1.203   0.667 -0.6489  0.0456 -1.0839
14930TIP3    H266206   0.487   1.166   0.813  1.6839 -0.8237 -0.9626
14931TIP3   OH266207   1.612   2.128  12.860  0.9244 -0.2625  0.3490
14931TIP3    H166208   1.590   2.034  12.862  1.2332 -0.3278  1.1164
14931TIP3    H266209   1.548   2.166  12.800 -0.0670 -0.7613  1.0448
14932TIP3   OH266210   1.549   6.672   4.889  0.0330 -0.0660 -0.2681
14932TIP3    H166211   1.529   6.762   4.863 -2.8490 -1.1287 -2.2795
14932TIP3    H266212   1.464   6.634   4.913  0.9267 -2.6231 -0.7906
14933TIP3   OH266213   0.355   5.966   5.670 -0.1099 -0.1893 -0.5099
14933TIP3    H166214   0.430   5.907   5.659 -0.1503 -0.2315 -0.5628
14933TIP3    H266215   0.380   6.024   5.742  0.0466 -0.0878 -0.6455
14934TIP3   OH266216   1.051   2.986   5.767 -0.0737 -0.2315  0.2784
14934TIP3    H166217   1.033   2.893   5.754  0.8573 -0.2974 -0.7288
14934TIP3    H266218   1.027   3.027   5.684  1.0989  0.1535  0.1074
14935TIP3   OH266219   3.617   2.111   0.746  0.7652  0.2271 -0.4516
14935TIP3    H166220   3.584   2.028   0.781 -1.1455  0.1791 -2.1528
14935TIP3    H266221   3.562   2.177   0.787  1.4820  0.5665 -0.0196
14936TIP3   OH266222   1.867   4.743  12.944  0.2041 -0.5987 -0.5439
14936TIP3    H166223   1.859   4.684  13.020 -0.4624 -0.3071 -0.3796
14936TIP3    H266224   1.780   4.780  12.933 -0.4414 -2.6164 -3.0867
14937TIP3   OH266225   0.220   0.775  14.591  0.2514  0.2686 -0.1728
14937TIP3    H166226   0.132   0.763  14.555  0.7166 -0.5105 -1.0864
14937TIP3    H266227   0.266   0.693  14.570  1.3716  0.8966 -0.2293
14938TIP3   OH266228   4.024   5.500  12.863  0.0975  0.1989 -0.2402
14938TIP3    H166229   4.025   5.580  12.810 -0.3120 -0.1976 -0.8550
14938TIP3    H266230   4.076   5.522  12.941  2.2093  0.2344 -1.5898
14939TIP3   OH266231   2.050   4.378  15.681 -0.0520 -0.1142 -0.3732
14939TIP3    H166232   2.041   4.283  15.685 -0.2956 -0.1323 -1.2304
14939TIP3    H266233   2.141   4.395  15.705 -0.2403 -0.4865  0.6970
14940TIP3   OH266234   0.059   2.464   6.564 -0.0481 -0.0219  0.0835
14940TIP3    H166235   0.030   2.555   6.564  1.1013  0.3583 -0.0206
14940TIP3    H266236  -0.010   2.417   6.516  0.2674  1.1094 -1.5632
14941TIP3   OH266237   4.461   5.573  10.712  1.0080  0.7374 -0.2498
14941TIP3    H166238   4.432   5.544  10.625  0.3635  1.9148 -0.4543
14941TIP3    H266239   4.503   5.496  10.750  1.6837  0.3182 -1.7640
14942TIP3   OH266240   0.725   1.808  11.370 -0.3529  0.1338  0.0709
14942TIP3    H166241   0.775   1.875  11.323  0.8701 -0.1628  0.9015
14942TIP3    H266242   0.771   1.726  11.351 -1.1197 -0.2968  0.0450
14943TIP3   OH266243   3.490   3.450   0.812 -0.1389 -0.1583  0.4056
14943TIP3    H166244   3.549   3.388   0.855  0.7103  0.7631  0.6011
14943TIP3    H266245   3.403   3.424   0.842 -0.1559 -3.0188 -1.6917
14944TIP3   OH266246   4.846   6.086   1.979  0.3293 -0.0072  0.6981
14944TIP3    H166247   4.878   6.162   1.929 -2.0278  0.4783 -0.2273
14944TIP3    H266248   4.780   6.046   1.921  0.6554 -2.0599  1.6771
14945TIP3   OH266249   6.449   2.551   3.148  0.5213 -0.0290  0.1807
14945TIP3    H166250   6.513   2.504   3.201  0.9840 -0.0329 -0.3769
14945TIP3    H266251   6.471   2.643   3.157  0.4521 -0.0123  0.1844
14946TIP3   OH266252   6.170   6.705  13.173  0.4497 -0.2113  0.5696
14946TIP3    H166253   6.146   6.765  13.243 -0.5531 -0.8666  0.7999
14946TIP3    H266254   6.120   6.734  13.097 -1.1268 -1.5631  1.0449
14947TIP3   OH266255   3.262   4.336  11.183 -0.4068  0.8457 -0.2001
14947TIP3    H166256   3.173   4.361  11.210 -0.5588 -0.6316  0.7351
14947TIP3    H266257   3.313   4.416  11.194 -1.6184  1.7363 -0.7908
14948TIP3   OH266258   0.518   2.128  16.749  0.2263 -0.3735  0.1157
14948TIP3    H166259   0.529   2.221  16.730  1.6646 -0.4205  0.5716
14948TIP3    H266260   0.437   2.104  16.705  0.3275  0.8755 -0.8221
14949TIP3   OH266261   5.319   5.162  14.879  0.2351 -0.5794 -0.5520
14949TIP3    H166262   5.335   5.256  14.883 -2.8473  0.0173  1.8960
14949TIP3    H266263   5.398   5.122  14.917  1.2772  1.0293 -0.9484
14950TIP3   OH266264   1.493   2.005  11.372 -0.6298  0.6386  0.4188
14950TIP3    H166265   1.422   2.031  11.430 -0.9349 -0.0782  0.3717
14950TIP3    H266266   1.573   2.023  11.422 -0.8894 -0.0067  1.0828
14951TIP3   OH266267   4.646   0.294  14.381  0.2099 -0.0302  0.2034
14951TIP3    H166268   4.661   0.225  14.445  0.6508 -0.0020  0.1327
14951TIP3    H266269   4.686   0.261  14.300  3.6612  1.7591  0.9875
14952TIP3   OH266270   5.708   6.055  17.055 -0.0223 -0.4608 -0.0508
14952TIP3    H166271   5.620   6.093  17.058  0.2689  0.1766  1.8490
14952TIP3    H266272   5.698   5.969  17.095  0.1693 -0.4936 -0.0722
14953TIP3   OH266273   2.288   5.600  12.316  0.2365 -0.1956  0.3039
14953TIP3    H166274   2.268   5.647  12.397  0.6011 -0.4239  0.5277
14953TIP3    H266275   2.203   5.573  12.282 -0.0076  0.8917  0.0081
14954TIP3   OH266276   0.266   3.207   1.848  0.3532  0.1461 -0.4479
14954TIP3    H166277   0.316   3.181   1.771 -0.6340  0.9801 -1.4012
14954TIP3    H266278   0.207   3.134   1.865  1.5581 -0.6602  0.4258
14955TIP3   OH266279   6.001   0.453  13.789 -0.5351 -0.8458 -0.1667
14955TIP3    H166280   5.969   0.448  13.879 -1.1372  0.2726 -0.2924
14955TIP3    H266281   6.096   0.452  13.797 -0.4700  1.9662  0.7737
14956TIP3   OH266282   5.407   1.944  15.152  0.1197 -0.2236 -0.3569
14956TIP3    H166283   5.352   1.908  15.222  0.7149  1.0039  0.8010
14956TIP3    H266284   5.455   1.869  15.117 -0.0230 -0.8341  0.7137
14957TIP3   OH266285   0.466   2.784  12.523 -0.3452 -0.2929 -0.4942
14957TIP3    H166286   0.382   2.815  12.559  0.2349 -0.0220  0.6578
14957TIP3    H266287   0.462   2.809  12.430 -0.0905  2.9599  0.2420
14958TIP3   OH266288   4.543   5.770   2.466 -0.1044 -0.6865 -0.5536
14958TIP3    H166289   4.586   5.855   2.462 -0.4650 -0.4946 -0.4165
14958TIP3    H266290   4.596   5.719   2.528 -0.7716 -0.0394  0.5886
14959TIP3   OH266291   1.563   6.207  16.754 -0.0693 -0.6118 -0.1902
14959TIP3    H166292   1.583   6.300  16.766  1.0201 -1.0549  2.0286
14959TIP3    H266293   1.637   6.173  16.703  1.0754 -0.7789  1.5068
14960TIP3   OH266294   6.482   6.471  12.668 -0.1560  0.0466 -0.3949
14960TIP3    H166295   6.427   6.479  12.591 -1.5461  1.2040  0.6788
14960TIP3    H266296   6.568   6.504  12.640  0.1383 -1.9910 -2.1428
14961TIP3   OH266297   0.286   4.846  15.757  0.0643 -0.5176  0.0076
14961TIP3    H166298   0.377   4.819  15.766 -0.3464 -1.9520  0.1575
14961TIP3    H266299   0.260   4.813  15.671 -0.3528 -0.2340  0.0234
14962TIP3   OH266300   2.882   2.746   2.522  0.0400 -0.3393  0.3067
14962TIP3    H166301   2.940   2.672   2.533  0.1353 -0.2047  0.7052
14962TIP3    H266302   2.796   2.715   2.551 -0.2226 -0.7156 -0.8132
14963TIP3   OH266303   3.834   1.748   3.582 -0.3413  0.3917  0.1977
14963TIP3    H166304   3.907   1.799   3.617  0.0257 -0.3950  0.6074
14963TIP3    H266305   3.786   1.809   3.526  0.3155  1.0664  0.3627
14964TIP3   OH266306   6.594   4.016   4.207 -0.0604 -0.4721  0.2060
14964TIP3    H166307   6.603   3.961   4.130 -0.1191 -1.2380  0.7375
14964TIP3    H266308   6.509   4.058   4.197 -0.2921 -0.9601  0.0961
14965TIP3   OH266309   5.955   0.774  13.534 -0.2429 -0.1085  0.2438
14965TIP3    H166310   5.865   0.794  13.511  0.3056  0.4670 -1.5325
14965TIP3    H266311   5.952   0.756  13.628 -1.8076  2.1888  0.7111
14966TIP3   OH266312   5.276   1.644  14.165 -0.1258 -0.8890 -0.1308
14966TIP3    H166313   5.273   1.720  14.222 -1.3512 -0.6915 -0.4372
14966TIP3    H266314   5.370   1.626  14.154  0.1820  0.4910  0.0509
14967TIP3   OH266315   4.025   0.827  12.125  0.2784  0.2435 -0.0113
14967TIP3    H166316   3.934   0.809  12.149  0.4174 -1.1317 -0.4448
14967TIP3    H266317   4.034   0.922  12.137 -0.4749  0.0774  2.4939
14968TIP3   OH266318   1.494   6.290   2.028 -0.2371 -0.3203 -0.4644
14968TIP3    H166319   1.506   6.240   1.947 -0.4874  0.7637 -1.1936
14968TIP3    H266320   1.414   6.340   2.014  0.6777  1.2654 -0.3043
14969TIP3   OH266321   3.720   2.725  16.792  0.9870 -0.0471 -0.2116
14969TIP3    H166322   3.651   2.753  16.731  0.9335 -0.1366 -0.1924
14969TIP3    H266323   3.714   2.785  16.865 -0.8242 -1.6447  1.0405
14970TIP3   OH266324   0.858   1.124  16.168 -0.0789  0.0527  0.3261
14970TIP3    H166325   0.884   1.126  16.261 -3.1058  1.6253  1.2707
14970TIP3    H266326   0.904   1.199  16.129 -0.7267  0.9362  1.2037
14971TIP3   OH266327   3.635   0.920   4.326  0.2079  0.4943 -0.7007
14971TIP3    H166328   3.577   0.960   4.391 -0.9009  0.1915 -1.4668
14971TIP3    H266329   3.631   0.826   4.345  3.0483  0.6339  1.2920
14972TIP3   OH266330   1.370   2.450  17.198 -0.1162 -0.4888 -0.2857
14972TIP3    H166331   1.453   2.413  17.167  0.2137  0.0478 -0.0648
14972TIP3    H266332   1.384   2.464  17.292  0.2444  1.3814 -0.5725
14973TIP3   OH266333   3.102   1.027   1.416 -0.1363 -0.5561 -0.2310
14973TIP3    H166334   3.050   1.102   1.447  0.0723 -1.1482  1.6618
14973TIP3    H266335   3.183   1.066   1.385 -0.1044  0.0441  0.5661
14974TIP3   OH266336   4.664   4.747  13.885  0.1387  0.2374  0.2623
14974TIP3    H166337   4.629   4.695  13.957  1.1880  1.4903  1.7403
14974TIP3    H266338   4.599   4.738  13.815 -1.8624  0.4868  2.0033
14975TIP3   OH266339   5.884   0.476  14.543 -0.1778 -0.1136  0.0293
14975TIP3    H166340   5.954   0.541  14.542 -1.3291  1.2288  1.6148
14975TIP3    H266341   5.815   0.515  14.597 -2.4198 -1.1113 -1.9006
14976TIP3   OH266342   1.442   2.068   0.999 -0.2126 -0.4135 -0.1605
14976TIP3    H166343   1.352   2.100   1.000 -0.1337  0.0191 -2.2846
14976TIP3    H266344   1.495   2.148   0.996  0.1407 -0.6799 -1.3269
14977TIP3   OH266345   0.983   3.144  12.644 -0.1497  0.9576  0.5908
14977TIP3    H166346   1.076   3.139  12.622 -0.6236  0.2245 -1.4532
14977TIP3    H266347   0.958   3.054  12.665 -0.5544  1.0184  0.3800
14978TIP3   OH266348   3.045   6.313  11.290  0.1086  0.3823 -0.4606
14978TIP3    H166349   3.037   6.404  11.319  0.2793  0.0831  0.5657
14978TIP3    H266350   3.086   6.268  11.364 -0.3429 -0.6076 -0.8012
14979TIP3   OH266351   3.231   2.588   4.189  0.2769 -0.2711  0.8093
14979TIP3    H166352   3.149   2.638   4.196  0.4406 -0.1274  2.1044
14979TIP3    H266353   3.279   2.630   4.119 -1.5777 -1.5955 -1.3883
14980TIP3   OH266354   1.329   0.049  10.828 -0.4102  0.6783  0.0881
14980TIP3    H166355   1.308   0.137  10.860  0.8718  1.3291 -0.7471
14980TIP3    H266356   1.335  -0.005  10.908 -1.4578  1.2789  0.5871
14981TIP3   OH266357   3.027   1.069  12.749 -0.5612 -0.0592 -0.5736
14981TIP3    H166358   2.977   1.091  12.827 -0.9621  0.7895 -1.0551
14981TIP3    H266359   2.961   1.059  12.680 -0.1674 -0.1654 -0.9421
14982TIP3   OH266360   4.803   5.246  14.116  0.4183  0.1830 -0.0728
14982TIP3    H166361   4.784   5.157  14.087  0.3954 -0.1786  1.0338
14982TIP3    H266362   4.740   5.263  14.186  2.3329 -0.0349  1.7816
14983TIP3   OH266363   1.883   5.421   1.819 -0.4055 -0.2417 -0.1053
14983TIP3    H166364   1.887   5.341   1.872  0.6310 -0.4556 -0.4885
14983TIP3    H266365   1.826   5.398   1.746 -2.1091  0.1542  1.0334
14984TIP3   OH266366   0.664   6.214  15.484 -0.0806 -0.2403 -0.2492
14984TIP3    H166367   0.683   6.126  15.517 -0.5886  0.0294  0.7751
14984TIP3    H266368   0.675   6.271  15.559 -1.8377  0.3106 -0.3708
14985TIP3   OH266369   2.026   5.988   6.215 -0.4926  0.3702 -0.1103
14985TIP3    H166370   1.963   6.045   6.171  0.3869  1.8681  0.5002
14985TIP3    H266371   2.079   6.048   6.268  0.6917 -0.9886  0.2827
14986TIP3   OH266372   5.581   6.386  15.352 -0.1652 -0.1826  0.0148
14986TIP3    H166373   5.624   6.374  15.437 -1.9810  2.2183  1.3820
14986TIP3    H266374   5.489   6.367  15.369 -0.3217 -1.4746 -1.9334
14987TIP3   OH266375   4.480   0.755   5.258 -0.5474  0.0695 -0.4399
14987TIP3    H166376   4.499   0.761   5.352  1.6362 -0.6172 -0.7756
14987TIP3    H266377   4.482   0.845   5.227 -1.1837  0.2926  0.1441
14988TIP3   OH266378   0.642   2.232   4.359 -0.2204 -0.6321  0.7412
14988TIP3    H166379   0.621   2.241   4.266 -2.2125 -0.5877  1.1522
14988TIP3    H266380   0.724   2.281   4.370  0.0856 -0.6973 -0.9890
14989TIP3   OH266381   1.638   4.410  16.622 -0.3456  0.7423  0.4663
14989TIP3    H166382   1.564   4.450  16.575 -0.6121 -0.2765 -0.0039
14989TIP3    H266383   1.598   4.340  16.674  0.5571 -2.0295 -2.2659
14990TIP3   OH266384   4.136   4.030   3.397  0.9488  0.2861 -0.2110
14990TIP3    H166385   4.094   4.039   3.482 -1.0754 -0.4387 -1.0677
14990TIP3    H266386   4.141   4.119   3.363 -1.4359  0.3167 -0.7099
14991TIP3   OH266387   5.837   3.376   0.810  0.0404 -0.2648 -0.8521
14991TIP3    H166388   5.899   3.444   0.836 -0.2965 -0.3309  0.1445
14991TIP3    H266389   5.867   3.348   0.723  0.4915  0.7778 -1.0411
14992TIP3   OH266390   3.371   1.686  15.829  0.2687  0.2532  0.0737
14992TIP3    H166391   3.456   1.727  15.846 -0.1593  1.3869 -0.4298
14992TIP3    H266392   3.318   1.706  15.906  0.1137  0.5055 -0.0968
14993TIP3   OH266393   1.321   1.885   5.114  0.8758  0.0154  0.3974
14993TIP3    H166394   1.392   1.821   5.111  1.5292  0.7473 -1.1240
14993TIP3    H266395   1.354   1.955   5.170 -0.2795 -1.3782  3.0061
14994TIP3   OH266396   3.774   3.499  13.668  0.0910  0.2485  0.2281
14994TIP3    H166397   3.828   3.424  13.642  1.9710  1.5366  0.2916
14994TIP3    H266398   3.765   3.551  13.589  0.2149  0.8049  0.5758
14995TIP3   OH266399   1.571   0.665  11.548 -0.3217 -0.2573  0.3463
14995TIP3    H166400   1.635   0.654  11.619  0.7854 -1.3422 -0.7674
14995TIP3    H266401   1.612   0.623  11.472 -1.0405  1.6710 -1.2081
14996TIP3   OH266402   6.058   0.227   3.927  0.4072  1.0180 -0.1523
14996TIP3    H166403   6.014   0.299   3.883 -2.0278 -0.0623  0.3391
14996TIP3    H266404   6.095   0.265   4.007 -0.2867  1.8331 -0.2163
14997TIP3   OH266405   3.693   4.008   2.504  0.3536 -0.5960 -0.4059
14997TIP3    H166406   3.726   4.091   2.470 -0.0968  0.2275  1.0897
14997TIP3    H266407   3.769   3.950   2.504  1.0904  0.3489  0.1674
14998TIP3   OH266408   4.394   2.055   1.929 -0.6466 -0.3824 -0.4205
14998TIP3    H166409   4.372   2.069   2.021 -0.1110  1.0921 -0.4818
14998TIP3    H266410   4.319   2.089   1.880  0.0874  1.1779 -0.5449
14999TIP3   OH266411   4.685   4.492   5.246 -0.2724 -0.6831 -0.0115
14999TIP3    H166412   4.721   4.492   5.158 -1.6474 -0.9035 -0.5848
14999TIP3    H266413   4.763   4.491   5.303  0.6388  0.2649 -1.1872
15000TIP3   OH266414   3.790   0.156  16.109 -0.0687 -0.1298  0.7190
15000TIP3    H166415   3.798   0.233  16.166  0.9992  0.1958  0.1554
15000TIP3    H266416   3.725   0.180  16.044  0.3199  0.3364  0.4972
15001TIP3   OH266417   1.004   1.934  16.646 -0.0477 -0.5579 -0.0887
15001TIP3    H166418   0.909   1.937  16.638 -0.0504 -0.0333  0.0782
15001TIP3    H266419   1.033   1.888  16.567 -0.2169  2.4087 -2.0898
15002TIP3   OH266420   4.241   5.317  12.811 -0.5737 -0.9922  0.1138
15002TIP3    H166421   4.160   5.367  12.810 -0.7527 -1.2233  1.5634
15002TIP3    H266422   4.303   5.371  12.762 -1.6047 -0.8498 -1.0758
15003TIP3   OH266423   1.617   0.352   0.467  0.2145 -0.0625 -0.6368
15003TIP3    H166424   1.576   0.398   0.393 -0.1455 -0.3741 -0.6371
15003TIP3    H266425   1.594   0.260   0.453  0.6474 -0.1978 -0.4572
15004TIP3   OH266426   3.661   3.797   3.291  0.4004  0.0884  0.5150
15004TIP3    H166427   3.621   3.739   3.355  2.1044 -0.7413  0.9020
15004TIP3    H266428   3.599   3.800   3.219 -1.3480  0.6744  1.9822
15005TIP3   OH266429   4.924   4.278  15.434 -0.0867 -0.2397 -0.0217
15005TIP3    H166430   4.928   4.240  15.346  0.5542 -0.6386  0.1738
15005TIP3    H266431   4.854   4.343  15.428  0.3608  0.1801 -1.0002
15006TIP3   OH266432   4.747   0.896   2.255 -0.1224  0.4990 -0.4454
15006TIP3    H166433   4.661   0.901   2.297 -0.0254  0.8203 -0.2848
15006TIP3    H266434   4.747   0.810   2.213  1.0571 -1.4294  3.0584
15007TIP3   OH266435   1.827   5.080   1.111 -0.6043 -0.0750 -0.4397
15007TIP3    H166436   1.831   5.038   1.025 -1.3524  1.1698 -1.1033
15007TIP3    H266437   1.734   5.086   1.130 -0.4912  0.9410 -0.1801
15008TIP3   OH266438   0.579   5.231   0.285 -0.0398 -0.2252  0.4938
15008TIP3    H166439   0.580   5.238   0.189  1.2530 -0.9252  0.4453
15008TIP3    H266440   0.486   5.222   0.307 -0.4952  1.4240 -0.5665
15009TIP3   OH266441   0.178   3.158   3.718  0.7589  0.1255  0.0776
15009TIP3    H166442   0.221   3.240   3.742 -1.4365  1.4378 -0.1678
15009TIP3    H266443   0.158   3.116   3.801  1.9919 -0.2292  0.2024
15010TIP3   OH266444   5.614   2.690  11.446 -0.2480  0.4164 -0.1634
15010TIP3    H166445   5.701   2.687  11.487  0.1787  0.4156 -1.0370
15010TIP3    H266446   5.609   2.608  11.396 -1.3660 -0.3056  1.0687
15011TIP3   OH266447   3.997   6.276  10.875  0.7836 -0.3362  0.1158
15011TIP3    H166448   3.996   6.358  10.826  0.4299 -0.7529 -0.5956
15011TIP3    H266449   4.021   6.209  10.810 -2.3106 -1.3025 -0.2181
15012TIP3   OH266450   2.342   4.353   3.315 -0.0118  0.5555  0.8499
15012TIP3    H166451   2.344   4.405   3.235  1.4445  1.2317  1.2962
15012TIP3    H266452   2.434   4.333   3.333 -0.4867 -2.3161  0.6330
15013TIP3   OH266453   6.469   3.939   6.534 -0.0174 -0.6373 -0.0168
15013TIP3    H166454   6.541   3.993   6.567  0.2837 -0.5611 -0.7804
15013TIP3    H266455   6.460   3.869   6.599 -2.0294  1.5871  2.3279
15014TIP3   OH266456   6.748   1.040   2.140 -0.0264 -0.1521 -0.4643
15014TIP3    H166457   6.730   0.994   2.057 -1.8586  0.2528 -0.3154
15014TIP3    H266458   6.689   0.999   2.203  0.3019  0.5564  0.3091
15015TIP3   OH266459   2.698   6.161   0.891 -0.1229  0.1167 -0.4145
15015TIP3    H166460   2.714   6.254   0.910 -1.3971 -0.1457  2.5431
15015TIP3    H266461   2.763   6.115   0.945 -1.1482 -0.7082  0.1494
15016TIP3   OH266462   1.801   2.494   1.225  0.2517  0.0720  0.0029
15016TIP3    H166463   1.886   2.535   1.210  0.6032 -0.2137  1.0690
15016TIP3    H266464   1.798   2.480   1.320 -0.5391 -0.8714 -0.1407
15017TIP3   OH266465   0.093   6.613   0.910  0.0857  0.4407  0.4377
15017TIP3    H166466   0.068   6.703   0.889  1.2036  0.4411 -1.0518
15017TIP3    H266467   0.159   6.590   0.844 -0.8280 -1.7908  0.1973
15018TIP3   OH266468   6.289   0.614  11.479 -0.0990 -0.3987  0.2179
15018TIP3    H166469   6.355   0.654  11.422 -0.8613  1.6253  0.6565
15018TIP3    H266470   6.228   0.686  11.499 -0.4867 -1.3129  2.6527
15019TIP3   OH266471   5.070   1.194  11.628 -0.2588  0.2475 -0.3786
15019TIP3    H166472   5.115   1.113  11.653  0.8148  0.6814 -0.8181
15019TIP3    H266473   5.022   1.172  11.548  0.3775  0.1359 -0.7423
15020TIP3   OH266474   6.701   4.497  13.339  0.3760 -0.0670 -0.3537
15020TIP3    H166475   6.649   4.445  13.277  1.0923 -0.3425 -0.7329
15020TIP3    H266476   6.666   4.586  13.330 -0.7542 -0.4394  0.1866
15021TIP3   OH266477   4.118   2.048  16.990 -0.8360  0.4325 -0.0969
15021TIP3    H166478   4.097   2.048  17.084 -0.4758 -2.0148  0.0316
15021TIP3    H266479   4.055   1.988  16.951 -0.0379  0.2683 -1.1839
15022TIP3   OH266480   2.643   1.451   2.079  0.1595  0.0988  0.1436
15022TIP3    H166481   2.618   1.483   2.166 -0.5121 -0.1348  0.0404
15022TIP3    H266482   2.579   1.382   2.060  0.8939 -0.5253 -0.1202
15023TIP3   OH266483   0.982   5.324   4.453 -0.5471  0.5382 -0.4915
15023TIP3    H166484   0.993   5.229   4.443  0.7188  0.7123 -0.9547
15023TIP3    H266485   1.070   5.360   4.437 -0.9009  1.7529  0.1709
15024TIP3   OH266486   2.030   2.313  12.578  0.3801 -0.5530 -0.0696
15024TIP3    H166487   2.027   2.285  12.486  1.2508 -0.3835 -0.1613
15024TIP3    H266488   2.008   2.235  12.628 -0.7477 -0.4879 -0.4371
15025TIP3   OH266489   2.514   2.846  12.615  0.5649 -0.2288 -0.2738
15025TIP3    H166490   2.529   2.772  12.673 -0.6526 -0.6776 -0.4937
15025TIP3    H266491   2.517   2.923  12.671  1.7375 -0.4443 -0.0261
15026TIP3   OH266492   3.671   4.428  14.585  1.1617  0.1849 -0.6322
15026TIP3    H166493   3.766   4.443  14.581  1.2338 -0.0087  0.2182
15026TIP3    H266494   3.653   4.370  14.510  1.3976  1.7138 -1.9394
15027TIP3   OH266495   4.372   0.717  11.793 -0.3305 -0.2416 -0.2067
15027TIP3    H166496   4.420   0.734  11.712 -0.7838  2.9203  0.0870
15027TIP3    H266497   4.396   0.789  11.851 -2.3009 -0.8051  1.4235
15028TIP3   OH266498   4.028   0.980   3.201 -0.3880  0.2999 -0.1442
15028TIP3    H166499   3.974   1.038   3.255 -0.5778  0.7315 -0.7909
15028TIP3    H266500   3.973   0.903   3.186 -0.7600  0.6547 -0.6393
15029TIP3   OH266501   4.731   4.994   2.729  0.5915 -0.5131 -0.2139
15029TIP3    H166502   4.746   4.969   2.638  0.5437 -0.4827 -0.2297
15029TIP3    H266503   4.644   4.960   2.750  0.2642  0.1909 -0.4271
15030TIP3   OH266504   1.855   6.460   0.138  0.2427 -0.9091  0.0052
15030TIP3    H166505   1.892   6.465   0.050 -1.4045  0.7871 -0.6600
15030TIP3    H266506   1.760   6.463   0.125 -0.0281 -0.1043  1.8510
15031TIP3   OH266507   0.006   5.875   2.700  0.2858 -0.1214  0.1118
15031TIP3    H166508   0.054   5.850   2.622  2.3354  1.3268  0.8025
15031TIP3    H266509  -0.006   5.970   2.692  0.4192  0.0400  1.4689
15032TIP3   OH266510   5.083   4.915  16.614  0.0507 -0.1080 -0.1853
15032TIP3    H166511   5.149   4.922  16.683 -1.3063  0.8928  1.0909
15032TIP3    H266512   5.033   4.997  16.621 -1.7015 -1.0873 -0.6791
15033TIP3   OH266513   0.525   5.130   5.618 -0.4732 -0.4361  0.0469
15033TIP3    H166514   0.468   5.167   5.550 -0.6295  1.7895  1.3274
15033TIP3    H266515   0.590   5.197   5.634 -1.7103  0.1087  3.6200
15034TIP3   OH266516   5.768   3.116   4.797 -0.5138  0.4404 -0.0967
15034TIP3    H166517   5.683   3.159   4.782 -0.9881  0.1681  1.6046
15034TIP3    H266518   5.831   3.187   4.796 -0.7504  0.6617 -1.2740
15035TIP3   OH266519   2.140   3.571   3.188 -0.0804  0.5936 -0.3361
15035TIP3    H166520   2.082   3.515   3.240 -0.1722 -0.2129 -1.2867
15035TIP3    H266521   2.146   3.652   3.238 -0.4230 -0.0465  0.7743
15036TIP3   OH266522   4.885   1.780   2.413 -0.3304 -0.0256  0.1826
15036TIP3    H166523   4.885   1.869   2.380 -2.6460 -0.2519 -0.6698
15036TIP3    H266524   4.811   1.777   2.474 -0.4870 -1.3905 -0.0198
15037TIP3   OH266525   0.537   4.171  10.945  0.7033 -0.2174 -0.3301
15037TIP3    H166526   0.452   4.187  10.904  0.1675 -0.7256  0.5490
15037TIP3    H266527   0.519   4.171  11.039  1.4745 -1.3886 -0.1553
15038TIP3   OH266528   3.611   0.339   3.706 -0.1523  0.0829  0.1832
15038TIP3    H166529   3.632   0.246   3.705 -0.7031 -0.0459  0.2083
15038TIP3    H266530   3.691   0.382   3.676  0.6393 -0.2836  1.6735
15039TIP3   OH266531   2.057   3.812  12.596 -0.1106  0.2242  0.2892
15039TIP3    H166532   1.986   3.779  12.649 -1.3825  1.2881 -0.6888
15039TIP3    H266533   2.033   3.902  12.576  1.0023  0.2913 -0.9226
15040TIP3   OH266534   5.256   3.568   4.131  0.0974  0.0212 -0.3588
15040TIP3    H166535   5.273   3.576   4.037  0.6834  0.7265 -0.1979
15040TIP3    H266536   5.229   3.656   4.158  1.2705  0.1731  0.3880
15041TIP3   OH266537   4.729   0.473   6.016 -0.5274  0.0522  0.5032
15041TIP3    H166538   4.797   0.539   6.008 -0.1082 -0.3177  0.9801
15041TIP3    H266539   4.676   0.484   5.936 -0.7906  1.3020  0.8308
15042TIP3   OH266540   5.040   0.410  14.479  0.7057 -0.3505  0.5901
15042TIP3    H166541   4.951   0.444  14.493  0.5789 -0.4909  0.1511
15042TIP3    H266542   5.094   0.489  14.471  0.6260 -0.2637  0.8697
15043TIP3   OH266543   3.567   3.498  12.063  0.1331 -0.0553  0.2766
15043TIP3    H166544   3.477   3.524  12.082  0.4854  1.0501  0.4866
15043TIP3    H266545   3.589   3.435  12.132 -0.0234  0.7263  1.0592
15044TIP3   OH266546   3.711   1.600  16.076  0.4718  0.0300  0.0215
15044TIP3    H166547   3.769   1.570  16.147 -0.9893 -1.2479  0.7360
15044TIP3    H266548   3.683   1.519  16.033  0.5777  0.7429 -1.4219
15045TIP3   OH266549   1.586   2.779  11.340  0.7509 -0.1935 -0.0913
15045TIP3    H166550   1.523   2.752  11.273  0.7581 -1.7299  0.4911
15045TIP3    H266551   1.566   2.725  11.416  1.6557  0.5270  0.6906
15046TIP3   OH266552   2.985   2.643  13.922 -0.1144  0.0281  0.1886
15046TIP3    H166553   2.933   2.597  13.988  0.6386 -0.8689  0.1794
15046TIP3    H266554   2.954   2.734  13.926  1.2813  0.5210  3.2787
15047TIP3   OH266555   5.235   4.097   0.405 -0.1849  0.0454  0.0061
15047TIP3    H166556   5.213   4.004   0.411 -1.6558  0.2264 -1.6402
15047TIP3    H266557   5.178   4.140   0.469  0.6032 -0.1917  0.8729
15048TIP3   OH266558   3.887   6.265   1.681  0.2838  0.0164  0.0762
15048TIP3    H166559   3.892   6.198   1.750 -0.1937  0.7215  0.8043
15048TIP3    H266560   3.978   6.291   1.667  0.7211 -2.0487 -1.5118
15049TIP3   OH266561   2.189   3.520   2.010 -0.0274 -0.2033 -0.6459
15049TIP3    H166562   2.277   3.484   2.006  0.0722  0.1100 -1.3512
15049TIP3    H266563   2.188   3.591   1.946 -0.8360 -0.2974 -0.7527
15050TIP3   OH266564   0.426   6.088   0.228  0.5192 -0.5891 -0.3448
15050TIP3    H166565   0.359   6.020   0.232  1.3332 -1.3469  1.9770
15050TIP3    H266566   0.499   6.049   0.180 -0.0318 -0.3497 -1.4042
15051TIP3   OH266567   0.088   3.901   4.207 -0.2452  0.7692  0.2442
15051TIP3    H166568  -0.001   3.934   4.219 -1.1260 -1.6733  1.0780
15051TIP3    H266569   0.135   3.926   4.286 -0.9549 -0.0771  0.9545
15052TIP3   OH266570   2.993   1.658  15.436 -0.2781 -0.2401  0.0061
15052TIP3    H166571   3.062   1.724  15.450 -0.3426  0.1231 -1.2415
15052TIP3    H266572   3.015   1.588  15.497  0.8684  0.1243  0.0471
15053TIP3   OH266573   2.813   4.570   4.671 -0.7547  0.1299 -0.6461
15053TIP3    H166574   2.875   4.609   4.609  0.6637 -0.5871  0.2590
15053TIP3    H266575   2.787   4.643   4.727 -0.7193  0.4367 -1.0224
15054TIP3   OH266576   0.510   4.973   6.036 -0.3196  0.3196 -0.4315
15054TIP3    H166577   0.480   4.974   6.126  0.7270 -2.0811  0.0317
15054TIP3    H266578   0.601   5.003   6.041  0.0765 -0.8304 -0.5031
15055TIP3   OH266579   3.480   3.778  14.487  0.0415  0.3574 -0.6903
15055TIP3    H166580   3.468   3.684  14.499  0.8791  0.2111 -0.8831
15055TIP3    H266581   3.439   3.818  14.564 -0.1242 -0.1811 -0.4971
15056TIP3   OH266582   4.360   3.901   3.148 -0.1398 -0.4398 -0.5053
15056TIP3    H166583   4.291   3.897   3.213  0.1785  0.5540 -0.0968
15056TIP3    H266584   4.441   3.885   3.197  0.2403  1.5959 -0.3799
15057TIP3   OH266585   3.412   0.552  15.238  0.2946  0.4635 -0.0606
15057TIP3    H166586   3.503   0.536  15.214 -0.0200 -1.0627 -0.3619
15057TIP3    H266587   3.365   0.553  15.155 -0.4983 -2.7807  0.2045
15058TIP3   OH266588   5.627   3.580   2.023  0.1911 -0.3080 -0.7162
15058TIP3    H166589   5.688   3.539   2.085  2.1142  1.2905 -1.4280
15058TIP3    H266590   5.640   3.531   1.942  1.3354  0.6234 -1.1356
15059TIP3   OH266591   6.722   5.285  12.897  0.8440  0.0618 -0.4179
15059TIP3    H166592   6.711   5.310  12.805  1.6525 -1.4048 -0.9466
15059TIP3    H266593   6.635   5.261  12.927  0.9904 -2.4814 -1.7736
15060TIP3   OH266594   6.780   6.785   6.086 -0.2240  0.1805 -0.1277
15060TIP3    H166595   6.833   6.854   6.126  1.4963 -0.4923 -1.1313
15060TIP3    H266596   6.696   6.828   6.066 -0.9755  0.6967  3.4610
15061TIP3   OH266597   0.968   6.006   3.175  0.0448  0.2742  0.3102
15061TIP3    H166598   1.016   6.088   3.180 -0.1266  0.3474  0.8009
15061TIP3    H266599   0.954   5.980   3.266 -0.5938  0.1091  0.1713
15062TIP3   OH266600   4.846   3.805  10.823 -0.3291 -1.1657 -0.0779
15062TIP3    H166601   4.807   3.780  10.907 -0.4428 -1.4792 -0.2241
15062TIP3    H266602   4.772   3.834  10.770 -0.0481  0.9548  0.5898
15063TIP3   OH266603   3.972   3.307   1.791 -0.4804  0.0681  0.1468
15063TIP3    H166604   3.918   3.285   1.715 -0.0539 -1.7089  0.3034
15063TIP3    H266605   4.062   3.297   1.760 -0.3045 -1.2592  1.0081
15064TIP3   OH266606   1.689   4.076   2.715 -0.2592  0.5566  0.2285
15064TIP3    H166607   1.665   3.983   2.721 -1.9126  1.0318  1.8496
15064TIP3    H266608   1.692   4.106   2.806  0.3410  2.0983 -0.2663
15065TIP3   OH266609   5.237   2.126   3.426 -0.1053 -0.5478 -0.1247
15065TIP3    H166610   5.143   2.118   3.406  0.1356 -1.6658 -0.9092
15065TIP3    H266611   5.246   2.090   3.514 -0.0939 -2.7502 -0.9623
15066TIP3   OH266612   3.991   6.161  15.594  0.5903 -0.5139  1.0056
15066TIP3    H166613   3.973   6.248  15.558  1.3289 -1.0648 -0.7719
15066TIP3    H266614   4.056   6.178  15.663  2.8239  0.1186 -1.1340
15067TIP3   OH266615   3.076   2.975  11.917  0.5952 -0.3998 -0.3925
15067TIP3    H166616   3.113   2.985  11.829 -1.9572  0.3271 -1.4621
15067TIP3    H266617   3.034   2.890  11.916  0.0744 -0.1512 -0.0676
15068TIP3   OH266618   5.333   1.582   3.005  0.1094 -0.0207 -0.4038
15068TIP3    H166619   5.338   1.678   3.011 -0.2180  0.0550 -1.1768
15068TIP3    H266620   5.252   1.559   3.051  0.1598  0.0793 -0.2650
15069TIP3   OH266621   1.965   1.927   4.010 -0.9575 -0.3848 -0.4694
15069TIP3    H166622   2.047   1.902   4.051 -1.4914 -0.3986  0.6312
15069TIP3    H266623   1.986   1.935   3.917  0.8393  1.9530  0.0543
15070TIP3   OH266624   5.421   5.744  10.198  0.2506 -0.1844  0.2187
15070TIP3    H166625   5.365   5.712  10.268  1.9238 -0.0403  1.6836
15070TIP3    H266626   5.506   5.702  10.213  1.1497  1.2222 -0.6499
15071TIP3   OH266627   4.686   0.394  11.693  0.7410  0.0215 -0.2192
15071TIP3    H166628   4.721   0.463  11.750 -0.9230 -1.2204  2.5359
15071TIP3    H266629   4.729   0.314  11.724 -1.1425 -0.8681  0.2265
15072TIP3   OH266630   1.100   5.688   4.735  0.4830  0.1789  0.3263
15072TIP3    H166631   1.189   5.656   4.721  0.0069 -0.4927 -1.5226
15072TIP3    H266632   1.077   5.732   4.653 -0.3888  1.6300  1.3010
15073TIP3   OH266633   2.694   5.990   2.193  0.1907 -0.2705 -0.1012
15073TIP3    H166634   2.750   6.031   2.259 -0.3053  0.9784 -0.4159
15073TIP3    H266635   2.723   6.028   2.111 -0.0013 -0.9044 -0.4682
15074TIP3   OH266636   5.076   0.509   1.931 -0.1509  0.1802  0.2166
15074TIP3    H166637   4.984   0.503   1.953  0.0500 -0.4995  0.9049
15074TIP3    H266638   5.121   0.507   2.015  0.5539 -0.7378 -0.1675
15075TIP3   OH266639   3.926   6.720   3.705  0.4969  0.1230  0.0225
15075TIP3    H166640   3.938   6.784   3.634 -2.2298  0.6583 -0.0613
15075TIP3    H266641   3.974   6.758   3.779  1.2915  0.8160 -0.8165
15076TIP3   OH266642   1.890   5.365   4.005 -0.1000  0.2236  0.1207
15076TIP3    H166643   1.928   5.307   3.939 -0.9368  0.1176 -0.2793
15076TIP3    H266644   1.824   5.416   3.958 -0.2354  0.6344  0.7332
15077TIP3   OH266645   5.348   6.351  12.194 -0.0824 -0.2464 -0.7506
15077TIP3    H166646   5.290   6.400  12.252  0.7112 -1.0094  0.7408
15077TIP3    H266647   5.420   6.411  12.175  0.6956 -0.6586  0.7636
15078TIP3   OH266648   3.034   2.882   6.520 -0.4313  0.3641 -0.3681
15078TIP3    H166649   3.072   2.819   6.582 -0.9838  0.8332  0.4583
15078TIP3    H266650   3.097   2.884   6.448  0.4744  0.1637  0.3861
15079TIP3   OH266651   6.695   0.179  16.404  0.0222  0.2750 -0.0828
15079TIP3    H166652   6.755   0.107  16.383  0.5354  0.5084  0.5648
15079TIP3    H266653   6.752   0.252  16.426 -0.4841  0.3153  1.1728
15080TIP3   OH266654   2.834   3.256   1.281  0.3045 -0.3453  0.0961
15080TIP3    H166655   2.928   3.240   1.293  0.0674 -2.3575 -0.3833
15080TIP3    H266656   2.821   3.251   1.186 -0.0314  1.7843 -0.0237
15081TIP3   OH266657   3.999   3.282  14.893 -0.2237  0.1305  0.0570
15081TIP3    H166658   3.970   3.301  14.983  0.1133 -1.4865  0.5513
15081TIP3    H266659   3.947   3.205  14.868  0.7269 -0.3115 -0.5805
15082TIP3   OH266660   5.445   4.434  16.273 -0.4853  0.0290  0.5860
15082TIP3    H166661   5.410   4.347  16.290  0.4284 -0.1837  1.4502
15082TIP3    H266662   5.371   4.482  16.236 -1.2158 -0.8828  0.8131
15083TIP3   OH266663   2.396   5.491   1.408  0.1631 -0.3970 -0.4184
15083TIP3    H166664   2.382   5.397   1.418 -0.5382 -0.4767 -1.8901
15083TIP3    H266665   2.313   5.524   1.375 -0.3127  1.1229  2.0364
15084TIP3   OH266666   3.290   3.390  12.596  0.0614  0.2809  0.1618
15084TIP3    H166667   3.330   3.428  12.674  0.5694  0.7314 -0.3159
15084TIP3    H266668   3.246   3.311  12.628  0.6290  0.2279  0.8285
15085TIP3   OH266669   4.594   6.008   1.843  0.3546  0.2779 -0.2638
15085TIP3    H166670   4.614   5.972   1.757 -2.4851  1.3411 -1.5015
15085TIP3    H266671   4.550   5.937   1.889  0.6857  0.1227 -0.1836
15086TIP3   OH266672   0.783   5.943  14.091 -0.5957  0.4168 -0.2220
15086TIP3    H166673   0.721   5.969  14.024  0.6576  2.1613 -0.7598
15086TIP3    H266674   0.759   5.994  14.168 -1.6258 -1.1015  0.5211
15087TIP3   OH266675   3.111   2.890   3.011  0.1345  0.4536 -0.1469
15087TIP3    H166676   3.026   2.918   3.046 -1.2279 -2.8065 -0.5127
15087TIP3    H266677   3.158   2.855   3.087  1.4814  2.7237  0.1574
15088TIP3   OH266678   6.777   0.561  12.457 -0.1890 -0.4033  0.2871
15088TIP3    H166679   6.762   0.470  12.481 -1.3706  0.0617  1.4566
15088TIP3    H266680   6.700   0.607  12.490  0.0385  0.9128 -0.9499
15089TIP3   OH266681   4.419   3.122  10.425  0.2733 -0.3258 -0.0785
15089TIP3    H166682   4.371   3.197  10.459  0.0118 -1.4107  2.0962
15089TIP3    H266683   4.382   3.046  10.470  1.6294 -1.5957 -0.9794
15090TIP3   OH266684   2.675   0.580  12.374  0.2687 -0.5022 -0.1125
15090TIP3    H166685   2.631   0.589  12.458 -1.0209  2.5725 -0.9976
15090TIP3    H266686   2.625   0.513  12.327 -1.9973  1.1095 -0.1266
15091TIP3   OH266687   4.031   5.913  17.189  0.2752  0.7268  0.0402
15091TIP3    H166688   4.095   5.905  17.261 -0.8597 -0.2668  0.9907
15091TIP3    H266689   3.949   5.934  17.233 -0.7406 -1.2333 -0.7973
15092TIP3   OH266690   3.848   3.628  12.085 -0.2200  0.0362 -0.0381
15092TIP3    H166691   3.851   3.723  12.070 -0.9814  0.4695  2.2763
15092TIP3    H266692   3.764   3.613  12.127 -0.2238 -1.7473 -0.5956
15093TIP3   OH266693   0.843   3.980  15.822 -0.1651  0.1089 -0.0434
15093TIP3    H166694   0.885   3.899  15.853 -0.4121 -0.0014  0.0019
15093TIP3    H266695   0.785   3.952  15.752  0.6585  0.4009 -0.8677
15094TIP3   OH266696   4.239   1.147   1.753  0.0601 -0.7122  0.3884
15094TIP3    H166697   4.147   1.130   1.731  0.0091  1.3956 -1.4217
15094TIP3    H266698   4.278   1.177   1.671  1.3940  2.1138  1.9188
15095TIP3   OH266699   5.425   0.096  15.137  0.4095 -0.5549 -0.0286
15095TIP3    H166700   5.481   0.027  15.171 -0.4875  0.1232  3.1184
15095TIP3    H266701   5.405   0.151  15.212 -3.3455  0.0179 -1.2016
15096TIP3   OH266702   5.594   4.110  13.399  0.5579  0.4986  0.3436
15096TIP3    H166703   5.499   4.115  13.412  0.3423 -0.1959 -0.8518
15096TIP3    H266704   5.629   4.083  13.484 -0.0857  2.7761  1.4253
15097TIP3   OH266705   1.111   6.176   5.381 -0.8133 -0.0264  0.3264
15097TIP3    H166706   1.089   6.266   5.404 -0.3393  0.0717  0.3921
15097TIP3    H266707   1.050   6.154   5.310  0.7057  1.1891 -1.4394
15098TIP3   OH266708   4.108   2.147   0.983 -0.0590  0.2896  0.3790
15098TIP3    H166709   4.127   2.238   1.007  2.0333 -0.3078  1.2094
15098TIP3    H266710   4.146   2.137   0.896 -0.3448  0.2271  0.2606
15099TIP3   OH266711   5.544   1.755  15.010 -0.2405  0.0368 -0.1129
15099TIP3    H166712   5.634   1.728  15.031 -0.1920 -0.2579 -0.6611
15099TIP3    H266713   5.490   1.681  15.037 -0.2039 -0.2349 -0.7517
15100TIP3   OH266714   1.425   1.725  11.519  0.0185 -0.2829  0.2257
15100TIP3    H166715   1.355   1.738  11.455  0.2743  1.7115  0.3019
15100TIP3    H266716   1.444   1.812  11.553  1.2464 -1.0325  1.6097
15101TIP3   OH266717   2.281   3.904  13.098  0.1265 -0.3524 -0.2809
15101TIP3    H166718   2.199   3.876  13.139 -0.3015 -0.3035 -1.0676
15101TIP3    H266719   2.325   3.823  13.074  0.0643 -0.3770 -0.3127
15102TIP3   OH266720   0.934   2.421   4.675  0.0424 -0.8085  0.3227
15102TIP3    H166721   0.907   2.469   4.753 -1.4611 -1.6054  0.3370
15102TIP3    H266722   0.922   2.329   4.698  0.5940 -1.1017 -0.4955
15103TIP3   OH266723   2.533   0.111  13.391 -0.2816  0.0538  0.5347
15103TIP3    H166724   2.627   0.106  13.406 -0.0743  0.3894 -0.5607
15103TIP3    H266725   2.523   0.171  13.317 -1.3733  0.2247  0.8006
15104TIP3   OH266726   1.422   4.847   0.517  0.2408 -0.3836  0.3145
15104TIP3    H166727   1.412   4.938   0.545 -0.3468 -0.3398 -0.0118
15104TIP3    H266728   1.505   4.845   0.469 -0.5579  0.3856 -1.1694
15105TIP3   OH266729   1.352   0.968  10.467 -0.3717  0.3378  0.2239
15105TIP3    H166730   1.299   0.893  10.495 -0.1205  0.4166  0.9346
15105TIP3    H266731   1.420   0.929  10.412 -0.2174  0.0272  0.6241
15106TIP3   OH266732   0.508   5.589  14.715 -0.6000 -0.2277  0.4446
15106TIP3    H166733   0.529   5.525  14.647 -0.7196 -0.2998  0.4754
15106TIP3    H266734   0.459   5.539  14.781 -1.5994  0.1019 -0.0159
15107TIP3   OH266735   6.255   4.640   4.205  0.3020 -0.9360 -0.0708
15107TIP3    H166736   6.161   4.634   4.191  0.3612  0.6591 -1.5446
15107TIP3    H266737   6.272   4.584   4.280 -1.6151 -2.3446 -0.6035
15108TIP3   OH266738   3.656   5.886  15.859 -0.3866 -0.0154 -0.1885
15108TIP3    H166739   3.691   5.883  15.947  2.1274 -1.7327 -1.1472
15108TIP3    H266740   3.691   5.967  15.821  0.3825 -0.4056 -0.3123
15109TIP3   OH266741   6.165   2.017   4.983  0.4138 -0.1924  0.3154
15109TIP3    H166742   6.226   1.943   4.977  2.3915  1.3608  0.1081
15109TIP3    H266743   6.152   2.045   4.892  1.1791  0.8331  0.5049
15110TIP3   OH266744   3.799   3.207   4.352 -1.0190  0.1458  0.1774
15110TIP3    H166745   3.799   3.261   4.430  0.5682  0.0641  0.2677
15110TIP3    H266746   3.807   3.269   4.279  0.4531  0.0904  0.2631
15111TIP3   OH266747   3.682   2.573  13.659  0.0594 -0.1431  0.0445
15111TIP3    H166748   3.775   2.570  13.633  0.3553  0.9405  0.9151
15111TIP3    H266749   3.641   2.627  13.592  0.0671 -0.5484 -0.2925
15112TIP3   OH266750   1.128   2.663  16.780 -0.4478  0.1202 -0.6413
15112TIP3    H166751   1.135   2.578  16.822  0.5860 -1.1627 -3.2275
15112TIP3    H266752   1.185   2.720  16.832 -0.5291 -0.9248  0.6579
15113TIP3   OH266753   0.545   4.068  13.809 -0.4424 -0.4534  0.4363
15113TIP3    H166754   0.496   4.148  13.829  0.5611 -0.1430  1.7526
15113TIP3    H266755   0.532   4.012  13.885  0.5782 -0.6769  0.4654
15114TIP3   OH266756   1.827   4.805  11.899  0.5245 -0.0654 -0.1486
15114TIP3    H166757   1.869   4.720  11.910 -1.0774 -0.5339  4.2688
15114TIP3    H266758   1.892   4.869  11.928  0.6029 -0.1142 -0.2189
15115TIP3   OH266759   2.353   6.476   5.624 -1.0643 -0.1760  0.2211
15115TIP3    H166760   2.260   6.490   5.643 -0.9599  0.4609  0.2767
15115TIP3    H266761   2.377   6.549   5.568  0.2846  1.7454  3.0913
15116TIP3   OH266762   3.490   3.484  15.526  1.0189  0.4863  0.5227
15116TIP3    H166763   3.464   3.392  15.529 -0.1305  0.7572 -0.5054
15116TIP3    H266764   3.421   3.527  15.475  1.2966  1.9992  1.3487
15117TIP3   OH266765   1.218   5.082   5.167  0.7386  0.2699  0.1137
15117TIP3    H166766   1.199   5.058   5.258  0.1402 -0.9918 -0.3308
15117TIP3    H266767   1.131   5.088   5.126  0.9626  1.5284 -0.2286
15118TIP3   OH266768   5.919   1.432   6.014  0.2263  0.2797  0.2295
15118TIP3    H166769   5.927   1.525   5.991 -0.9155  0.3387  0.0067
15118TIP3    H266770   5.915   1.431   6.110 -1.6762  0.6683  0.1971
15119TIP3   OH266771   1.050   2.938  13.402 -0.4552 -0.0317  0.1286
15119TIP3    H166772   0.966   2.960  13.441 -1.1332 -1.4656 -0.4329
15119TIP3    H266773   1.110   3.007  13.431 -1.7237  0.7836  0.8693
15120TIP3   OH266774   2.015   5.452   4.536 -0.4160  0.3047 -0.6282
15120TIP3    H166775   1.969   5.491   4.610 -0.5678 -1.6160  0.3637
15120TIP3    H266776   1.968   5.482   4.459 -3.7212 -1.8970  0.3376
15121TIP3   OH266777   1.710   0.824   1.971 -0.0561 -0.0579 -0.3295
15121TIP3    H166778   1.782   0.788   2.021 -1.2595 -1.1110  0.7050
15121TIP3    H266779   1.715   0.919   1.987 -0.1334 -0.3136  1.4623
15122TIP3   OH266780   2.504   1.441   4.742 -0.5286 -0.4869  0.0896
15122TIP3    H166781   2.575   1.457   4.805 -1.2396  0.6473  0.6250
15122TIP3    H266782   2.473   1.353   4.764  0.4871 -0.8646  0.0651
15123TIP3   OH266783   2.468   6.086  10.478 -0.5184  0.6935  0.0094
15123TIP3    H166784   2.509   6.031  10.545  1.1227  0.1394 -1.3724
15123TIP3    H266785   2.442   6.165  10.525 -1.4364 -0.5665  1.7206
15124TIP3   OH266786   6.058   2.840   2.213 -0.5949  0.0258  0.4875
15124TIP3    H166787   6.133   2.895   2.194 -0.5540 -0.2900 -0.2967
15124TIP3    H266788   5.989   2.872   2.155 -0.3800 -1.1393 -0.4658
15125TIP3   OH266789   0.013   4.230  10.938 -0.0346  0.1996 -0.0532
15125TIP3    H166790   0.007   4.148  10.986  2.9468  0.3130  0.7386
15125TIP3    H266791  -0.051   4.222  10.867 -3.4620 -0.6645  2.8241
15126TIP3   OH266792   6.132   0.043  11.544 -0.6112 -0.5487  0.1066
15126TIP3    H166793   6.077   0.076  11.473  1.0536  0.7281 -0.6550
15126TIP3    H266794   6.073  -0.010  11.597 -2.7111  1.2035 -0.3325
15127TIP3   OH266795   1.039   3.498  13.714 -0.5418 -0.9608  0.1066
15127TIP3    H166796   1.123   3.483  13.758  0.9726  0.9482 -1.8805
15127TIP3    H266797   0.983   3.537  13.781  0.6911 -0.8535  1.1063
15128TIP3   OH266798   6.668   0.574   6.549 -0.4636 -0.4294 -0.2479
15128TIP3    H166799   6.616   0.532   6.481  1.3676 -2.0969 -0.6996
15128TIP3    H266800   6.697   0.502   6.605  1.8390  0.3192 -0.3726
15129TIP3   OH266801   6.215   6.336  16.190 -0.0770  0.4229 -0.1412
15129TIP3    H166802   6.245   6.427  16.190 -0.7107  0.6730 -1.7223
15129TIP3    H266803   6.274   6.291  16.250  0.2104  1.8809  0.7127
15130TIP3   OH266804   3.592   5.964  12.490 -0.6275  0.0468  0.5832
15130TIP3    H166805   3.680   5.994  12.512 -0.9673 -0.2048  2.4588
15130TIP3    H266806   3.539   6.044  12.491 -0.3817  0.2627 -0.9735
15131TIP3   OH266807   4.321   6.695   2.022  0.2261 -0.0186  0.2556
15131TIP3    H166808   4.259   6.637   2.066  1.7054 -1.3021  0.7348
15131TIP3    H266809   4.346   6.649   1.942  1.7323 -0.2789  0.8429
15132TIP3   OH266810   6.580   4.986   3.277  0.1301 -0.4783  0.3667
15132TIP3    H166811   6.549   5.076   3.288  0.9894  0.0776 -1.4303
15132TIP3    H266812   6.525   4.935   3.336  0.2832  1.3290  2.2238
15133TIP3   OH266813   4.193   5.520   5.858  0.0117 -0.1913  0.2188
15133TIP3    H166814   4.117   5.561   5.816 -0.0832  0.5169  1.0606
15133TIP3    H266815   4.258   5.591   5.865 -0.3309  0.0001  2.1264
15134TIP3   OH266816   4.341   0.465  15.566  0.2797  0.1328  0.8155
15134TIP3    H166817   4.292   0.397  15.612  1.2011 -0.7328  0.5490
15134TIP3    H266818   4.309   0.460  15.476 -0.7980  1.1557  1.1029
15135TIP3   OH266819   1.086   0.427   4.228 -0.4011 -0.4646 -0.8546
15135TIP3    H166820   1.037   0.507   4.207 -0.0999 -0.3572 -1.1461
15135TIP3    H266821   1.047   0.360   4.172 -0.0340 -0.3187 -1.2929
15136TIP3   OH266822   6.499   6.298  14.333  0.3562  0.0348 -0.2507
15136TIP3    H166823   6.490   6.393  14.320  1.2968 -0.1264 -2.6617
15136TIP3    H266824   6.581   6.288  14.381  0.2062  0.4356  0.0993
15137TIP3   OH266825   6.502   0.738   1.174 -0.1664  0.2640  0.2413
15137TIP3    H166826   6.591   0.704   1.179  0.3050  1.1129 -1.5441
15137TIP3    H266827   6.472   0.714   1.086 -1.6694  0.0915  0.7728
15138TIP3   OH266828   2.636   6.027  11.760  0.4237  0.3139  0.4601
15138TIP3    H166829   2.712   6.054  11.709  0.3909  0.8910  0.7034
15138TIP3    H266830   2.562   6.069  11.716  0.0655 -1.3080 -0.5622
15139TIP3   OH266831   5.642   0.640   5.331  0.3921  0.3324 -0.5799
15139TIP3    H166832   5.565   0.614   5.382  1.3028 -0.4476  0.4585
15139TIP3    H266833   5.607   0.692   5.258 -0.9462  1.6103  0.9086
15140TIP3   OH266834   0.820   2.840   2.291 -0.0519 -0.1778  0.2316
15140TIP3    H166835   0.751   2.782   2.324 -1.7442  1.0687 -0.9910
15140TIP3    H266836   0.804   2.846   2.197  0.3614  1.8969  0.2564
15141TIP3   OH266837   5.382   3.730   3.368  0.4502 -0.1930 -0.1649
15141TIP3    H166838   5.476   3.749   3.368  0.8370 -1.9078 -0.2504
15141TIP3    H266839   5.362   3.709   3.276  0.1599 -0.5996 -0.0113
15142TIP3   OH266840   6.287   4.035   0.804 -0.2172 -0.0782  0.2369
15142TIP3    H166841   6.193   4.036   0.825 -0.3302  0.6502 -0.2750
15142TIP3    H266842   6.329   4.075   0.879 -0.4516  0.8470 -0.1103
15143TIP3   OH266843   5.849   0.725   3.829 -0.3277 -0.2182  0.3320
15143TIP3    H166844   5.918   0.766   3.778 -0.8655 -1.3869 -1.4188
15143TIP3    H266845   5.807   0.797   3.876 -1.0310  1.2380 -2.3358
15144TIP3   OH266846   3.145   1.771  16.288  0.1386  0.1441  0.1637
15144TIP3    H166847   3.165   1.859  16.320  1.5388  0.1159 -0.5119
15144TIP3    H266848   3.187   1.713  16.352  0.7464  0.0330 -0.3207
15145TIP3   OH266849   5.147   3.142   3.240 -0.2288 -0.0586 -0.5733
15145TIP3    H166850   5.127   3.141   3.334 -2.1416 -0.7645 -0.9316
15145TIP3    H266851   5.097   3.217   3.207  1.5020  1.0055 -0.8490
15146TIP3   OH266852   1.477   3.243   1.044  0.0138 -0.1017 -0.4122
15146TIP3    H166853   1.424   3.252   1.123 -0.1353 -0.5374 -0.4582
15146TIP3    H266854   1.426   3.184   0.988  0.9195 -1.2019 -0.1186
15147TIP3   OH266855   3.401   3.184  14.713 -0.1148 -0.8046  0.0755
15147TIP3    H166856   3.396   3.146  14.800  1.7441 -0.3629  0.4166
15147TIP3    H266857   3.396   3.279  14.727  0.2818 -0.7263 -0.2813
15148TIP3   OH266858   4.445   0.464   5.574  0.4674 -0.2984 -0.3078
15148TIP3    H166859   4.492   0.394   5.528  0.8418 -0.0448 -0.3084
15148TIP3    H266860   4.364   0.422   5.604  2.2183 -1.7477  2.8232
15149TIP3   OH266861   4.698   5.660   2.649  0.0814  0.5502 -0.4113
15149TIP3    H166862   4.790   5.655   2.623  0.1708 -0.3112  0.0178
15149TIP3    H266863   4.700   5.692   2.739  0.2411 -2.7120  0.8870
15150TIP3   OH266864   4.446   1.666   5.750  0.3013  0.0372 -0.5958
15150TIP3    H166865   4.392   1.667   5.829 -1.0428 -1.3835 -1.4466
15150TIP3    H266866   4.398   1.721   5.688 -0.3924 -1.4633 -1.4517
15151TIP3   OH266867   1.054   6.130  14.561  0.4442 -1.1831  0.1519
15151TIP3    H166868   0.962   6.136  14.588 -0.2792 -3.7248 -1.4561
15151TIP3    H266869   1.073   6.036  14.560  3.6562 -0.6991  2.1139
15152TIP3   OH266870   2.013   5.568  15.979 -0.5275 -0.8466 -0.0393
15152TIP3    H166871   2.103   5.589  15.956 -0.5320 -1.7417 -0.9671
15152TIP3    H266872   1.986   5.637  16.039 -0.1163  0.9710 -1.8482
15153TIP3   OH266873   0.576   1.438   2.371  0.0846 -0.6697 -0.1276
15153TIP3    H166874   0.551   1.527   2.394  0.1635 -0.0563 -2.2364
15153TIP3    H266875   0.667   1.445   2.341  0.1912 -1.4998 -0.0145
15154TIP3   OH266876   3.111   2.834   0.210 -0.1316  0.2050 -0.2947
15154TIP3    H166877   3.120   2.911   0.154 -3.3828  0.8546 -0.1481
15154TIP3    H266878   3.124   2.868   0.298 -1.6735  0.7225 -0.2188
15155TIP3   OH266879   5.627   6.174   5.353  0.1115  0.0857 -0.3607
15155TIP3    H166880   5.680   6.240   5.309 -1.3161  1.7436  0.2960
15155TIP3    H266881   5.541   6.180   5.311 -1.1004  1.2380  2.0667
15156TIP3   OH266882   0.987   1.536   0.424 -0.0331  0.3368 -0.6121
15156TIP3    H166883   0.935   1.608   0.388 -0.4398 -0.1911 -1.1006
15156TIP3    H266884   0.991   1.471   0.354  0.3326 -0.1193 -0.1812
15157TIP3   OH266885   2.274   1.473   2.559 -0.0136  0.1427 -0.3699
15157TIP3    H166886   2.289   1.447   2.469 -0.4799  0.9317 -0.6842
15157TIP3    H266887   2.210   1.410   2.592 -0.3019  0.2278 -0.7724
15158TIP3   OH266888   2.952   4.705  15.268 -0.4464 -0.5485 -0.4788
15158TIP3    H166889   2.870   4.661  15.246 -0.1016 -0.9460 -0.9957
15158TIP3    H266890   2.951   4.711  15.363 -0.6202 -1.4574 -0.4112
15159TIP3   OH266891   1.317   1.889  13.156  0.1333 -0.2836  0.2157
15159TIP3    H166892   1.238   1.915  13.109  0.6145 -0.1377 -0.5310
15159TIP3    H266893   1.305   1.796  13.174 -0.4483 -0.1353  0.5871
15160TIP3   OH266894   5.180   0.100  16.634 -0.1694  0.2997  0.1662
15160TIP3    H166895   5.231   0.169  16.677  0.1572 -0.9374  1.8436
15160TIP3    H266896   5.089   0.122  16.656 -0.2784  1.5375 -1.3780
15161TIP3   OH266897   0.802   2.463   4.436 -0.3951  0.4368 -0.4864
15161TIP3    H166898   0.873   2.462   4.500 -1.8291 -0.7360  1.1765
15161TIP3    H266899   0.797   2.554   4.407  0.5719  0.9169  0.7784
15162TIP3   OH266900   6.309   1.486  13.344 -0.3621  0.3688  0.1934
15162TIP3    H166901   6.317   1.402  13.389 -0.0845  1.1333  1.6100
15162TIP3    H266902   6.372   1.481  13.272  0.9787  0.0424  1.3484
15163TIP3   OH266903   4.664   1.523  16.502 -0.2032  0.0023 -0.0016
15163TIP3    H166904   4.630   1.533  16.413  0.3089 -1.6363 -0.4081
15163TIP3    H266905   4.677   1.613  16.533 -0.7796  0.5974 -1.4195
15164TIP3   OH266906   5.912   4.950  12.633 -0.3744  0.0136  0.3487
15164TIP3    H166907   5.825   4.962  12.594 -0.6425 -1.1942  0.5360
15164TIP3    H266908   5.962   5.026  12.603 -1.3387  0.4616 -0.1908
15165TIP3   OH266909   5.376   4.230  17.132  0.0216 -0.9088  0.2586
15165TIP3    H166910   5.375   4.289  17.057  0.8124 -0.6300  0.4677
15165TIP3    H266911   5.336   4.281  17.203  0.7747 -0.5786  0.4597
15166TIP3   OH266912   5.509   4.200  14.043 -0.3961  0.3689  0.0627
15166TIP3    H166913   5.594   4.168  14.074  0.5008  1.3645 -1.2249
15166TIP3    H266914   5.448   4.129  14.061  1.5366 -2.3944 -3.0050
15167TIP3   OH266915   6.449   2.333  14.919  0.5892 -0.4907 -0.0953
15167TIP3    H166916   6.376   2.300  14.866  1.9995  0.0051 -2.4918
15167TIP3    H266917   6.411   2.406  14.969 -0.6043 -0.3020 -1.2106
15168TIP3   OH266918   4.105   5.938   3.894 -0.2741  0.7499  0.5467
15168TIP3    H166919   4.058   5.940   3.978  3.4535  0.2634  2.8704
15168TIP3    H266920   4.123   6.030   3.875 -1.9618  0.9363 -0.3353
15169TIP3   OH266921   2.843   1.056   4.419 -0.4683 -0.6930 -0.1544
15169TIP3    H166922   2.828   1.115   4.493 -1.5338  0.2839 -1.1018
15169TIP3    H266923   2.812   0.971   4.449  0.8631 -0.7535  1.1566
15170TIP3   OH266924   0.947   4.700   4.245  0.3819  0.0327 -0.1628
15170TIP3    H166925   0.938   4.754   4.166 -2.2186  0.4548  0.3542
15170TIP3    H266926   0.983   4.617   4.212  1.4835  0.9637 -1.4232
15171TIP3   OH266927   4.314   1.791   4.374  0.3487  0.2829 -0.2543
15171TIP3    H166928   4.353   1.835   4.298  1.5348 -2.6362 -1.4816
15171TIP3    H266929   4.387   1.783   4.436  0.9307 -2.0529 -1.1110
15172TIP3   OH266930   1.976   1.060   5.913  0.7493 -0.4989  0.5949
15172TIP3    H166931   1.926   1.092   5.988 -2.1545 -0.6538 -1.1376
15172TIP3    H266932   1.939   1.106   5.838  0.4746 -3.5482 -1.2897
15173TIP3   OH266933   1.400   4.112  13.544 -0.6675 -0.1756 -0.1042
15173TIP3    H166934   1.463   4.092  13.474 -0.4620 -1.5156  0.4424
15173TIP3    H266935   1.451   4.162  13.608 -1.0985  1.9804 -1.3092
15174TIP3   OH266936   5.040   2.226   5.393 -0.5942 -0.0103 -0.2687
15174TIP3    H166937   5.111   2.222   5.328 -1.7479 -3.2734 -1.5724
15174TIP3    H266938   4.971   2.276   5.349 -1.2681 -1.9735 -1.5827
15175TIP3   OH266939   3.790   4.016  14.181  0.3099 -0.2100 -0.1587
15175TIP3    H166940   3.864   3.966  14.148  0.9984  1.2620 -0.9155
15175TIP3    H266941   3.801   4.103  14.144 -0.2361  0.8471  2.0334
15176TIP3   OH266942   0.044   4.257   5.803 -0.1655 -0.0906 -0.3762
15176TIP3    H166943   0.048   4.333   5.860  0.7737  0.2268 -0.8595
15176TIP3    H266944   0.133   4.223   5.801 -0.6694 -1.5513  0.2735
15177TIP3   OH266945   5.660   5.664  10.358  0.0925  0.1981  0.6444
15177TIP3    H166946   5.724   5.734  10.359 -1.1482  1.3738  0.7085
15177TIP3    H266947   5.602   5.683  10.432 -0.1243 -1.0321  0.8113
15178TIP3   OH266948   5.669   5.190  17.087 -0.5613  0.1712  0.0844
15178TIP3    H166949   5.595   5.192  17.148  0.1979  0.1412  1.0293
15178TIP3    H266950   5.628   5.189  17.000 -1.7106 -2.0055  0.5893
15179TIP3   OH266951   0.643   3.938  14.583 -0.4031 -0.2753  0.2926
15179TIP3    H166952   0.574   3.873  14.574 -0.4481 -0.0670 -1.1422
15179TIP3    H266953   0.703   3.900  14.648 -0.1767 -1.9906 -0.8457
15180TIP3   OH266954   4.279   0.785  14.344  0.1016  0.0139 -0.2211
15180TIP3    H166955   4.239   0.771  14.259  0.8140  0.8047 -0.7127
15180TIP3    H266956   4.218   0.841  14.391 -0.6309 -1.0124  0.0671
15181TIP3   OH266957   0.530   5.908   4.147 -0.0785  0.6197  0.0254
15181TIP3    H166958   0.540   5.856   4.068 -2.9526 -1.1035  0.6762
15181TIP3    H266959   0.553   5.848   4.218  0.8051  1.6273  0.6309
15182TIP3   OH266960   4.822   1.258   6.272 -0.2501  0.2618 -0.2833
15182TIP3    H166961   4.822   1.295   6.360 -1.0678 -1.7540  0.6237
15182TIP3    H266962   4.895   1.196   6.271  1.1350  1.8147 -1.7893
15183TIP3   OH266963   0.794   2.170  13.282  0.5158 -0.9926  0.2325
15183TIP3    H166964   0.882   2.140  13.259 -0.1018 -2.9669  0.2123
15183TIP3    H266965   0.753   2.188  13.197  0.3534 -1.8158  0.1254
15184TIP3   OH266966   1.626   0.864   3.774 -0.5880  0.5324 -0.0613
15184TIP3    H166967   1.704   0.898   3.731 -0.0733  1.8136  1.7521
15184TIP3    H266968   1.563   0.937   3.770 -1.0340  0.1614  0.1026
15185TIP3   OH266969   4.707   4.475   4.483  0.5247  0.4220 -0.5525
15185TIP3    H166970   4.787   4.445   4.440  1.5909  1.3023  0.7358
15185TIP3    H266971   4.730   4.559   4.522 -1.0330  0.6992 -0.1415
15186TIP3   OH266972   4.277   1.191   2.889  0.4321  0.3223  0.1949
15186TIP3    H166973   4.245   1.195   2.799 -2.1389  0.8249  1.0285
15186TIP3    H266974   4.339   1.263   2.897  1.5326 -0.3975 -1.4141
15187TIP3   OH266975   0.480   5.492  12.999  0.3712  0.2060 -0.0201
15187TIP3    H166976   0.526   5.518  12.919  1.7725 -0.7083  0.4474
15187TIP3    H266977   0.436   5.571  13.028 -1.7020  0.1533 -2.6626
15188TIP3   OH266978   5.048   5.448  16.412 -0.0866  0.5669  0.2288
15188TIP3    H166979   4.976   5.396  16.376 -0.0290  1.1377 -0.7266
15188TIP3    H266980   5.116   5.445  16.346  0.5236  0.5743  0.8465
15189TIP3   OH266981   4.444   5.381   5.851 -0.5308  0.3312  0.1825
15189TIP3    H166982   4.360   5.408   5.888 -2.0501 -2.2891 -1.0499
15189TIP3    H266983   4.463   5.297   5.893  0.9174  0.3404 -0.3782
15190TIP3   OH266984   2.029   5.242   0.966 -0.4664 -0.3164  0.0030
15190TIP3    H166985   1.956   5.186   0.993  0.1841 -2.3472 -2.0562
15190TIP3    H266986   2.107   5.189   0.986  0.3626  1.0620  0.5276
15191TIP3   OH266987   6.732   3.621  15.583  0.1561 -0.2729  1.2632
15191TIP3    H166988   6.734   3.617  15.487  0.2553  3.2544  1.0135
15191TIP3    H266989   6.817   3.586  15.610 -0.3147 -2.4211  0.2156
15192TIP3   OH266990   0.130   5.024   5.106  0.3700 -0.7390 -0.8807
15192TIP3    H166991   0.120   5.098   5.166 -0.2221 -2.3273  1.0826
15192TIP3    H266992   0.042   5.006   5.075  0.6679  0.0524 -2.2878
15193TIP3   OH266993   3.975   1.478  13.247 -0.1602  0.0329 -0.4642
15193TIP3    H166994   4.033   1.419  13.296  0.4263  0.9998  0.0341
15193TIP3    H266995   3.958   1.432  13.165 -1.4197 -1.7845  0.7228
15194TIP3   OH266996   3.877   4.764  14.894 -0.0944  0.2354  0.1507
15194TIP3    H166997   3.895   4.751  14.987 -0.9022  0.0944  0.2972
15194TIP3    H266998   3.951   4.725  14.849 -0.3514 -0.9414  0.6988
15195TIP3   OH266999   0.253   0.082  12.516  0.3117 -0.0249 -0.2729
15195TIP3    H167000   0.324   0.019  12.504 -0.9224 -1.2306 -1.7348
15195TIP3    H267001   0.192   0.063  12.445 -1.3011  1.1956  0.7038
15196TIP3   OH267002   5.643   5.807  15.262 -0.7156 -0.1304 -0.2897
15196TIP3    H167003   5.691   5.739  15.309  0.5010 -0.4178 -1.8629
15196TIP3    H267004   5.706   5.876  15.246 -1.2304  0.1776 -1.0565
15197TIP3   OH267005   5.411   6.137  12.035 -0.0295 -0.4553  0.5768
15197TIP3    H167006   5.374   6.200  12.097 -1.3845 -0.5107 -0.1424
15197TIP3    H267007   5.358   6.148  11.955  1.0561 -1.0537 -0.2552
15198TIP3   OH267008   4.904   3.833   6.191  0.6787 -0.0385 -0.9251
15198TIP3    H167009   4.818   3.833   6.149 -0.0106  2.5123  0.2663
15198TIP3    H267010   4.910   3.919   6.234  3.6862 -0.2611 -0.6593
15199TIP3   OH267011   2.892   1.518  14.091  0.3713  0.1262  0.0378
15199TIP3    H167012   2.961   1.455  14.068  0.6751 -0.4235  2.2137
15199TIP3    H267013   2.812   1.480  14.056  0.8539 -0.3996 -0.5173
15200TIP3   OH267014   4.373   4.639   1.247 -0.1637  0.0984  0.6199
15200TIP3    H167015   4.405   4.721   1.209  1.4009 -1.1706 -0.9120
15200TIP3    H267016   4.279   4.653   1.257  0.2781  2.6482  1.9210
15201TIP3   OH267017   6.271   1.023   1.596 -0.9538  0.1998  0.4437
15201TIP3    H167018   6.193   0.970   1.581  0.4807 -1.5521 -1.4101
15201TIP3    H267019   6.341   0.976   1.551  1.1363  1.8570  1.7519
15202TIP3   OH267020   1.339   0.174   4.300  0.8463  0.4108  0.5433
15202TIP3    H167021   1.325   0.168   4.394  1.7989 -0.7968  0.6424
15202TIP3    H267022   1.285   0.105   4.263  0.6678  0.7166  0.2289
15203TIP3   OH267023   3.889   2.045   5.129 -0.1876  0.6006  0.2685
15203TIP3    H167024   3.959   2.048   5.064  0.6017  0.0232  1.0718
15203TIP3    H267025   3.818   1.996   5.087  0.2601  0.3594 -0.2062
15204TIP3   OH267026   2.700   2.310  15.964 -0.6011 -0.0838  0.0499
15204TIP3    H167027   2.791   2.336  15.951 -0.2006 -1.0493  0.7471
15204TIP3    H267028   2.692   2.226  15.920 -0.7571 -0.6644  1.1312
15205TIP3   OH267029   3.380   1.411   6.132  0.2185  0.0178  0.0578
15205TIP3    H167030   3.382   1.333   6.075 -0.8991 -0.5888  0.8206
15205TIP3    H267031   3.471   1.423   6.158  1.0818  1.2159 -3.0090
15206TIP3   OH267032   2.958   6.303  15.719 -0.1331  0.3174  0.6042
15206TIP3    H167033   2.987   6.247  15.647  1.0690  1.1566  0.4108
15206TIP3    H267034   2.878   6.344  15.686 -1.2944 -1.5761  0.9189
15207TIP3   OH267035   2.884   4.214   2.607  0.0883 -0.1858  0.5204
15207TIP3    H167036   2.851   4.293   2.651  1.2869 -0.2021  1.5152
15207TIP3    H267037   2.900   4.152   2.678 -0.9322 -1.4033 -0.2573
15208TIP3   OH267038   6.271   5.711   4.922  0.1308 -0.2253 -0.4952
15208TIP3    H167039   6.341   5.775   4.913 -0.1721  0.6696  2.4043
15208TIP3    H267040   6.315   5.626   4.915  0.9913  0.2849 -1.5974
15209TIP3   OH267041   0.805   3.330   5.134 -0.2062  0.0890 -0.3003
15209TIP3    H167042   0.831   3.255   5.187  0.8826  0.9948  0.4982
15209TIP3    H267043   0.803   3.403   5.195 -2.8386  0.4664 -0.7254
15210TIP3   OH267044   3.184   2.779  16.354 -0.5007 -0.5949  0.1345
15210TIP3    H167045   3.161   2.760  16.445  0.1778  0.4934  0.5531
15210TIP3    H267046   3.104   2.816  16.316 -0.5120 -0.1795  0.5565
15211TIP3   OH267047   1.898   5.646  14.202  0.0263 -0.4110 -0.2770
15211TIP3    H167048   1.947   5.723  14.176  0.3835 -0.4411  0.2920
15211TIP3    H267049   1.958   5.596  14.257 -0.1057 -1.2272 -0.8402
15212TIP3   OH267050   6.651   3.939   3.463  0.8133  0.0087 -0.1714
15212TIP3    H167051   6.646   4.017   3.408 -0.2618  0.4170  0.4797
15212TIP3    H267052   6.672   3.868   3.403 -0.6838  0.3853 -1.1886
15213TIP3   OH267053   6.103   6.637   2.207  0.2904  0.4171  0.3833
15213TIP3    H167054   6.109   6.732   2.212 -0.1476  0.4423  0.4539
15213TIP3    H267055   6.149   6.606   2.285  0.8152  0.5573  0.1298
15214TIP3   OH267056   6.024   4.539   6.395  0.5990 -0.2502 -0.1618
15214TIP3    H167057   5.932   4.515   6.398  0.6515 -0.4084  1.6747
15214TIP3    H267058   6.024   4.630   6.364 -0.4027  0.4779  1.7584
15215TIP3   OH267059   3.400   5.536   3.734 -0.1724 -0.1580  0.1661
15215TIP3    H167060   3.386   5.443   3.747  0.3559 -0.1949  0.4837
15215TIP3    H267061   3.479   5.556   3.784  0.4463  0.1991 -0.9112
15216TIP3   OH267062   0.180   3.596   2.338 -0.1738  0.3675  0.1511
15216TIP3    H167063   0.191   3.537   2.263  0.0621  1.5061 -0.7318
15216TIP3    H267064   0.270   3.615   2.366 -0.2096  1.0723 -0.1910
15217TIP3   OH267065   2.127   5.871   4.130 -0.1016 -0.7227 -0.3703
15217TIP3    H167066   2.069   5.814   4.080 -0.4431 -1.2032  0.5363
15217TIP3    H267067   2.067   5.921   4.186  0.3182 -0.7633  0.1148
15218TIP3   OH267068   4.923   1.837   4.458  0.2796 -0.4988 -0.2470
15218TIP3    H167069   4.975   1.780   4.401  0.8457  0.0860 -0.3326
15218TIP3    H267070   4.916   1.919   4.409 -0.0817 -0.3263  0.0943
15219TIP3   OH267071   1.108   3.429  11.176  0.3238 -0.0418 -0.6385
15219TIP3    H167072   1.042   3.365  11.204  0.4729  0.2283  0.3389
15219TIP3    H267073   1.158   3.383  11.108  0.0661 -0.7697 -0.3450
15220TIP3   OH267074   2.344   0.645  16.786 -0.4836 -0.2992 -0.0916
15220TIP3    H167075   2.282   0.659  16.858 -0.4621  1.6763 -0.3844
15220TIP3    H267076   2.427   0.624  16.829 -1.3838 -3.5804  0.2945
15221TIP3   OH267077   0.048   1.197   5.809 -0.1195  0.2676 -0.2671
15221TIP3    H167078   0.142   1.190   5.827 -0.1925  1.5119  0.8374
15221TIP3    H267079   0.011   1.226   5.893 -1.0564  2.7940 -1.4624
15222TIP3   OH267080   3.707   2.300  14.834 -0.3849  0.1207  0.3337
15222TIP3    H167081   3.753   2.262  14.909  0.6675 -1.7392 -1.1728
15222TIP3    H267082   3.776   2.342  14.783 -0.9379  0.4666 -0.1389
15223TIP3   OH267083   5.899   6.059   3.762 -0.2044 -0.5307  0.0411
15223TIP3    H167084   5.918   6.095   3.676  0.8006 -1.0260  0.0392
15223TIP3    H267085   5.844   6.124   3.804  1.5841  1.0731  0.0512
15224TIP3   OH267086   3.423   1.312  12.727 -0.2178  0.0591 -0.3594
15224TIP3    H167087   3.481   1.378  12.764 -0.8621  0.6842 -0.4330
15224TIP3    H267088   3.385   1.354  12.649 -0.4430 -0.4889 -0.5543
15225TIP3   OH267089   6.604   0.122   0.371  0.3612 -0.4268 -0.3238
15225TIP3    H167090   6.537   0.187   0.392 -0.6517 -0.6677 -2.5251
15225TIP3    H267091   6.599   0.059   0.443 -0.3910  0.5700  0.5469
15226TIP3   OH267092   6.192   0.866  11.586 -0.6244 -0.1165  0.3072
15226TIP3    H167093   6.282   0.892  11.567 -0.4329  0.6657  2.0325
15226TIP3    H267094   6.201   0.795  11.649 -1.1762  0.7225  1.3759
15227TIP3   OH267095   4.028   0.556   4.839 -0.0933  0.6329 -0.2739
15227TIP3    H167096   3.963   0.515   4.895 -0.4617  1.6183  0.0521
15227TIP3    H267097   4.010   0.650   4.848  3.3111  1.2163  2.2614
15228TIP3   OH267098   2.542   6.720  12.176 -0.1434 -0.1893 -0.2016
15228TIP3    H167099   2.521   6.768  12.095 -0.5421 -1.7673 -1.0721
15228TIP3    H267100   2.487   6.761  12.243 -2.3809 -1.0034 -1.4356
15229TIP3   OH267101   5.585   2.528  11.931  0.1015  0.6377  0.2689
15229TIP3    H167102   5.662   2.472  11.922 -0.3401  0.1888 -0.9247
15229TIP3    H267103   5.519   2.486  11.876 -0.7371  1.4835  0.6091
15230TIP3   OH267104   5.929   5.803  13.881 -0.0163 -0.1906 -0.1034
15230TIP3    H167105   6.017   5.790  13.914  0.6207 -0.6066 -1.8430
15230TIP3    H267106   5.900   5.886  13.920  0.1267 -1.2814  2.4674
15231TIP3   OH267107   4.701   0.179   1.470 -0.4051  0.2199 -0.4107
15231TIP3    H167108   4.654   0.262   1.465 -0.4966  0.1552 -0.6527
15231TIP3    H267109   4.756   0.187   1.548  0.6778  1.0781 -1.2372
15232TIP3   OH267110   3.918   0.137  11.033  0.4550  0.5642 -0.2413
15232TIP3    H167111   3.865   0.064  11.002 -1.6816  2.4217 -1.1760
15232TIP3    H267112   4.006   0.118  11.000  0.6663 -2.8513  1.7623
15233TIP3   OH267113   3.642   3.045  16.679  0.4338 -0.6918 -0.0870
15233TIP3    H167114   3.650   3.003  16.765  1.1715 -0.2613  0.0671
15233TIP3    H267115   3.572   3.109  16.690 -2.1487 -3.1675 -0.8823
15234TIP3   OH267116   5.258   3.574  11.455  0.0390 -0.9905  0.2649
15234TIP3    H167117   5.255   3.483  11.485  1.8446 -0.7208  1.3711
15234TIP3    H267118   5.321   3.573  11.382  0.0370 -0.6225  0.2592
15235TIP3   OH267119   5.377   0.759  14.512  0.0655 -0.5342 -0.3821
15235TIP3    H167120   5.461   0.716  14.530 -0.1315  0.0220  2.4038
15235TIP3    H267121   5.349   0.793  14.597 -1.9914  1.1385 -1.6205
15236TIP3   OH267122   4.865   3.271  11.195 -0.2345 -0.2815 -0.1630
15236TIP3    H167123   4.900   3.263  11.106 -1.3613  1.2056 -0.7846
15236TIP3    H267124   4.780   3.225  11.191 -0.1281 -0.5213  0.2510
15237TIP3   OH267125   4.290   2.062  10.825 -0.2178  0.0374 -0.6656
15237TIP3    H167126   4.233   2.026  10.893  0.1459  0.2473 -0.2425
15237TIP3    H267127   4.373   2.015  10.836 -0.1161  0.1658 -0.8804
15238TIP3   OH267128   1.761   6.259  12.112 -0.1288 -0.1980  0.2521
15238TIP3    H167129   1.753   6.328  12.046 -3.1447 -0.9500 -0.3209
15238TIP3    H267130   1.769   6.178  12.061  3.2390 -0.4415  0.9085
15239TIP3   OH267131   1.219   6.434   3.970 -0.0177 -0.3020  0.0074
15239TIP3    H167132   1.170   6.507   4.008  0.4026 -0.8312  1.6242
15239TIP3    H267133   1.248   6.467   3.885 -1.4039  0.7457 -0.0907
15240TIP3   OH267134   0.798   1.733  15.768  0.0482 -0.0505  0.4586
15240TIP3    H167135   0.757   1.774  15.691 -0.1400  1.8537  1.5104
15240TIP3    H267136   0.773   1.641  15.762 -0.4687  0.1582 -1.4210
15241TIP3   OH267137   6.338   0.707  15.777  0.2442 -0.1046 -0.0501
15241TIP3    H167138   6.399   0.642  15.743  0.8261 -0.5380  1.7352
15241TIP3    H267139   6.392   0.783  15.798  0.0387 -0.1329  0.6258
15242TIP3   OH267140   3.713   4.575   4.072  0.0809  0.1602 -0.0071
15242TIP3    H167141   3.800   4.535   4.060  0.4142  0.5036  1.1496
15242TIP3    H267142   3.731   4.656   4.120 -0.8141  0.6319 -0.4502
15243TIP3   OH267143   1.288   0.346   1.853 -0.2351 -0.1412 -0.3658
15243TIP3    H167144   1.199   0.314   1.838 -0.5624 -0.4387  1.8351
15243TIP3    H267145   1.295   0.425   1.799 -1.5542 -0.5356 -1.1507
15244TIP3   OH267146   2.517   3.266   5.439  0.0172  0.0579  0.1016
15244TIP3    H167147   2.564   3.232   5.363 -3.1587 -0.4237 -1.8252
15244TIP3    H267148   2.479   3.349   5.409  0.1921  0.7856  1.7841
15245TIP3   OH267149   1.440   4.382  16.386  0.1373 -0.1553  0.2067
15245TIP3    H167150   1.433   4.320  16.314  0.7617 -2.4672  1.9939
15245TIP3    H267151   1.526   4.421  16.377 -0.3012  0.5631 -1.0038
15246TIP3   OH267152   4.262   2.035   0.379  0.3602  0.1054  0.4654
15246TIP3    H167153   4.296   2.105   0.435  2.4625 -0.8751  0.5285
15246TIP3    H267154   4.305   2.049   0.295 -2.2720  1.1788 -0.8034
15247TIP3   OH267155   2.416   0.296  16.877  0.1005  0.2941  0.6463
15247TIP3    H167156   2.362   0.328  16.804 -0.0820  1.2374  1.1829
15247TIP3    H267157   2.353   0.266  16.942  0.2307  0.8169  1.0177
15248TIP3   OH267158   1.563   6.558  14.694 -0.1046  0.0171 -0.5580
15248TIP3    H167159   1.595   6.630  14.748  0.1877 -0.1093 -0.5634
15248TIP3    H267160   1.576   6.480  14.748 -1.1381  0.0464 -0.2347
15249TIP3   OH267161   6.529   6.221   4.898  0.9119 -0.2493  0.3448
15249TIP3    H167162   6.543   6.306   4.941  1.7225 -0.4480  0.4864
15249TIP3    H267163   6.516   6.160   4.971 -1.2748 -0.0147  0.2316
15250TIP3   OH267164   0.675   1.431  12.219  0.7007  0.0167 -0.2827
15250TIP3    H167165   0.584   1.460  12.224  0.6556 -0.3488  1.4744
15250TIP3    H267166   0.726   1.511  12.211  0.3640  0.3819  1.1065
15251TIP3   OH267167   0.749   5.365   3.397  0.0903  0.3394 -0.1629
15251TIP3    H167168   0.721   5.451   3.365 -0.1744 -0.2337 -1.5231
15251TIP3    H267169   0.668   5.320   3.419 -0.1552 -1.0227 -3.3396
15252TIP3   OH267170   2.977   4.255  14.636  0.2097  0.3645 -0.2472
15252TIP3    H167171   2.984   4.315  14.710  2.6487 -0.5885  0.4042
15252TIP3    H267172   3.055   4.273  14.583  0.4821 -1.4735 -0.5624
15253TIP3   OH267173   1.932   6.591  16.270 -0.3358  0.0088 -0.1284
15253TIP3    H167174   1.888   6.615  16.188  1.2126 -1.5247 -1.5065
15253TIP3    H267175   1.875   6.526  16.310 -0.6617  0.0917 -0.4494
15254TIP3   OH267176   0.227   3.049   1.323  0.0741 -0.0475  0.0802
15254TIP3    H167177   0.237   3.142   1.304 -0.1472  0.3825  1.9456
15254TIP3    H267178   0.209   3.009   1.237 -0.2116  1.6661 -0.6917
15255TIP3   OH267179   0.035   4.478   6.262  0.2855 -0.7410 -0.4139
15255TIP3    H167180  -0.007   4.562   6.281  0.9838 -0.1332 -1.4547
15255TIP3    H267181   0.111   4.475   6.321 -0.4823 -1.2800  0.5855
15256TIP3   OH267182   4.033   0.317  13.108  0.5856 -0.0304  0.2729
15256TIP3    H167183   4.082   0.340  13.187 -0.6568  0.4381  0.9521
15256TIP3    H267184   4.095   0.270  13.053  1.0526 -1.8655  2.2380
15257TIP3   OH267185   3.831   5.807   2.827  0.3923  0.1915  0.4751
15257TIP3    H167186   3.780   5.760   2.893  1.1703  0.1207  1.0319
15257TIP3    H267187   3.788   5.892   2.819 -0.3977 -0.2175  0.2167
15258TIP3   OH267188   3.024   6.708   4.500  1.1288 -0.2498  0.6085
15258TIP3    H167189   2.977   6.791   4.511  1.4949 -0.2530  2.5324
15258TIP3    H267190   3.058   6.688   4.587 -1.8924 -4.2419  1.1277
15259TIP3   OH267191   1.886   1.850   2.015  0.1127  0.5955 -0.2037
15259TIP3    H167192   1.916   1.941   2.015 -0.5753  0.9902 -3.8883
15259TIP3    H267193   1.790   1.857   2.015  0.0522 -0.0565 -0.9985
15260TIP3   OH267194   3.504   0.071  10.981  0.0809  0.3530 -0.0237
15260TIP3    H167195   3.563   0.056  10.908 -0.4284 -0.1119 -0.3413
15260TIP3    H267196   3.474   0.162  10.970 -0.0709  0.2540 -0.4510
15261TIP3   OH267197   3.668   5.613   2.984 -0.1929  0.1809 -0.3946
15261TIP3    H167198   3.622   5.539   3.023  0.1260  0.3355  0.2931
15261TIP3    H267199   3.650   5.686   3.044 -0.3388  0.6141 -0.9529
15262TIP3   OH267200   1.167   0.408   0.626  0.4918 -0.2961  0.5216
15262TIP3    H167201   1.138   0.432   0.537 -0.5662 -0.7188  0.7466
15262TIP3    H267202   1.218   0.484   0.655  2.2001 -0.7699 -1.0290
15263TIP3   OH267203   2.896   1.252  15.787 -0.1247  0.3033  0.4086
15263TIP3    H167204   2.948   1.268  15.865 -2.4941  0.3749  2.0587
15263TIP3    H267205   2.813   1.216  15.819 -0.2658 -2.1307 -2.2283
15264TIP3   OH267206   4.273   2.176  14.231 -0.0349 -0.4394 -0.0488
15264TIP3    H167207   4.202   2.223  14.275  0.0968  1.6378 -1.8519
15264TIP3    H267208   4.229   2.109  14.178 -0.7642  1.0952 -1.4660
15265TIP3   OH267209   5.527   6.389  16.164  0.2868 -0.3167  0.5071
15265TIP3    H167210   5.571   6.385  16.080 -0.6151  0.3955 -0.0247
15265TIP3    H267211   5.578   6.332  16.221  1.1828 -0.4391 -0.3903
15266TIP3   OH267212   6.566   1.581  12.611  0.2249 -0.1822 -0.6675
15266TIP3    H167213   6.554   1.556  12.702 -0.4516  0.4257 -0.5786
15266TIP3    H267214   6.635   1.648  12.613  1.3895 -1.3293 -0.8060
15267TIP3   OH267215   2.474   2.381  12.625  0.1819 -0.1725  0.0133
15267TIP3    H167216   2.470   2.290  12.595  1.0389 -0.2488  0.1088
15267TIP3    H267217   2.538   2.423  12.567 -1.0073  0.6582 -0.7499
15268TIP3   OH267218   5.522   0.815   2.004 -0.1131 -0.3550  0.0695
15268TIP3    H167219   5.490   0.900   1.974 -0.5838 -0.2799  0.7571
15268TIP3    H267220   5.449   0.778   2.053 -0.1437 -1.4431 -0.7614
15269TIP3   OH267221   1.511   5.030  14.008  0.7623  0.0593  0.0627
15269TIP3    H167222   1.568   5.064  14.077 -0.7139 -0.5688  1.6631
15269TIP3    H267223   1.566   4.967  13.961  1.8554  0.6240  0.5563
15270TIP3   OH267224   0.403   4.943  14.203 -0.6647  0.0351 -0.5580
15270TIP3    H167225   0.490   4.918  14.171 -0.2986 -2.0061  1.7494
15270TIP3    H267226   0.369   5.002  14.135  2.2510  0.4554 -1.8193
15271TIP3   OH267227   1.156   4.366  12.830  0.1887 -0.8170 -0.1521
15271TIP3    H167228   1.096   4.294  12.850  0.7944 -1.4143 -0.4425
15271TIP3    H267229   1.100   4.443  12.824 -0.2429 -0.8590  2.2745
15272TIP3   OH267230   0.696   3.293   1.228 -0.6781 -0.0417  0.1650
15272TIP3    H167231   0.709   3.231   1.156 -1.8593 -0.2295  0.0994
15272TIP3    H267232   0.752   3.368   1.205 -2.0758  0.5171 -1.7193
15273TIP3   OH267233   6.008   6.218  15.360  0.5163 -0.0024 -0.2538
15273TIP3    H167234   6.054   6.166  15.426 -2.3220 -4.1022 -1.1266
15273TIP3    H267235   6.067   6.220  15.285  1.3910 -0.4492  0.4033
15274TIP3   OH267236   4.650   5.396  12.061 -0.2026 -0.4863 -0.3200
15274TIP3    H167237   4.616   5.357  11.980  1.6264 -0.4839 -1.1446
15274TIP3    H267238   4.652   5.323  12.123 -3.4766 -0.0669  0.4205
15275TIP3   OH267239   5.098   5.501  13.267 -0.5749 -0.0176 -0.1789
15275TIP3    H167240   5.101   5.406  13.260 -0.8928  0.0521 -1.8092
15275TIP3    H267241   5.178   5.530  13.224 -0.7842  0.4642 -0.2484
15276TIP3   OH267242   3.979   6.526  13.048  0.1067 -0.3887 -0.5696
15276TIP3    H167243   3.943   6.552  12.963  2.2083 -2.4819 -2.2424
15276TIP3    H267244   4.057   6.581  13.057 -0.6426  0.5313  0.5536
15277TIP3   OH267245   2.787   5.916  14.461 -0.4143 -0.3505 -0.5855
15277TIP3    H167246   2.740   5.922  14.545 -0.0443 -0.0367 -0.3963
15277TIP3    H267247   2.879   5.918  14.486 -0.3032  0.0461 -1.0267
15278TIP3   OH267248   2.457   5.824  12.244  0.2615 -0.1388  0.1487
15278TIP3    H167249   2.475   5.819  12.150 -0.3968 -0.3162  0.0285
15278TIP3    H267250   2.390   5.757  12.259 -1.3256  1.4031  0.3325
15279TIP3   OH267251   0.840   3.912   2.991  0.8795 -0.5373 -0.3245
15279TIP3    H167252   0.835   4.007   3.002 -0.0502 -0.5178 -0.8221
15279TIP3    H267253   0.751   3.881   3.011  0.8293 -1.1611 -1.4603
15280TIP3   OH267254   5.537   6.084  16.688  0.0125  0.0270 -0.0315
15280TIP3    H167255   5.558   6.073  16.596 -0.7073 -0.7653 -0.1059
15280TIP3    H267256   5.462   6.143  16.689 -0.2332 -0.2847  0.0226
15281TIP3   OH267257   5.698   1.111   0.342 -0.5398 -0.3694 -0.4482
15281TIP3    H167258   5.676   1.135   0.252  0.3775  2.9775  0.0877
15281TIP3    H267259   5.793   1.124   0.347 -0.3367 -2.0250  0.6307
15282TIP3   OH267260   1.338   0.016  15.868 -1.0591  0.1877 -0.2947
15282TIP3    H167261   1.393   0.094  15.877 -0.5052 -0.3721  1.3933
15282TIP3    H267262   1.248   0.048  15.880 -0.8345  0.5786  0.3772
15283TIP3   OH267263   2.530   3.512   1.983 -0.6792 -0.3143 -0.4604
15283TIP3    H167264   2.585   3.453   2.033  0.4582  1.0008 -0.1027
15283TIP3    H267265   2.526   3.473   1.895  0.1575 -0.8302 -0.2736
15284TIP3   OH267266   4.453   2.035   5.374 -0.0316 -0.0455 -0.2625
15284TIP3    H167267   4.377   2.086   5.403 -1.1597 -1.9866  0.3348
15284TIP3    H267268   4.527   2.094   5.387 -1.2781  1.4497  0.3699
15285TIP3   OH267269   2.214   3.854  10.664  0.4810  0.3319 -0.5216
15285TIP3    H167270   2.285   3.838  10.602  1.4895  1.0155  0.4152
15285TIP3    H267271   2.142   3.885  10.611  0.9884 -0.0522 -1.4608
15286TIP3   OH267272   5.808   2.801  12.961 -0.4810  0.1608  0.2945
15286TIP3    H167273   5.761   2.718  12.950  0.7337 -0.5659  0.4417
15286TIP3    H267274   5.829   2.828  12.871 -0.3205 -0.0111  0.2811
15287TIP3   OH267275   1.073   5.894   5.447  0.1792  0.6727  0.1492
15287TIP3    H167276   1.124   5.832   5.395  0.1400  0.4095  0.4226
15287TIP3    H267277   1.108   5.980   5.423 -0.0906  0.5843 -0.5892
15288TIP3   OH267278   0.515   0.003  12.792  0.5389  0.3112 -0.2302
15288TIP3    H167279   0.421   0.018  12.793 -0.0739 -2.7103 -1.5514
15288TIP3    H267280   0.539  -0.009  12.884 -0.6746 -0.3851  0.0104
15289TIP3   OH267281   2.571   2.375  13.629 -0.5801 -0.6208  0.2748
15289TIP3    H167282   2.529   2.297  13.667 -0.6927 -0.7178 -0.0499
15289TIP3    H267283   2.662   2.350  13.616 -0.5197 -0.5569  0.5649
15290TIP3   OH267284   1.949   1.414   1.344 -0.4446  0.1938  0.7630
15290TIP3    H167285   1.916   1.482   1.285  0.5294  1.0836  1.2182
15290TIP3    H267286   2.004   1.461   1.407 -1.9703 -0.5959  2.8398
15291TIP3   OH267287   2.351   2.358   1.421 -0.0357  0.3253 -0.1317
15291TIP3    H167288   2.417   2.350   1.490 -1.1874 -1.7390  0.8341
15291TIP3    H267289   2.400   2.383   1.343  1.6236  0.5221  0.9219
15292TIP3   OH267290   2.703   5.199  16.363 -0.3052 -0.1652 -0.2344
15292TIP3    H167291   2.672   5.194  16.272  1.4438 -1.0716 -0.8297
15292TIP3    H267292   2.796   5.222  16.355  1.1385 -4.6155  0.9980
15293TIP3   OH267293   5.676   3.599  14.718  0.4576  0.2396 -0.8046
15293TIP3    H167294   5.742   3.665  14.738 -0.9603  2.0732 -1.8913
15293TIP3    H267295   5.609   3.611  14.784  0.4262 -0.5115 -0.6891
15294TIP3   OH267296   4.291   2.107  16.479  0.1194  0.5756 -0.0756
15294TIP3    H167297   4.223   2.072  16.422  0.9516 -0.8038 -0.2612
15294TIP3    H267298   4.312   2.193  16.442 -0.7196  0.5427 -0.6637
15295TIP3   OH267299   3.767   4.818   1.082 -0.5577 -0.9105 -0.0256
15295TIP3    H167300   3.789   4.910   1.097  0.9515 -1.1883 -0.4159
15295TIP3    H267301   3.787   4.775   1.165  0.1634 -1.1253 -0.3060
15296TIP3   OH267302   6.688   3.130  12.458 -0.1268  0.6375 -0.1213
15296TIP3    H167303   6.720   3.205  12.508 -0.5310  0.1985  0.8195
15296TIP3    H267304   6.617   3.094  12.511  0.1882 -0.5248 -0.4570
15297TIP3   OH267305   2.063   0.356  11.712  0.5550  0.7184 -0.4231
15297TIP3    H167306   2.054   0.423  11.780  0.0494  1.9411 -1.6421
15297TIP3    H267307   2.049   0.273  11.757 -0.4066  1.5419  0.8467
15298TIP3   OH267308   5.401   5.270  16.988  0.2795 -0.0395  0.0923
15298TIP3    H167309   5.379   5.193  16.935 -1.2286 -1.0952  2.1327
15298TIP3    H267310   5.384   5.243  17.078  4.1581  1.1700  1.3782
15299TIP3   OH267311   3.990   6.608  16.425  0.0882 -0.2497 -0.3627
15299TIP3    H167312   3.972   6.521  16.459 -2.6718  0.1344 -0.5865
15299TIP3    H267313   3.914   6.660  16.451  0.7348  1.5884 -1.8902
15300TIP3   OH267314   5.347   1.266  16.504  0.2342 -0.4167 -0.2622
15300TIP3    H167315   5.312   1.350  16.532  1.2390  0.6114 -1.8661
15300TIP3    H267316   5.438   1.266  16.536  1.0404  0.2889 -2.3773
15301TIP3   OH267317   0.734   2.655  13.542 -0.4992  0.0077  0.0165
15301TIP3    H167318   0.713   2.564  13.522  2.9828 -0.7430 -0.8407
15301TIP3    H267319   0.797   2.649  13.614  3.0420  1.2709 -2.6823
15302TIP3   OH267320   0.895   2.496   3.180 -0.3608 -0.3877 -0.1092
15302TIP3    H167321   0.953   2.465   3.111  0.3824  0.3149  0.1918
15302TIP3    H267322   0.897   2.427   3.247 -0.3691 -0.6453 -0.3735
15303TIP3   OH267323   0.470   2.716  11.437  0.1941 -0.4836  0.3652
15303TIP3    H167324   0.390   2.751  11.397  0.7966 -0.5460 -0.9308
15303TIP3    H267325   0.440   2.640  11.487 -0.5390 -0.6458 -0.2962
15304TIP3   OH267326   4.559   6.683  13.588 -0.0222  0.4816  0.3200
15304TIP3    H167327   4.637   6.705  13.537  0.6921  1.8071  1.9087
15304TIP3    H267328   4.500   6.756  13.574 -0.1932  0.4059  0.6411
15305TIP3   OH267329   2.127   6.519  15.170  0.4009  0.2533 -0.0733
15305TIP3    H167330   2.153   6.431  15.141 -2.3167 -1.1400  1.3077
15305TIP3    H267331   2.195   6.544  15.233  0.5411 -1.4976  0.5436
15306TIP3   OH267332   1.353   3.591   4.346  0.7064 -0.3668 -0.1120
15306TIP3    H167333   1.440   3.578   4.385  1.5086  0.1281 -1.6643
15306TIP3    H267334   1.328   3.680   4.372  0.3526 -0.7401  0.8748
15307TIP3   OH267335   3.956   5.349   0.671  0.1864 -0.1983 -0.4405
15307TIP3    H167336   3.877   5.400   0.690  0.2949 -0.4744  0.8033
15307TIP3    H267337   3.964   5.288   0.744  0.8792 -1.0196 -1.1710
15308TIP3   OH267338   6.544   1.262  11.250 -0.3499 -0.1006  0.6607
15308TIP3    H167339   6.471   1.289  11.306 -0.5200  1.8787 -0.4172
15308TIP3    H267340   6.528   1.307  11.167  1.4987 -0.5475  0.0229
15309TIP3   OH267341   6.330   0.763  15.226 -0.7505  1.1157 -0.5335
15309TIP3    H167342   6.330   0.792  15.135 -0.3820 -0.8991 -1.2377
15309TIP3    H267343   6.283   0.680  15.224 -0.9609  1.1674  1.1769
15310TIP3   OH267344   6.142   3.609  13.772 -0.4166  0.8230  1.1772
15310TIP3    H167345   6.135   3.687  13.717  0.4325 -0.4286 -0.8301
15310TIP3    H267346   6.057   3.565  13.763 -0.3927  0.7852  1.1356
15311TIP3   OH267347   1.351   1.348   2.313  0.8612  0.0173 -0.8410
15311TIP3    H167348   1.437   1.391   2.313 -0.1411  2.1515  0.0471
15311TIP3    H267349   1.291   1.413   2.349 -1.0467 -1.6463 -0.8148
15312TIP3   OH267350   6.640   1.823  14.574  0.0088  0.5768 -0.4335
15312TIP3    H167351   6.587   1.879  14.632  0.9223  1.1857 -0.1638
15312TIP3    H267352   6.683   1.885  14.515  0.5965  0.1123 -0.4992
15313TIP3   OH267353   3.937   0.710  15.497  0.5009  0.0334  0.0830
15313TIP3    H167354   3.950   0.750  15.411  0.2377 -1.7260 -0.8254
15313TIP3    H267355   3.976   0.623  15.489 -0.9318 -0.7604  1.2282
15314TIP3   OH267356   2.348   5.742   0.188  0.5450 -0.1485 -0.4814
15314TIP3    H167357   2.308   5.669   0.142  1.3595 -0.4184 -0.7807
15314TIP3    H267358   2.352   5.812   0.123 -3.3562  1.4142  0.6853
15315TIP3   OH267359   1.866   0.732  15.054  0.2798  0.2808  0.2865
15315TIP3    H167360   1.884   0.823  15.081 -0.7998 -0.2675  3.2257
15315TIP3    H267361   1.908   0.679  15.121  0.0738 -1.4145 -0.8751
15316TIP3   OH267362   4.160   4.858  14.206  0.0251  0.3691 -0.6371
15316TIP3    H167363   4.219   4.884  14.276  0.8237  1.0855 -1.5436
15316TIP3    H267364   4.076   4.897  14.230  0.4401  1.1298 -0.3711
15317TIP3   OH267365   5.667   6.020  11.125  0.1208  0.3314 -0.5152
15317TIP3    H167366   5.681   6.094  11.066  3.6445  0.3443  0.1511
15317TIP3    H267367   5.683   5.943  11.071 -3.6145 -0.1495 -1.2270
15318TIP3   OH267368   0.008   0.700   1.734  0.1924  0.7619  0.4214
15318TIP3    H167369   0.071   0.685   1.664  0.7894 -0.3008  1.1633
15318TIP3    H267370  -0.069   0.650   1.709  0.7139 -0.3104  0.9174
15319TIP3   OH267371   4.466   6.779   0.031  0.1600 -0.0830 -0.6417
15319TIP3    H167372   4.410   6.857   0.024 -1.3155 -1.1659 -1.2807
15319TIP3    H267373   4.517   6.779  -0.050  0.4054  0.3655 -0.4973
15320TIP3   OH267374   4.916   5.802   4.771  0.0165  0.1349 -0.1563
15320TIP3    H167375   4.839   5.746   4.760  0.2035  0.0669 -1.2894
15320TIP3    H267376   4.881   5.891   4.771 -0.3612  0.0496  2.3848
15321TIP3   OH267377   1.799   3.024   5.352 -0.9155  0.3425 -0.2716
15321TIP3    H167378   1.850   3.022   5.272 -0.9682  0.6866 -0.3192
15321TIP3    H267379   1.820   2.943   5.397 -1.9724 -0.5308 -1.3016
15322TIP3   OH267380   1.353   6.544  14.982 -0.4788 -0.1738 -0.7406
15322TIP3    H167381   1.331   6.623  14.933  2.0675  0.8154 -0.4288
15322TIP3    H267382   1.412   6.495  14.925  1.3648  0.2854  0.6744
15323TIP3   OH267383   3.357   6.488   0.665  0.1206  0.2485  0.4182
15323TIP3    H167384   3.358   6.523   0.753 -2.1008  1.5956 -0.0184
15323TIP3    H267385   3.308   6.405   0.672 -0.4322  0.5694  0.3967
15324TIP3   OH267386   1.620   0.584  12.378  0.1969  0.8851  0.2498
15324TIP3    H167387   1.570   0.661  12.350 -1.2936 -0.0999  0.1067
15324TIP3    H267388   1.599   0.574  12.471 -2.1134 -1.0551 -0.3632
15325TIP3   OH267389   6.084   5.835   2.408  0.4236  0.0285 -0.3355
15325TIP3    H167390   6.149   5.862   2.472 -0.4300  0.2268  0.4749
15325TIP3    H267391   6.027   5.775   2.455  0.6035 -0.9550 -1.3194
15326TIP3   OH267392   5.376   5.783  15.916 -0.4397 -1.0273 -0.0081
15326TIP3    H167393   5.382   5.810  16.008 -1.9027  1.1839 -0.4622
15326TIP3    H267394   5.299   5.727  15.913 -0.5755 -0.8483  0.0821
15327TIP3   OH267395   1.366   1.363   6.629 -0.2364 -0.5282  0.2225
15327TIP3    H167396   1.318   1.395   6.705  0.2238 -1.2644  0.8360
15327TIP3    H267397   1.434   1.429   6.615 -0.1622 -0.5167  0.6106
15328TIP3   OH267398   0.283   4.946  14.735 -0.4271  0.4257 -0.0908
15328TIP3    H167399   0.283   5.031  14.692 -1.1496 -0.1819 -1.3540
15328TIP3    H267400   0.197   4.940  14.777  0.7257  1.5612  2.6970
15329TIP3   OH267401   1.860   2.609  14.717  0.3882  0.8087  1.0010
15329TIP3    H167402   1.847   2.585  14.625  2.3715 -1.8684  1.3226
15329TIP3    H267403   1.787   2.669  14.736  0.6153  2.5089 -2.6210
15330TIP3   OH267404   4.650   3.564   4.001  0.4454 -0.7212 -0.3952
15330TIP3    H167405   4.590   3.490   3.997  0.8703 -1.0547 -0.7753
15330TIP3    H267406   4.673   3.581   3.909 -1.2803  1.2432 -0.5400
15331TIP3   OH267407   1.624   3.560   0.197 -0.1014  0.1162 -0.0780
15331TIP3    H167408   1.600   3.623   0.264 -0.1498 -0.4258  0.4242
15331TIP3    H267409   1.541   3.522   0.169 -0.0279 -0.1485  0.0527
15332TIP3   OH267410   1.179   6.193   2.106  0.1975  0.1961 -0.2882
15332TIP3    H167411   1.252   6.178   2.166  0.1761  2.1900  0.3396
15332TIP3    H267412   1.204   6.148   2.025  0.8816 -1.3543  0.7501
15333TIP3   OH267413   1.762   0.826  15.810 -0.1074 -0.5470 -0.4044
15333TIP3    H167414   1.668   0.825  15.795 -0.7157 -0.6816  2.7101
15333TIP3    H267415   1.771   0.822  15.905  3.0862 -1.7928 -0.6421
15334TIP3   OH267416   1.077   0.743   5.379 -0.3177 -0.3632 -0.1996
15334TIP3    H167417   1.027   0.772   5.455 -0.8956 -0.0714 -0.6861
15334TIP3    H267418   1.031   0.779   5.304 -1.1458 -2.6094 -0.8422
15335TIP3   OH267419   4.620   6.715   0.713 -0.2759  0.0312 -0.3361
15335TIP3    H167420   4.535   6.701   0.754  0.9414 -1.8003  1.7774
15335TIP3    H267421   4.641   6.807   0.730 -1.4746  0.3011 -0.2429
15336TIP3   OH267422   3.115   0.272  15.450  0.0877 -0.0963 -0.0593
15336TIP3    H167423   3.092   0.218  15.525 -0.7405  0.4020  0.0545
15336TIP3    H267424   3.055   0.347  15.454  1.0686  0.7376 -0.3271
15337TIP3   OH267425   6.518   5.950  16.249 -0.5145 -0.0786 -0.2601
15337TIP3    H167426   6.576   6.001  16.192 -0.8531  0.1621 -0.3911
15337TIP3    H267427   6.488   5.877  16.195 -0.4570 -0.1177 -0.2391
15338TIP3   OH267428   1.194   4.417  13.744 -0.6004  0.0630  0.1845
15338TIP3    H167429   1.227   4.392  13.658 -3.6112 -0.1541 -1.0538
15338TIP3    H267430   1.254   4.485  13.775  1.6620 -1.2231 -1.1748
15339TIP3   OH267431   4.156   6.686   5.528 -0.0168  0.0489 -0.1543
15339TIP3    H167432   4.103   6.650   5.600 -0.0149  1.0006  0.3391
15339TIP3    H267433   4.246   6.664   5.551  0.1141  1.4409  0.8270
15340TIP3   OH267434   1.557   4.431   2.854 -0.4343  0.0382  0.1314
15340TIP3    H167435   1.490   4.367   2.879 -0.1111 -0.1799  0.4546
15340TIP3    H267436   1.587   4.401   2.768  1.7503 -1.9681  1.4857
15341TIP3   OH267437   4.514   1.385  13.940  0.1823 -0.0488  0.5155
15341TIP3    H167438   4.454   1.337  13.998 -0.7993  0.2332 -0.2520
15341TIP3    H267439   4.563   1.316  13.895 -0.5101 -0.3153  0.1611
15342TIP3   OH267440   0.613   4.871   4.986 -0.0090 -0.0654 -0.1040
15342TIP3    H167441   0.706   4.876   5.012 -0.1919  3.0200  0.3022
15342TIP3    H267442   0.565   4.893   5.066 -1.1153 -1.1006 -0.4535
15343TIP3   OH267443   4.732   2.130   3.555  0.1917 -0.3196 -0.0001
15343TIP3    H167444   4.736   2.166   3.467  1.7484 -2.2779 -0.8174
15343TIP3    H267445   4.804   2.174   3.602  2.2319 -2.2838 -1.0577
15344TIP3   OH267446   2.219   4.938  17.091  0.2680 -0.6194 -0.1780
15344TIP3    H167447   2.169   4.875  17.038 -2.9562  1.8087 -0.2972
15344TIP3    H267448   2.171   4.943  17.174  0.4447  1.5321 -0.1450
15345TIP3   OH267449   6.080   1.216   3.005  0.4630 -0.1013 -0.1436
15345TIP3    H167450   6.075   1.267   3.085  0.3327  0.8312 -0.7319
15345TIP3    H267451   6.168   1.176   3.007  1.1952  1.4222 -0.4151
15346TIP3   OH267452   2.542   3.821  11.628  0.3083 -1.0078 -0.3963
15346TIP3    H167453   2.632   3.789  11.627  0.2418 -1.1768 -1.7594
15346TIP3    H267454   2.506   3.785  11.709  1.6295 -0.4341  0.4839
15347TIP3   OH267455   5.042   3.854  15.936 -0.2703 -0.4351 -0.0675
15347TIP3    H167456   5.121   3.907  15.949 -1.9712  2.2269  0.0327
15347TIP3    H267457   5.031   3.852  15.841 -3.3807  4.8333 -0.2218
15348TIP3   OH267458   3.125   6.184  13.277 -0.1526 -0.1729 -0.4564
15348TIP3    H167459   3.165   6.229  13.203 -0.4033 -0.3268 -0.6876
15348TIP3    H267460   3.195   6.130  13.313  0.2669  0.6981  0.0757
15349TIP3   OH267461   2.674   2.180   0.023 -0.0591  0.0194 -0.4294
15349TIP3    H167462   2.689   2.197  -0.070  1.6074  0.5293 -0.1046
15349TIP3    H267463   2.749   2.220   0.067 -1.3108  0.6634  1.2299
15350TIP3   OH267464   5.688   5.762  12.423  0.1867 -0.0114  0.6909
15350TIP3    H167465   5.651   5.767  12.511 -2.1064 -0.3761 -0.1869
15350TIP3    H267466   5.770   5.715  12.434 -0.8325 -1.5008  2.4373
15351TIP3   OH267467   6.053   2.343   1.222  0.6856  0.3988 -0.4648
15351TIP3    H167468   6.066   2.254   1.255 -1.6068 -0.1001 -0.7387
15351TIP3    H267469   6.049   2.334   1.127 -0.2617  0.6609 -0.4626
15352TIP3   OH267470   4.705   3.468   5.920  0.4264 -0.6018 -0.2019
15352TIP3    H167471   4.736   3.445   5.832 -0.5273  1.0456 -1.0274
15352TIP3    H267472   4.627   3.413   5.933 -0.2170  0.0837 -0.9869
15353TIP3   OH267473   6.163   0.409  16.993  0.2419  0.7086 -0.1910
15353TIP3    H167474   6.173   0.487  17.049 -1.1763  1.1376 -0.4838
15353TIP3    H267475   6.207   0.432  16.911  0.3032  0.9881 -0.0810
15354TIP3   OH267476   2.610   0.495   2.842  0.0456 -0.1525  0.1839
15354TIP3    H167477   2.614   0.453   2.928 -0.9790  0.1400  0.3835
15354TIP3    H267478   2.527   0.543   2.842 -0.3796 -0.8265 -1.2700
15355TIP3   OH267479   4.224   4.268  14.164 -0.1191 -0.1532 -0.1758
15355TIP3    H167480   4.236   4.227  14.249 -0.5073 -1.6200 -0.8039
15355TIP3    H267481   4.132   4.250  14.141  0.2883 -0.7860 -1.4078
15356TIP3   OH267482   2.211   3.041   1.958 -0.1999  0.0453  0.5370
15356TIP3    H167483   2.180   3.115   2.010 -1.2164  1.6872 -2.1967
15356TIP3    H267484   2.150   2.970   1.977 -2.6626  1.6552 -0.8409
15357TIP3   OH267485   3.377   1.420   0.969 -0.3091  0.1761 -0.5706
15357TIP3    H167486   3.435   1.474   1.023 -0.1382  0.9000 -1.4380
15357TIP3    H267487   3.393   1.331   0.998  0.3816  0.4724  0.0055
15358TIP3   OH267488   0.913   2.611   5.230  0.5479  0.1571 -0.1055
15358TIP3    H167489   0.969   2.672   5.278 -0.6466  1.7137 -0.5974
15358TIP3    H267490   0.834   2.603   5.283  0.6947 -1.0289 -0.0334
15359TIP3   OH267491   2.729   4.096   0.530  0.5453  0.1784 -0.2058
15359TIP3    H167492   2.780   4.133   0.602  0.0376  0.6961 -0.1045
15359TIP3    H267493   2.648   4.065   0.571  1.0647 -1.3220 -0.2386
15360TIP3   OH267494   0.126   0.255   0.941 -0.3070 -0.3828  0.4648
15360TIP3    H167495   0.080   0.172   0.956  1.2482 -1.0884  1.6804
15360TIP3    H267496   0.210   0.229   0.904  0.1110  0.6728  0.6557
15361TIP3   OH267497   3.074   4.029   0.055  0.0638  0.0733  0.1094
15361TIP3    H167498   3.015   3.970   0.103 -0.1698 -0.2154 -0.5154
15361TIP3    H267499   3.017   4.074  -0.007  0.4552  0.0006 -0.3080
15362TIP3   OH267500   5.892   0.982   5.230 -0.2966  0.6454  0.0789
15362TIP3    H167501   5.984   1.004   5.218 -0.1350 -0.2042 -0.3614
15362TIP3    H267502   5.892   0.904   5.285 -0.7383  0.5317 -0.0705
15363TIP3   OH267503   1.575   3.454   2.684 -0.1216 -0.2451  0.3412
15363TIP3    H167504   1.658   3.496   2.663  0.4559 -1.1143  0.8290
15363TIP3    H267505   1.598   3.363   2.701 -1.0883 -0.3641  1.1053
15364TIP3   OH267506   2.976   3.245   6.283  0.5525 -0.0336 -0.2817
15364TIP3    H167507   3.004   3.257   6.374  1.6143  1.1606 -0.7244
15364TIP3    H267508   3.044   3.190   6.245  0.7541  0.4426 -0.6265
15365TIP3   OH267509   0.881   0.564   0.543  0.1123 -0.0481 -0.6556
15365TIP3    H167510   0.940   0.633   0.514  1.6280 -0.8991  0.2424
15365TIP3    H267511   0.827   0.544   0.467 -0.0992  1.8286 -1.0361
15366TIP3   OH267512   5.902   4.704   1.664  0.0671  0.2515 -0.2955
15366TIP3    H167513   5.981   4.670   1.707 -0.0338 -1.3128 -1.2817
15366TIP3    H267514   5.830   4.671   1.717 -0.1366 -2.8645 -2.2417
15367TIP3   OH267515   1.469   1.214   2.974  0.3710  0.0358  0.3116
15367TIP3    H167516   1.396   1.198   2.915  1.2669 -0.0843 -0.7988
15367TIP3    H267517   1.533   1.264   2.922  1.6495 -1.0157  0.7975
15368TIP3   OH267518   1.998   0.510  12.436  0.3482 -0.1288  0.0631
15368TIP3    H167519   2.041   0.425  12.441  1.0833  0.2454  0.2650
15368TIP3    H267520   2.070   0.573  12.430 -0.1899  0.4655 -0.2709
15369TIP3   OH267521   1.801   1.783   1.479 -0.0608 -0.3632  0.7313
15369TIP3    H167522   1.792   1.688   1.477  0.6827 -0.4464 -1.3074
15369TIP3    H267523   1.832   1.803   1.568 -2.2421 -1.7729  1.8944
15370TIP3   OH267524   5.450   3.373  12.639 -0.2844 -0.0754  0.0512
15370TIP3    H167525   5.358   3.350  12.650 -0.4560  0.9552  0.9054
15370TIP3    H267526   5.463   3.449  12.695  1.3215 -0.7612  0.6764
15371TIP3   OH267527   1.640   0.183  10.417  0.1431  1.0415 -0.4212
15371TIP3    H167528   1.575   0.225  10.474 -0.0044  0.8554 -0.4491
15371TIP3    H267529   1.724   0.211  10.452  0.0982 -0.3302  0.8708
15372TIP3   OH267530   4.222   3.626  16.225 -0.3069  0.2169  0.1488
15372TIP3    H167531   4.242   3.589  16.311  0.5236 -0.1641 -0.1938
15372TIP3    H267532   4.179   3.555  16.178  0.7950 -0.1629 -0.3228
15373TIP3   OH267533   5.533   2.550  16.982 -0.2547  0.4681  0.4059
15373TIP3    H167534   5.545   2.464  16.943  1.1070  0.7967  0.0384
15373TIP3    H267535   5.570   2.611  16.918 -0.6771  1.2871  0.9153
15374TIP3   OH267536   5.552   4.885   1.358  0.4840 -0.5007  0.0199
15374TIP3    H167537   5.622   4.948   1.373 -0.4666  0.5792  0.0682
15374TIP3    H267538   5.529   4.896   1.266 -1.2943  0.9893  0.5774
15375TIP3   OH267539   5.035   5.401   3.812  0.0203 -0.1964 -0.1046
15375TIP3    H167540   4.962   5.372   3.757 -0.3021 -0.7571  0.5980
15375TIP3    H267541   5.073   5.320   3.846  1.1291  0.0760 -0.6475
15376TIP3   OH267542   3.579   4.730  15.150  0.3951 -0.4492  0.6626
15376TIP3    H167543   3.673   4.715  15.137 -0.1393 -2.1986 -1.8484
15376TIP3    H267544   3.569   4.735  15.245  2.8900 -1.2742  1.0528
15377TIP3   OH267545   5.250   1.842   1.015  0.5896  0.3130 -0.2135
15377TIP3    H167546   5.259   1.936   1.030  2.1041  0.0570  0.6292
15377TIP3    H267547   5.222   1.807   1.100  1.3355 -0.1510 -0.1474
15378TIP3   OH267548   6.728   1.746   6.631  0.7008 -0.3475  0.4999
15378TIP3    H167549   6.778   1.821   6.597 -1.6301  0.0025 -2.6392
15378TIP3    H267550   6.667   1.784   6.693 -0.0337  0.3372 -0.5990
15379TIP3   OH267551   4.392   4.388  17.080  0.0039  0.2765  0.5101
15379TIP3    H167552   4.438   4.471  17.095  0.1628  0.2302  0.2649
15379TIP3    H267553   4.456   4.331  17.040 -0.0300 -0.0570  0.9211
15380TIP3   OH267554   1.735   0.006  14.503 -0.5419 -0.2519 -0.6443
15380TIP3    H167555   1.764   0.019  14.593  0.3739  1.6405 -1.1545
15380TIP3    H267556   1.794  -0.061  14.468 -0.0017  0.0007 -0.2332
15381TIP3   OH267557   5.751   1.548   1.856  0.3130  0.2490 -0.2572
15381TIP3    H167558   5.728   1.608   1.785  1.3024  0.3110 -0.5388
15381TIP3    H267559   5.830   1.584   1.894  0.4887 -0.4613  0.0736
15382TIP3   OH267560   3.880   0.229  15.039  0.3040  0.1356  0.2887
15382TIP3    H167561   3.964   0.250  14.998 -0.0323  1.0693  0.0369
15382TIP3    H267562   3.875   0.289  15.114  0.6852 -1.2087  1.4294
15383TIP3   OH267563   4.933   0.176  14.678 -0.3165  0.4112 -0.3454
15383TIP3    H167564   4.868   0.136  14.621  0.6631 -0.8930 -0.5925
15383TIP3    H267565   5.016   0.168  14.630 -0.0074  2.3717 -0.2127
15384TIP3   OH267566   4.473   4.691   5.321  0.2017  0.1694  0.7360
15384TIP3    H167567   4.503   4.636   5.394 -1.5525 -0.0364  1.3476
15384TIP3    H267568   4.527   4.663   5.247  0.3622 -1.3496  1.3757
15385TIP3   OH267569   3.844   2.620   0.897  0.1777 -0.0761  0.0640
15385TIP3    H167570   3.911   2.679   0.932  0.1197 -0.0135  0.0685
15385TIP3    H267571   3.889   2.536   0.888  0.1605 -0.1226  0.4050
15386TIP3   OH267572   4.244   3.032  17.145 -0.3640 -0.4229  0.3883
15386TIP3    H167573   4.225   2.966  17.212  0.6883 -0.7550  0.3820
15386TIP3    H267574   4.266   2.981  17.067  1.3754 -0.1123  0.6392
15387TIP3   OH267575   2.733   4.289  15.137  0.9874 -0.2565  0.2221
15387TIP3    H167576   2.811   4.308  15.190  0.5537  0.8251  0.4839
15387TIP3    H267577   2.666   4.348  15.171  0.4581 -0.1631 -0.9647
15388TIP3   OH267578   2.278   1.251  13.127  0.2509  0.2171 -0.3001
15388TIP3    H167579   2.241   1.163  13.140  0.4574  0.3039  1.0682
15388TIP3    H267580   2.231   1.306  13.190  0.8254  0.8838 -0.4405
15389TIP3   OH267581   1.951   3.504   3.416  0.2783  0.4341  0.1086
15389TIP3    H167582   1.869   3.459   3.434  1.3710 -2.0781 -0.8309
15389TIP3    H267583   2.000   3.498   3.498  0.9926 -1.4806 -0.4140
15390TIP3   OH267584   2.003   5.658   0.062  0.1578  0.0511 -0.0003
15390TIP3    H167585   1.997   5.585   0.123  1.4906  1.0127  1.3798
15390TIP3    H267586   2.078   5.638   0.007  0.6303  0.4207  0.4909
15391TIP3   OH267587   4.534   3.307  16.022  0.0251  0.1159 -0.2898
15391TIP3    H167588   4.601   3.354  15.972 -0.3825  1.4904  0.4037
15391TIP3    H267589   4.519   3.362  16.099  0.4588 -1.8152  1.2479
15392TIP3   OH267590   2.680   6.610  13.285 -0.0918 -0.3184  0.7442
15392TIP3    H167591   2.776   6.604  13.292 -0.1199 -1.1706  0.5702
15392TIP3    H267592   2.665   6.672  13.214  0.3362 -0.3073  0.6611
15393TIP3   OH267593   5.677   4.533   4.633 -0.4369 -1.0142  0.3388
15393TIP3    H167594   5.754   4.567   4.588  0.7141 -0.5635  2.5515
15393TIP3    H267595   5.605   4.587   4.601  0.4617 -0.1826 -0.3379
15394TIP3   OH267596   0.212   3.106  11.454 -0.1352  0.0802 -0.1711
15394TIP3    H167597   0.143   3.039  11.452 -1.5911  1.4011  1.8085
15394TIP3    H267598   0.288   3.059  11.488 -0.0715 -1.3235 -2.0580
15395TIP3   OH267599   4.108   4.668  14.807 -0.4045  0.1090  0.0248
15395TIP3    H167600   4.130   4.761  14.817  0.7419 -0.0204 -1.1226
15395TIP3    H267601   4.178   4.621  14.851 -0.9364 -0.2350  0.5265
15396TIP3   OH267602   2.811   1.740  15.611  0.0646 -0.5979 -0.1482
15396TIP3    H167603   2.758   1.765  15.535  1.1087  4.1290  0.3238
15396TIP3    H267604   2.900   1.735  15.577  0.2845 -0.4775  0.4022
15397TIP3   OH267605   0.138   1.219  11.837  0.4811  0.2462 -0.9600
15397TIP3    H167606   0.200   1.187  11.903 -0.0612 -0.0481 -0.5806
15397TIP3    H267607   0.158   1.168  11.758 -1.1841 -2.0326 -0.0382
15398TIP3   OH267608   4.811   2.413   5.467 -0.2368 -0.0797 -0.3232
15398TIP3    H167609   4.855   2.438   5.386 -0.3277 -1.7387 -0.9227
15398TIP3    H267610   4.880   2.378   5.523 -0.4298 -0.5694 -0.3824
15399TIP3   OH267611   0.750   5.323   1.815 -0.3656 -0.2659 -0.2023
15399TIP3    H167612   0.781   5.412   1.797 -0.9755  0.0336  0.1834
15399TIP3    H267613   0.684   5.334   1.884 -0.1665 -1.0610  0.1335
15400TIP3   OH267614   6.026   2.220  12.016  0.3506 -0.1063 -0.5269
15400TIP3    H167615   5.986   2.137  11.991  0.7132 -1.0249  1.6403
15400TIP3    H267616   6.118   2.212  11.991  0.4938 -0.5879  0.1354
15401TIP3   OH267617   1.847   6.017   3.319  0.0046  0.1070  0.3892
15401TIP3    H167618   1.800   6.097   3.340  0.1785 -0.0132  1.2534
15401TIP3    H267619   1.940   6.041   3.328  0.1810  0.5150 -1.8812
15402TIP3   OH267620   6.224   2.738   4.578  0.3379 -0.8160  0.2096
15402TIP3    H167621   6.157   2.807   4.587  0.4712 -0.5683 -0.5932
15402TIP3    H267622   6.280   2.749   4.655  0.0338 -0.3780  0.3741
15403TIP3   OH267623   1.261   6.246  12.506 -0.0944 -1.2358 -0.4325
15403TIP3    H167624   1.218   6.302  12.570 -2.6526  0.7062 -3.5731
15403TIP3    H267625   1.201   6.173  12.494 -0.1501 -1.0458 -1.3435
15404TIP3   OH267626   2.665   5.691  16.561 -0.0235  0.2443 -0.1344
15404TIP3    H167627   2.720   5.734  16.627 -1.2508 -0.1101  1.1524
15404TIP3    H267628   2.660   5.754  16.489  0.7903  0.9158  0.3793
15405TIP3   OH267629   5.781   6.046  15.259 -0.4199 -0.6226 -0.2127
15405TIP3    H167630   5.826   6.047  15.174 -0.2236  0.9484 -0.1149
15405TIP3    H267631   5.818   6.120  15.306 -0.0679 -1.8431  1.5145
15406TIP3   OH267632   1.295   0.802  14.953  0.2405  0.2736  0.4086
15406TIP3    H167633   1.318   0.870  15.016  1.3180 -0.8237  1.2326
15406TIP3    H267634   1.378   0.761  14.930 -0.3592 -0.6158 -0.2497
15407TIP3   OH267635   0.295   6.757  16.775 -0.6589 -0.2765 -0.6280
15407TIP3    H167636   0.385   6.732  16.794 -0.8299 -0.4107  0.0469
15407TIP3    H267637   0.303   6.842  16.730 -0.1633 -0.7241 -1.4086
15408TIP3   OH267638   2.595   6.399  17.029 -0.2417 -0.7938 -0.4095
15408TIP3    H167639   2.534   6.327  17.018 -0.8676 -0.4218  0.4748
15408TIP3    H267640   2.681   6.358  17.032 -0.4062 -1.3043 -1.9071
15409TIP3   OH267641   3.939   3.273   3.622 -0.3000 -0.3291  0.0308
15409TIP3    H167642   3.909   3.211   3.555 -0.4686  0.5339 -0.7210
15409TIP3    H267643   3.865   3.333   3.634  0.7063  1.2112 -1.0925
15410TIP3   OH267644   5.796   5.524  15.162  0.2444  0.2327  0.0883
15410TIP3    H167645   5.832   5.472  15.090  1.0744  0.0437  0.6303
15410TIP3    H267646   5.872   5.560  15.207 -0.1644 -0.8758  1.7762
15411TIP3   OH267647   5.234   3.209   0.071  0.0762  0.2822  0.2105
15411TIP3    H167648   5.226   3.304   0.060 -0.6927  0.2609  0.5631
15411TIP3    H267649   5.215   3.173  -0.015  3.2342  0.5515 -0.7564
15412TIP3   OH267650   0.397   0.373  14.036  0.0031 -0.2381 -0.1224
15412TIP3    H167651   0.483   0.408  14.010 -0.6469  0.9778 -0.7305
15412TIP3    H267652   0.397   0.284  14.001  0.6061  0.1180 -1.1052
15413TIP3   OH267653   2.442   3.300   6.180  0.4514  0.1300 -0.0156
15413TIP3    H167654   2.447   3.234   6.111 -1.9341 -0.0823 -0.0593
15413TIP3    H267655   2.521   3.286   6.233  1.3889 -0.9025 -1.6112
15414TIP3   OH267656   5.461   5.698  10.549  0.1864 -0.1120  0.0570
15414TIP3    H167657   5.379   5.682  10.501 -0.2059  0.1959  0.6100
15414TIP3    H267658   5.435   5.756  10.621  0.9534  0.2580  0.0466
15415TIP3   OH267659   5.402   5.148   0.044 -0.1481  0.0182  0.4974
15415TIP3    H167660   5.416   5.099   0.125 -0.1684 -2.5182 -0.9432
15415TIP3    H267661   5.404   5.082  -0.025 -2.5011  1.7441 -1.3995
15416TIP3   OH267662   3.462   3.104   0.513 -0.1282 -0.0941  0.1350
15416TIP3    H167663   3.454   3.118   0.418 -0.0861 -1.0217 -0.0199
15416TIP3    H267664   3.557   3.099   0.528 -0.1466 -0.6803  0.0969
15417TIP3   OH267665   6.224   5.861   2.901  0.2996  0.2456  0.5116
15417TIP3    H167666   6.173   5.940   2.919  0.6413  0.6385 -0.2251
15417TIP3    H267667   6.275   5.847   2.981  0.4686  0.9522  0.5318
15418TIP3   OH267668   1.447   4.853   3.977 -0.2358  0.4870  0.8437
15418TIP3    H167669   1.478   4.940   4.000 -1.7622  1.5875 -0.9958
15418TIP3    H267670   1.381   4.833   4.043  1.1560  0.0198  2.1569
15419TIP3   OH267671   1.164   3.994   2.866  0.2981  0.1267  0.0473
15419TIP3    H167672   1.238   4.047   2.837 -0.0918  1.2133  0.9738
15419TIP3    H267673   1.096   4.057   2.890 -0.4585 -0.8084  0.4727
15420TIP3   OH267674   2.842   2.796   1.620 -0.0480  0.2537  0.4326
15420TIP3    H167675   2.800   2.721   1.579  0.4791  1.0506 -1.7156
15420TIP3    H267676   2.772   2.861   1.629  0.0781  0.5318 -0.4529
15421TIP3   OH267677   6.463   5.503  12.718  0.4908  0.6008 -0.3209
15421TIP3    H167678   6.451   5.508  12.813 -1.0526 -0.4973 -0.4391
15421TIP3    H267679   6.535   5.441  12.706 -0.2347 -0.3472  0.1052
15422TIP3   OH267680   2.691   4.201  15.807  0.5523  0.2559  0.4285
15422TIP3    H167681   2.754   4.214  15.736 -0.2143 -1.8787 -0.7275
15422TIP3    H267682   2.688   4.106  15.819 -1.8477  0.3501  0.9747
15423TIP3   OH267683   2.606   4.944   1.986 -0.1603 -0.1003  0.2631
15423TIP3    H167684   2.690   4.984   2.007  0.5625  0.3579 -3.0091
15423TIP3    H267685   2.624   4.850   1.984  0.0146 -0.0731  0.5147
15424TIP3   OH267686   1.526   2.555   0.206 -0.4530 -0.1098 -0.2354
15424TIP3    H167687   1.580   2.622   0.164  1.3055 -0.9135  0.6175
15424TIP3    H267688   1.514   2.586   0.296 -0.5372 -0.4318 -0.1341
15425TIP3   OH267689   4.242   2.143  12.717  0.6290 -0.0977  0.2706
15425TIP3    H167690   4.285   2.225  12.695 -1.1014  0.5155 -1.1418
15425TIP3    H267691   4.271   2.081  12.650 -0.9387  0.4447 -0.9718
15426TIP3   OH267692   0.992   2.762   5.483 -0.3055  0.3222 -0.4225
15426TIP3    H167693   0.902   2.785   5.458  0.0169  0.7210 -1.2514
15426TIP3    H267694   1.045   2.834   5.450  0.5675 -0.9330 -1.9159
15427TIP3   OH267695   3.969   1.933   2.386 -0.4370 -0.4929 -0.3532
15427TIP3    H167696   3.917   1.971   2.457 -0.8417 -0.4788 -0.6485
15427TIP3    H267697   3.948   1.839   2.388 -2.0531 -0.2201 -1.7200
15428TIP3   OH267698   0.881   3.043   3.174 -0.3906 -0.9791 -0.2813
15428TIP3    H167699   0.874   3.119   3.116  1.5906 -0.9988 -0.6416
15428TIP3    H267700   0.918   2.974   3.119  1.7437 -0.9458  0.9528
15429TIP3   OH267701   1.413   5.898  14.732 -0.1743  0.3094  0.0937
15429TIP3    H167702   1.472   5.849  14.674 -1.6382 -2.3525  0.6900
15429TIP3    H267703   1.363   5.955  14.673 -0.9858 -1.6655 -1.2290
15430TIP3   OH267704   2.684   0.965  13.618 -0.0721 -0.1266  0.4785
15430TIP3    H167705   2.590   0.981  13.628 -0.1759 -1.2647  1.6988
15430TIP3    H267706   2.690   0.896  13.553 -0.0235  0.4768 -0.1642
15431TIP3   OH267707   1.253   5.198  12.758  0.2915 -0.0300 -0.2112
15431TIP3    H167708   1.255   5.106  12.784 -0.1110  0.1512  0.4753
15431TIP3    H267709   1.287   5.246  12.833 -0.6927  0.4819 -0.0682
15432TIP3   OH267710   0.591   5.870   2.055  0.3432  0.0591  0.4326
15432TIP3    H167711   0.679   5.876   2.017  0.7597 -1.4449  1.0923
15432TIP3    H267712   0.579   5.954   2.099  0.4550  1.2355 -1.6780
15433TIP3   OH267713   3.042   0.842  14.677 -0.4345  0.2073  0.0017
15433TIP3    H167714   3.018   0.840  14.584  0.8120 -0.8329 -0.3336
15433TIP3    H267715   2.997   0.767  14.715  0.1101 -0.1648 -0.0676
15434TIP3   OH267716   3.003   0.034  12.893 -0.0974 -0.1166  0.1592
15434TIP3    H167717   2.911   0.025  12.917 -0.0081 -2.5372 -0.1730
15434TIP3    H267718   3.008   0.117  12.846 -2.3182 -0.4207 -0.7246
15435TIP3   OH267719   1.682   3.162   0.268 -0.1024 -0.1844  0.7218
15435TIP3    H167720   1.642   3.218   0.334 -0.2486 -0.1537  0.6079
15435TIP3    H267721   1.618   3.159   0.197 -0.4400 -1.1297  1.0502
15436TIP3   OH267722   2.609   0.997  11.170 -0.0039  0.3368  0.6094
15436TIP3    H167723   2.655   0.963  11.094 -0.2318  0.3339  0.4727
15436TIP3    H267724   2.663   0.971  11.245  1.0002  1.6149  0.3534
15437TIP3   OH267725   4.537   3.395   0.437  0.2475 -1.0196  0.1444
15437TIP3    H167726   4.466   3.404   0.374  0.7539  0.5680 -0.2503
15437TIP3    H267727   4.609   3.446   0.400  1.8907 -3.1690  0.1543
15438TIP3   OH267728   6.793   2.614  14.462  0.3954  0.1075 -0.4339
15438TIP3    H167729   6.869   2.631  14.407  2.1279 -2.8324  0.8052
15438TIP3    H267730   6.742   2.549  14.413  0.2073 -0.0381 -0.0488
15439TIP3   OH267731   1.725   0.643   3.507 -0.2288  0.0428  0.5754
15439TIP3    H167732   1.741   0.694   3.427 -0.8379 -1.6489 -0.6694
15439TIP3    H267733   1.808   0.646   3.554  0.5118  0.1062 -0.6894
15440TIP3   OH267734   1.960   5.499   2.665 -0.1227  0.1417  0.4641
15440TIP3    H167735   1.958   5.490   2.570 -0.3872  0.5541  0.4262
15440TIP3    H267736   1.901   5.430   2.697 -0.2664  0.1924  0.3118
15441TIP3   OH267737   3.331   2.761   4.574  0.4723 -0.0511  0.2549
15441TIP3    H167738   3.253   2.725   4.533  0.4980  0.1779  0.0036
15441TIP3    H267739   3.317   2.748   4.668  0.3949 -0.5393  0.1771
15442TIP3   OH267740   0.709   5.838   1.378  0.0556 -0.2688 -0.3805
15442TIP3    H167741   0.738   5.835   1.287  1.0055 -2.7173 -0.0972
15442TIP3    H267742   0.657   5.758   1.389  1.3719 -0.9390  1.5969
15443TIP3   OH267743   0.524   4.243   3.651  0.3207 -0.0968  0.6014
15443TIP3    H167744   0.467   4.184   3.700  0.5835 -0.7592  0.1124
15443TIP3    H267745   0.590   4.186   3.612  0.8014  0.5629  0.4377
15444TIP3   OH267746   0.066   5.121  13.666 -0.2181 -0.1738  0.2931
15444TIP3    H167747  -0.010   5.071  13.699 -0.3545 -0.8614 -1.0166
15444TIP3    H267748   0.029   5.205  13.641 -0.6003 -0.5766 -0.5284
15445TIP3   OH267749   1.467   1.352  14.195 -0.0224 -0.4132 -0.6638
15445TIP3    H167750   1.479   1.342  14.101  0.1170 -0.4795 -0.6400
15445TIP3    H267751   1.373   1.341  14.209 -0.1541  0.4000 -0.8915
15446TIP3   OH267752   5.459   3.470   5.352 -0.2900  0.7011  0.1569
15446TIP3    H167753   5.522   3.413   5.396 -1.0473  1.9089  3.0368
15446TIP3    H267754   5.398   3.410   5.309  0.3590 -0.5730  0.9573
15447TIP3   OH267755   0.808   1.614  11.063 -0.1146 -0.2634 -0.0773
15447TIP3    H167756   0.744   1.644  10.999 -0.5710  0.9289  0.8978
15447TIP3    H267757   0.893   1.636  11.025 -0.3929  0.6838 -0.1599
15448TIP3   OH267758   3.239   1.492  12.168  0.3760  0.1430 -0.0808
15448TIP3    H167759   3.259   1.403  12.138 -0.4386 -0.1538  0.2146
15448TIP3    H267760   3.257   1.490  12.262  0.7252  0.4013 -0.1421
15449TIP3   OH267761   6.314   4.826   2.925  0.0850  0.2226  0.1604
15449TIP3    H167762   6.288   4.783   3.005  1.4319  1.7875  1.5242
15449TIP3    H267763   6.319   4.919   2.948 -0.0961  0.8030 -1.9076
15450TIP3   OH267764   1.490   3.788   5.714  0.1565  0.5324  0.0010
15450TIP3    H167765   1.539   3.808   5.793 -3.3325  3.7249  1.6374
15450TIP3    H267766   1.427   3.721   5.741 -0.6860  1.2420 -0.1452
15451TIP3   OH267767   2.483   1.363   1.222  0.1435 -1.0491  0.0702
15451TIP3    H167768   2.436   1.353   1.305 -0.6412  0.9519 -0.0815
15451TIP3    H267769   2.524   1.278   1.208 -0.4744 -1.7338  2.0315
15452TIP3   OH267770   1.760   3.516   5.172  0.6876  0.6093 -0.8041
15452TIP3    H167771   1.820   3.537   5.243  0.3945 -0.6640 -0.1385
15452TIP3    H267772   1.673   3.534   5.208  0.6228  2.1126 -1.6406
15453TIP3   OH267773   0.818   6.760  12.074 -0.4169  0.8988 -0.4373
15453TIP3    H167774   0.873   6.757  11.996  0.0729  0.9007 -0.0946
15453TIP3    H267775   0.736   6.719  12.047 -0.2033  0.7853 -0.9176
15454TIP3   OH267776   6.325   1.820   4.949 -0.0715  0.3598  0.2329
15454TIP3    H167777   6.397   1.828   5.011 -0.0661  0.5543  0.2040
15454TIP3    H267778   6.342   1.739   4.902  0.0089  0.2921  0.3769
15455TIP3   OH267779   1.042   2.192  10.809 -0.4724 -0.1824 -0.0937
15455TIP3    H167780   0.965   2.157  10.764 -0.1070 -1.4256  0.1827
15455TIP3    H267781   1.007   2.239  10.884 -0.9929  0.0039 -0.4448
15456TIP3   OH267782   1.019   1.046   4.143 -0.3602  0.3737 -0.6210
15456TIP3    H167783   1.059   0.959   4.150 -1.4477 -0.0962 -0.0341
15456TIP3    H267784   1.083   1.105   4.182 -0.6704 -0.5077  1.3532
15457TIP3   OH267785   3.434   5.212   1.312  0.3513  0.5251  0.1616
15457TIP3    H167786   3.476   5.280   1.365  0.1166  2.5287 -2.0527
15457TIP3    H267787   3.364   5.258   1.265 -1.1767 -1.7188  0.0768
15458TIP3   OH267788   5.539   2.442  12.247  0.5614  0.1533 -0.9050
15458TIP3    H167789   5.565   2.354  12.221  2.5019  0.6377 -0.7588
15458TIP3    H267790   5.607   2.499  12.211 -0.4882  1.5702 -0.7381
15459TIP3   OH267791   1.967   4.521  15.974  0.3940  0.0534 -0.3487
15459TIP3    H167792   1.963   4.515  16.070 -0.2038  1.1064 -0.3001
15459TIP3    H267793   2.057   4.547  15.955  0.2625  0.7645 -0.0170
15460TIP3   OH267794   0.720   0.328   1.099 -0.1763  0.4387 -0.1106
15460TIP3    H167795   0.665   0.334   1.021  0.0002 -0.3311 -0.3031
15460TIP3    H267796   0.747   0.237   1.102 -0.7629  0.2940  1.2633
15461TIP3   OH267797   3.834   5.134   4.610  0.2051 -0.5852  1.1602
15461TIP3    H167798   3.893   5.176   4.673 -1.1735  0.6474  1.7157
15461TIP3    H267799   3.786   5.069   4.662 -1.5369  1.0110  1.6956
15462TIP3   OH267800   0.533   0.499   5.522  0.2803  0.0106 -0.5748
15462TIP3    H167801   0.509   0.415   5.484 -0.0136 -0.0343 -0.2862
15462TIP3    H267802   0.465   0.518   5.585  0.2702  0.5364 -0.7370
15463TIP3   OH267803   3.997   1.027  12.528 -0.4208 -0.1821 -0.2491
15463TIP3    H167804   4.030   0.984  12.607  1.3195 -0.4760 -1.0813
15463TIP3    H267805   3.902   1.024  12.536 -0.3347  1.2042  2.5839
15464TIP3   OH267806   5.068   0.514  16.851  0.6314 -0.3671 -0.5374
15464TIP3    H167807   5.074   0.563  16.768  0.5153 -0.6267 -0.6982
15464TIP3    H267808   5.124   0.438  16.838 -0.5753 -1.2115 -0.9396
15465TIP3   OH267809   6.499   0.802   6.576 -0.0783 -0.3149 -0.1103
15465TIP3    H167810   6.538   0.875   6.623 -0.4122 -1.5322  2.1801
15465TIP3    H267811   6.572   0.743   6.557  0.1233  0.3741 -1.5641
15466TIP3   OH267812   4.610   6.225   0.959 -0.2510  0.2127  0.3321
15466TIP3    H167813   4.681   6.254   0.901  2.0401 -0.3936  2.6206
15466TIP3    H267814   4.547   6.182   0.901  2.8714 -2.2211 -1.5789
15467TIP3   OH267815   4.301   5.171   0.899  0.2600  0.4167  0.2340
15467TIP3    H167816   4.377   5.141   0.849  0.8178 -0.3850  1.4903
15467TIP3    H267817   4.338   5.204   0.981 -0.7892 -1.0381  1.3547
15468TIP3   OH267818   1.564   5.326  11.987  0.1763  0.1134  0.6045
15468TIP3    H167819   1.487   5.281  12.020  1.1872 -1.7123  0.5784
15468TIP3    H267820   1.610   5.358  12.065 -0.4689  1.0108  0.6288
15469TIP3   OH267821   3.349   4.138  11.546  0.2068  0.4031 -0.4450
15469TIP3    H167822   3.259   4.110  11.560 -0.5416  3.4560  1.4933
15469TIP3    H267823   3.397   4.108  11.623  0.7012 -0.3790 -1.0289
15470TIP3   OH267824   5.738   3.612   3.734 -0.3046 -0.2340  0.3440
15470TIP3    H167825   5.827   3.645   3.722 -0.2650 -0.8323 -1.2624
15470TIP3    H267826   5.750   3.521   3.763 -0.4142  0.1380  1.6115
15471TIP3   OH267827   2.984   3.498   0.739  0.0699 -0.1607 -0.5312
15471TIP3    H167828   2.920   3.485   0.810  0.7186 -0.4178  0.0146
15471TIP3    H267829   3.048   3.429   0.752  0.0399 -0.3929 -1.5593
15472TIP3   OH267830   6.610   5.721   0.438  0.0007 -0.1956 -0.3102
15472TIP3    H167831   6.591   5.627   0.433  1.0133 -0.3962 -0.6445
15472TIP3    H267832   6.526   5.764   0.421 -0.1622 -1.0288 -1.7988
15473TIP3   OH267833   1.653   1.455   1.869 -0.6192  0.1282 -0.2489
15473TIP3    H167834   1.600   1.472   1.791 -1.5635  2.4481  0.7939
15473TIP3    H267835   1.589   1.429   1.936 -0.1876  0.7455  0.4220
15474TIP3   OH267836   6.698   3.008   5.948 -0.4573  0.4961 -0.2299
15474TIP3    H167837   6.660   3.026   5.862  1.3575 -0.1819 -1.2236
15474TIP3    H267838   6.754   3.083   5.966 -0.4803  0.4252  0.1525
15475TIP3   OH267839   4.142   1.842   4.650 -0.0108 -0.1244  0.3109
15475TIP3    H167840   4.144   1.920   4.595  0.0245 -1.0988 -1.1228
15475TIP3    H267841   4.186   1.868   4.731 -1.1611  1.7061  0.3944
15476TIP3   OH267842   6.012   1.995   3.198  0.1941  0.4903 -0.2494
15476TIP3    H167843   6.044   1.930   3.136 -0.3446  0.8897 -0.9713
15476TIP3    H267844   6.069   1.988   3.274 -0.2694 -1.2821 -0.0382
15477TIP3   OH267845   1.730   2.338   4.264  0.2062 -0.6537  0.5991
15477TIP3    H167846   1.716   2.403   4.195  1.4819  0.7222  1.5645
15477TIP3    H267847   1.756   2.259   4.217 -2.9187 -1.0326 -0.7056
15478TIP3   OH267848   2.619   5.148   4.936  0.6956  0.2703  0.0790
15478TIP3    H167849   2.670   5.109   4.865  0.7647  0.2222  0.1536
15478TIP3    H267850   2.627   5.242   4.922 -0.8879  0.2630 -1.1017
15479TIP3   OH267851   4.469   3.583   1.377 -0.7277 -0.4568 -0.4494
15479TIP3    H167852   4.416   3.660   1.398 -0.3176 -0.3215  0.1191
15479TIP3    H267853   4.524   3.570   1.455  0.7522 -0.0313 -1.3898
15480TIP3   OH267854   5.483   1.402   4.381 -0.1914  0.5822 -0.1282
15480TIP3    H167855   5.556   1.427   4.438  0.2217 -1.6660  0.4212
15480TIP3    H267856   5.405   1.421   4.433  0.1788 -1.5794  1.3792
15481TIP3   OH267857   5.801   5.461   2.112  0.8796 -0.1660 -0.2252
15481TIP3    H167858   5.749   5.423   2.041  1.7391 -0.2410 -0.8268
15481TIP3    H267859   5.879   5.495   2.069  1.3174 -0.0268  0.6573
15482TIP3   OH267860   6.523   2.176  16.036  0.1559 -0.2179  0.2607
15482TIP3    H167861   6.440   2.209  16.001  0.4490  0.3183  0.0704
15482TIP3    H267862   6.528   2.086  16.005  0.2211  0.1238 -0.7524
15483TIP3   OH267863   6.115   5.187  16.209 -0.1915  0.1209 -0.1841
15483TIP3    H167864   6.152   5.120  16.152 -1.2738  0.6256 -1.5263
15483TIP3    H267865   6.114   5.267  16.156  0.6255  1.1251  1.2199
15484TIP3   OH267866   0.191   5.245  12.838 -0.2161 -0.5381  0.1525
15484TIP3    H167867   0.106   5.279  12.867  0.9803  0.4594  2.8688
15484TIP3    H267868   0.200   5.279  12.749 -2.1786  0.2712  0.1900
15485TIP3   OH267869   3.017   1.246   2.436 -0.7677 -0.1926  0.3717
15485TIP3    H167870   2.967   1.307   2.381  0.4539  1.0568  0.5828
15485TIP3    H267871   3.096   1.295   2.460 -0.2347 -1.5082  1.4243
15486TIP3   OH267872   4.244   3.316   3.769  0.0227 -0.0796  0.0828
15486TIP3    H167873   4.313   3.272   3.718  0.1606  0.9110 -0.6102
15486TIP3    H267874   4.292   3.369   3.833 -0.1002  0.3204 -0.1552
15487TIP3   OH267875   1.304   6.514  10.879 -0.0471 -0.4216  0.2578
15487TIP3    H167876   1.310   6.543  10.970  1.4453 -1.4438  0.5117
15487TIP3    H267877   1.226   6.458  10.877 -0.2509 -0.1690  0.8256
15488TIP3   OH267878   0.528   3.706  14.615  0.0275 -0.1981  0.3942
15488TIP3    H167879   0.484   3.662  14.543 -0.0485 -0.9985  0.9125
15488TIP3    H267880   0.463   3.707  14.686 -0.0571  0.9819  0.3137
15489TIP3   OH267881   2.087   6.235  11.665  0.3330  0.2343 -0.6842
15489TIP3    H167882   2.091   6.314  11.611  0.3689  0.3497 -0.5157
15489TIP3    H267883   2.070   6.164  11.604  0.0185  0.4125 -0.8050
15490TIP3   OH267884   0.640   0.193  15.945  0.1608  0.1004 -0.3036
15490TIP3    H167885   0.635   0.177  15.850 -1.9941  1.3866 -0.4856
15490TIP3    H267886   0.711   0.255  15.955 -0.8610  1.5194 -1.3820
15491TIP3   OH267887   3.576   2.680  13.227  0.0099 -0.4939  0.0154
15491TIP3    H167888   3.573   2.692  13.132 -0.0052 -1.2545 -0.0900
15491TIP3    H267889   3.521   2.603  13.243  2.9437 -2.7602  0.1747
15492TIP3   OH267890   5.018   0.496  10.978 -0.4651  1.2318  0.0444
15492TIP3    H167891   5.094   0.552  10.966  0.0732  0.3405 -0.8005
15492TIP3    H267892   4.958   0.520  10.907  0.1512  0.1375 -0.8714
15493TIP3   OH267893   2.634   0.126  10.770 -0.0580 -0.0024 -0.0772
15493TIP3    H167894   2.682   0.073  10.834 -1.7935  1.0624  2.2624
15493TIP3    H267895   2.698   0.193  10.744  0.4861 -0.0015  1.1586
15494TIP3   OH267896   1.781   6.753  16.759 -0.0526 -0.0525  0.0440
15494TIP3    H167897   1.732   6.835  16.764  0.3687  0.1200  1.9967
15494TIP3    H267898   1.857   6.774  16.704 -1.0660  0.2231 -1.3128
15495TIP3   OH267899   2.142   0.675   1.513  0.4415  0.1315  0.4675
15495TIP3    H167900   2.216   0.730   1.488  1.0850 -1.5331 -1.5914
15495TIP3    H267901   2.065   0.727   1.491  0.9546  1.6086  1.9935
15496TIP3   OH267902   1.081   3.370  16.155  0.7117  0.2517 -0.2060
15496TIP3    H167903   1.010   3.416  16.111 -0.0808  0.6584  1.4230
15496TIP3    H267904   1.051   3.280  16.161 -0.1428  0.6182  1.3646
15497TIP3   OH267905   1.089   6.003  16.041 -0.3428  0.0124  0.1220
15497TIP3    H167906   1.092   6.028  15.949 -1.7434  0.0443  0.0597
15497TIP3    H267907   1.161   6.051  16.082 -0.9325  1.5775 -0.5932
15498TIP3   OH267908   1.014   3.805  13.163  0.2395  0.7648 -0.1269
15498TIP3    H167909   1.018   3.884  13.216  1.0872  0.2915  0.5351
15498TIP3    H267910   1.106   3.785  13.142  0.2058 -1.0268  1.2213
15499TIP3   OH267911   0.626   6.468  15.353 -0.5618 -0.5569 -0.1655
15499TIP3    H167912   0.646   6.378  15.380 -0.8435 -1.0228 -1.4039
15499TIP3    H267913   0.628   6.465  15.257  0.8230  1.1036 -0.2290
15500TIP3   OH267914   0.505   5.968  16.358  0.2090 -0.5983  0.1750
15500TIP3    H167915   0.532   6.011  16.440  0.5527 -3.1361  1.4766
15500TIP3    H267916   0.419   5.932  16.378 -0.2388 -0.2192 -1.0162
15501TIP3   OH267917   1.054   1.653  15.687  0.1084 -0.6103 -0.2449
15501TIP3    H167918   1.100   1.641  15.770  0.5559  0.6378 -0.2986
15501TIP3    H267919   0.961   1.645  15.710  0.1951 -5.1042 -0.4292
15502TIP3   OH267920   6.599   5.222   5.730  0.2695 -0.3703 -0.1440
15502TIP3    H167921   6.503   5.214   5.729  0.4171 -2.7396  0.2749
15502TIP3    H267922   6.617   5.290   5.665 -1.7452  1.3288  0.9194
15503TIP3   OH267923   5.183   6.736  11.656  0.2601 -0.7767 -0.2494
15503TIP3    H167924   5.130   6.657  11.654 -0.6383 -0.1974 -0.1799
15503TIP3    H267925   5.244   6.723  11.727 -0.3731 -1.1099  0.2449
15504TIP3   OH267926   6.112   5.434  16.973 -0.3489 -0.8166  0.2725
15504TIP3    H167927   6.159   5.420  17.055 -1.7048 -0.5538  1.1362
15504TIP3    H267928   6.080   5.525  16.979 -1.2957 -1.1139 -0.0876
15505TIP3   OH267929   1.491   5.088   3.443  0.2288 -0.0484  0.2918
15505TIP3    H167930   1.463   5.105   3.533  0.8088 -0.9092  0.6443
15505TIP3    H267931   1.453   5.003   3.421 -0.3846  0.4138 -0.4887
15506TIP3   OH267932   1.572   5.121   1.216 -0.4054  0.2439  0.3626
15506TIP3    H167933   1.548   5.038   1.176 -0.5276  0.2171  0.4918
15506TIP3    H267934   1.515   5.186   1.174 -0.0542  0.3182 -0.0055
15507TIP3   OH267935   0.855   2.957  16.506  0.0690 -0.4066  0.1336
15507TIP3    H167936   0.940   3.000  16.504 -1.1036  2.0988 -0.4763
15507TIP3    H267937   0.841   2.936  16.598  1.6603 -1.7067  0.1387
15508TIP3   OH267938   4.469   5.593  16.117 -0.3098 -0.0818  0.0710
15508TIP3    H167939   4.385   5.639  16.115 -0.0765  0.3329 -0.2878
15508TIP3    H267940   4.531   5.654  16.077  0.3951  0.0640  1.3332
15509TIP3   OH267941   3.796   4.365   0.242  0.1074 -0.4378 -0.0979
15509TIP3    H167942   3.750   4.363   0.159 -1.9521 -0.5527  0.9888
15509TIP3    H267943   3.827   4.275   0.255  0.8232 -0.3238 -0.9040
15510TIP3   OH267944   2.337   2.173  16.945  0.5036  0.4585 -0.7371
15510TIP3    H167945   2.293   2.206  16.867 -0.8542 -0.7305 -0.5090
15510TIP3    H267946   2.417   2.132  16.911  0.0653  0.1912 -1.4766
15511TIP3   OH267947   4.666   3.814   1.079 -0.1670 -0.6310  0.5700
15511TIP3    H167948   4.739   3.805   1.018  2.3561  0.0520  3.2982
15511TIP3    H267949   4.657   3.726   1.118 -0.0540 -0.4477  1.0149
15512TIP3   OH267950   1.443   4.784   2.727 -0.1423  0.3756 -0.0811
15512TIP3    H167951   1.391   4.787   2.647 -1.1127 -0.7831  0.4784
15512TIP3    H267952   1.531   4.762   2.697  0.0442  2.2762 -1.0300
15513TIP3   OH267953   2.830   1.736   0.155 -0.1363 -0.4237 -0.3296
15513TIP3    H167954   2.892   1.808   0.149 -0.3123 -0.2964 -0.6337
15513TIP3    H267955   2.829   1.713   0.248 -0.9744  0.7504 -0.0283
15514TIP3   OH267956   4.734   3.588  12.347  0.0183  0.2370 -0.0829
15514TIP3    H167957   4.696   3.530  12.412 -0.1319 -0.3123 -0.6493
15514TIP3    H267958   4.807   3.539  12.309 -0.5256  0.1372 -1.0403
15515TIP3   OH267959   4.389   0.842   1.558 -0.1976 -0.3875 -0.5616
15515TIP3    H167960   4.333   0.855   1.634 -1.1033 -0.7185 -1.1433
15515TIP3    H267961   4.328   0.818   1.488  0.5242  0.7111 -1.5974
15516TIP3   OH267962   4.577   2.650   2.792 -0.5347 -0.3718  0.6213
15516TIP3    H167963   4.570   2.608   2.706 -0.2392 -2.5202  1.5865
15516TIP3    H267964   4.493   2.631   2.835 -0.8761  1.1057  0.6863
15517TIP3   OH267965   2.031   6.271   3.985  0.3935  0.1455 -0.3438
15517TIP3    H167966   2.015   6.290   4.077  0.3909 -2.1593  0.1933
15517TIP3    H267967   2.051   6.357   3.946  1.4567  1.0605  1.9921
15518TIP3   OH267968   4.720   1.116   4.376  1.2286  0.0480  0.9272
15518TIP3    H167969   4.796   1.168   4.351  0.3809  0.6173 -0.6202
15518TIP3    H267970   4.648   1.152   4.323  0.3528 -1.8983  0.6903
15519TIP3   OH267971   2.295   1.370  13.963 -0.5092 -0.2963  0.4487
15519TIP3    H167972   2.240   1.304  13.921  0.1011  0.0837 -1.0072
15519TIP3    H267973   2.234   1.423  14.015 -0.9800 -2.0887  1.8108
15520TIP3   OH267974   3.703   5.545  10.857 -0.4378  0.3020 -0.3520
15520TIP3    H167975   3.782   5.494  10.838 -1.0348 -0.8011  0.0467
15520TIP3    H267976   3.701   5.612  10.788 -0.0147 -0.6552 -1.3217
15521TIP3   OH267977   0.767   1.833  10.846 -0.0691  0.2009  0.0143
15521TIP3    H167978   0.673   1.818  10.835 -0.7724  0.3110  4.3364
15521TIP3    H267979   0.778   1.927  10.836 -0.6669  0.3495  0.7168
15522TIP3   OH267980   2.715   1.891  16.204 -0.1959 -0.3426 -0.1296
15522TIP3    H167981   2.632   1.897  16.158 -0.3017 -1.4159 -0.1012
15522TIP3    H267982   2.753   1.978  16.197  0.6898 -0.8789 -3.9435
15523TIP3   OH267983   4.053   1.253   0.584  0.1385  0.4428  0.4916
15523TIP3    H167984   4.095   1.180   0.630  0.5972  0.5765  0.2885
15523TIP3    H267985   3.987   1.284   0.645  3.5944  3.5358  3.1557
15524TIP3   OH267986   6.109   5.203  13.071 -0.2795 -0.4406 -0.1792
15524TIP3    H167987   6.031   5.259  13.078 -0.3646 -0.5130 -0.4999
15524TIP3    H267988   6.150   5.230  12.989 -0.6942 -1.3017 -0.6981
15525TIP3   OH267989   6.277   4.253  15.977  0.0254 -0.4481  0.2014
15525TIP3    H167990   6.203   4.196  15.996 -1.2070  1.2566  0.7380
15525TIP3    H267991   6.352   4.208  16.014 -1.0316 -1.3600  1.3070
15526TIP3   OH267992   4.282   5.024  11.180 -0.5882  0.2155  0.1572
15526TIP3    H167993   4.249   4.940  11.149 -0.3714  0.1616  0.0666
15526TIP3    H267994   4.376   5.022  11.160 -0.1205 -0.4407  2.1881
15527TIP3   OH267995   2.373   4.416  12.644 -0.0218  0.4827  0.1016
15527TIP3    H167996   2.399   4.362  12.570  0.2742  0.8309 -0.0503
15527TIP3    H267997   2.437   4.487  12.646  0.5159 -0.0092  1.2286
15528TIP3   OH267998   1.740   2.442   1.918 -0.1130  0.1471 -0.1955
15528TIP3    H167999   1.687   2.467   1.993  1.5500 -1.2869  1.5720
15528TIP3    H268000   1.710   2.353   1.896  0.5784 -0.1310 -0.0592
15529TIP3   OH268001   6.401   4.693  15.347 -0.0976 -0.1504  0.0215
15529TIP3    H168002   6.413   4.774  15.398  1.6575  0.4379 -1.2382
15529TIP3    H268003   6.403   4.722  15.256  0.5643 -1.6216 -0.4571
15530TIP3   OH268004   1.100   3.014  15.750 -0.8153  0.1281 -0.7669
15530TIP3    H168005   1.037   3.042  15.817  0.6344 -1.2645  1.2912
15530TIP3    H268006   1.098   2.918  15.755  1.8085  0.0370 -0.2321
15531TIP3   OH268007   2.068   1.088   4.613  0.1091  0.1995 -0.0079
15531TIP3    H168008   2.075   1.122   4.523  0.3645 -0.8292 -0.3940
15531TIP3    H268009   2.158   1.070   4.639  0.2815  2.7326  1.3860
15532TIP3   OH268010   1.631   2.117  15.542  0.4426 -0.6055  0.2409
15532TIP3    H168011   1.719   2.108  15.577  0.3251  3.7415  2.2868
15532TIP3    H268012   1.577   2.061  15.599  1.5106 -1.3136  0.5814
15533TIP3   OH268013   2.742   4.504  11.704 -0.2395 -0.7387 -0.3504
15533TIP3    H168014   2.668   4.560  11.730 -0.0021 -0.8180  0.5047
15533TIP3    H268015   2.763   4.533  11.615  0.1522  0.8502  0.2276
15534TIP3   OH268016   1.843   4.743   0.525 -0.2200  0.1317  0.1220
15534TIP3    H168017   1.918   4.716   0.472  0.2873  1.2729  0.2334
15534TIP3    H268018   1.769   4.698   0.485 -0.0735  1.9333 -2.4460
15535TIP3   OH268019   1.752   2.494   2.865  0.6133  0.2612 -0.3624
15535TIP3    H168020   1.838   2.493   2.907  0.2076  0.6261  0.5070
15535TIP3    H268021   1.761   2.558   2.794  0.8397  0.9220  0.2425
15536TIP3   OH268022   0.107   3.902   1.720  0.3709 -0.3479 -0.9071
15536TIP3    H168023   0.024   3.896   1.674  0.2747  2.3863 -1.2184
15536TIP3    H268024   0.091   3.963   1.792  2.2698  0.9436 -1.4831
15537TIP3   OH268025   2.987   2.011  14.678  0.6835  0.5124  0.6422
15537TIP3    H168026   3.024   2.064  14.606 -0.5777 -0.1079 -0.5022
15537TIP3    H268027   2.959   1.930  14.635  0.8858 -0.3273  2.0506
15538TIP3   OH268028   0.208   3.293  12.739  0.4767 -0.4077  0.0799
15538TIP3    H168029   0.250   3.353  12.800 -1.3735  1.5553 -0.4168
15538TIP3    H268030   0.144   3.348  12.692 -1.0998 -2.7173 -0.6668
15539TIP3   OH268031   0.975   4.460   4.111 -0.6785  0.2707  0.1312
15539TIP3    H168032   0.930   4.416   4.183 -0.8685 -0.7332 -0.5659
15539TIP3    H268033   0.906   4.478   4.047 -0.2860 -0.2254 -0.4445
15540TIP3   OH268034   4.038   2.510  11.540 -0.1561  0.3021 -0.0581
15540TIP3    H168035   4.053   2.493  11.633  0.4532  0.4161 -0.1306
15540TIP3    H268036   3.954   2.468  11.521  0.8756 -1.8970 -0.0520
15541TIP3   OH268037   6.156   2.450  14.664 -0.1047 -0.2915 -0.2545
15541TIP3    H168038   6.225   2.516  14.661  1.2454 -1.6298 -4.0759
15541TIP3    H268039   6.180   2.394  14.738  0.2397  1.8423  1.3302
15542TIP3   OH268040   2.660   2.620  12.445 -0.1422  0.0043  0.1261
15542TIP3    H168041   2.625   2.598  12.358  1.4951 -0.2522 -0.5074
15542TIP3    H268042   2.602   2.689  12.477 -0.1528  0.8811 -1.6650
15543TIP3   OH268043   5.994   6.667   1.620 -0.1130 -0.7023  0.0305
15543TIP3    H168044   5.913   6.617   1.632  0.0857 -0.7599  1.2776
15543TIP3    H268045   6.006   6.671   1.525 -1.9215 -0.1162 -0.2041
15544TIP3   OH268046   1.498   2.624  11.597 -0.2286  0.2760 -0.3155
15544TIP3    H168047   1.538   2.540  11.575  0.8425  0.4804  0.7327
15544TIP3    H268048   1.405   2.605  11.608  0.0460 -0.8433  0.2040
15545TIP3   OH268049   6.589   0.830   5.255 -0.0893 -0.2605 -0.3293
15545TIP3    H168050   6.637   0.793   5.329 -1.2156 -1.2254 -0.0532
15545TIP3    H268051   6.601   0.925   5.264 -0.8929 -0.2849  1.6023
15546TIP3   OH268052   1.185   5.733  15.471 -0.4401 -0.4213  0.0174
15546TIP3    H168053   1.215   5.746  15.382 -2.5560  0.3719 -0.6396
15546TIP3    H268054   1.191   5.819  15.512 -0.0208 -0.6627  0.4847
15547TIP3   OH268055   6.500   3.495  14.092  0.7630  0.5835  0.4202
15547TIP3    H168056   6.510   3.589  14.078 -1.1650  0.7610 -0.0112
15547TIP3    H268057   6.503   3.485  14.187 -0.1686  1.2422  0.5313
15548TIP3   OH268058   5.531   1.372  14.552  0.1601 -0.7942  0.5128
15548TIP3    H168059   5.500   1.328  14.473 -0.8431  1.9283 -0.7156
15548TIP3    H268060   5.526   1.304  14.620 -1.8840 -2.4018 -1.0941
15549TIP3   OH268061   5.715   4.693   2.930  0.3220 -0.5117  0.8535
15549TIP3    H168062   5.773   4.629   2.970  2.0356  0.7439  0.4786
15549TIP3    H268063   5.758   4.778   2.946 -1.0996  0.4050  0.0317
15550TIP3   OH268064   2.663   0.366   0.033  0.3468  0.6687 -0.2895
15550TIP3    H168065   2.582   0.321   0.058  0.9909  0.2678  1.2113
15550TIP3    H268066   2.665   0.361  -0.062 -0.1370 -1.5696 -0.2348
15551TIP3   OH268067   2.701   2.215  12.558 -0.1017 -0.0882 -0.4480
15551TIP3    H168068   2.716   2.123  12.535  2.3674  0.3176 -0.7521
15551TIP3    H268069   2.780   2.260  12.527 -1.0211  2.0650  0.1720
15552TIP3   OH268070   1.472   2.191  15.792 -0.2216  0.4455  0.2648
15552TIP3    H168071   1.531   2.200  15.867  0.1934  0.6635 -0.0809
15552TIP3    H268072   1.504   2.256  15.729  0.5787 -0.9512 -0.8333
15553TIP3   OH268073   4.209   4.970  15.103  0.4186 -0.5576 -0.7226
15553TIP3    H168074   4.241   4.974  15.193  0.7560 -2.1773 -0.7402
15553TIP3    H268075   4.128   5.021  15.104  0.9922  0.3703  0.2259
15554TIP3   OH268076   4.975   3.294   5.674  0.2338 -0.3186  0.9506
15554TIP3    H168077   4.925   3.376   5.675 -0.1878 -0.5764  1.6319
15554TIP3    H268078   5.037   3.302   5.746  1.4007  0.1162 -0.0642
15555TIP3   OH268079   1.811   4.455  13.512 -0.2030 -0.0703  0.1035
15555TIP3    H168080   1.888   4.477  13.564  0.8972 -0.0667 -1.4622
15555TIP3    H268081   1.813   4.517  13.439 -1.4449 -0.3800 -0.2238
15556TIP3   OH268082   5.192   4.725  15.973  0.1505 -0.6446 -0.7991
15556TIP3    H168083   5.133   4.790  15.936  0.3044 -1.1027 -1.8788
15556TIP3    H268084   5.236   4.687  15.898 -0.3385 -2.3904 -0.2450
15557TIP3   OH268085   2.823   0.713  14.442 -0.1888  0.1597 -0.2527
15557TIP3    H168086   2.733   0.688  14.425 -0.4864  1.1418 -0.1829
15557TIP3    H268087   2.817   0.802  14.477  0.7891  0.1609 -0.0571
15558TIP3   OH268088   2.193   4.078   0.501  0.6359 -0.1506  0.3938
15558TIP3    H168089   2.140   4.051   0.576 -0.6292 -0.3360 -0.5241
15558TIP3    H268090   2.171   4.170   0.488  0.4260 -0.2605 -0.0637
15559TIP3   OH268091   1.134   4.755   2.654  0.7364  0.0114  0.4723
15559TIP3    H168092   1.161   4.836   2.698  1.6592  1.1520 -1.9599
15559TIP3    H268093   1.038   4.756   2.658  0.7907 -0.2392  2.8334
15560TIP3   OH268094   5.685   2.742  16.117  0.0693 -0.4232 -0.4473
15560TIP3    H168095   5.666   2.685  16.042  1.7153  0.4883 -1.6432
15560TIP3    H268096   5.629   2.818  16.104  2.8135  1.4250 -2.9414
15561TIP3   OH268097   1.176   3.237   3.937 -0.0049 -0.0206  0.4996
15561TIP3    H168098   1.128   3.252   4.018 -2.1569  1.3908 -0.9185
15561TIP3    H268099   1.138   3.299   3.875  0.3303 -2.1986 -2.0747
15562TIP3   OH268100   3.520   2.679   5.487 -0.6320  0.5760 -0.0083
15562TIP3    H168101   3.476   2.684   5.572  0.3078 -0.4177  0.5615
15562TIP3    H268102   3.611   2.702   5.505 -0.1789 -0.7052 -0.5259
15563TIP3   OH268103   5.387   4.476  15.126 -0.1511  0.0316  0.2342
15563TIP3    H168104   5.353   4.451  15.212  0.0842  0.7632  0.5411
15563TIP3    H268105   5.317   4.528  15.087  0.3911  1.1095  0.6607
15564TIP3   OH268106   5.077   1.029   3.777 -0.3080 -0.0908  0.6636
15564TIP3    H168107   4.986   1.021   3.747 -0.0967  0.8225 -0.2728
15564TIP3    H268108   5.125   0.965   3.725 -0.3687 -0.3671  0.9478
15565TIP3   OH268109   4.751   6.037  14.837 -0.0255  0.0891  0.0211
15565TIP3    H168110   4.791   5.952  14.856 -1.9269 -1.0748 -0.9521
15565TIP3    H268111   4.794   6.097  14.899  0.7421 -1.7196  1.3489
15566TIP3   OH268112   1.983   5.243  11.692  0.3621  0.1806 -0.4346
15566TIP3    H168113   2.046   5.196  11.747 -0.2144  0.6848  0.6752
15566TIP3    H268114   2.037   5.294  11.632  0.9991 -0.9488 -0.8610
15567TIP3   OH268115   6.500   3.382  10.762  0.4466 -0.3419  0.3702
15567TIP3    H168116   6.464   3.446  10.823  0.1385 -1.0309  0.9293
15567TIP3    H268117   6.594   3.401  10.759  0.3896 -0.0024  0.6938
15568TIP3   OH268118   6.484   1.630  11.136 -0.0696  0.1693  0.1875
15568TIP3    H168119   6.438   1.563  11.085  0.1092 -0.1665  0.4709
15568TIP3    H268120   6.454   1.713  11.098 -0.8410 -0.0451  0.3059
15569TIP3   OH268121   4.648   2.657   4.737 -0.1028  0.2090  0.3157
15569TIP3    H168122   4.603   2.643   4.654 -0.5167 -3.5583  1.0249
15569TIP3    H268123   4.741   2.648   4.716 -0.0980  0.8014  0.0520
15570TIP3   OH268124   5.474   4.390   3.750 -0.4889 -0.2984  0.0585
15570TIP3    H168125   5.488   4.345   3.667 -0.5210 -0.0802 -0.0645
15570TIP3    H268126   5.379   4.387   3.763 -0.3629 -1.8638  0.9396
15571TIP3   OH268127   3.915   1.406   6.311  0.0541 -0.6455 -0.0248
15571TIP3    H168128   3.859   1.388   6.387 -1.1581 -0.0092 -0.7351
15571TIP3    H268129   3.897   1.497   6.289 -0.3588 -1.0841 -1.6566
15572TIP3   OH268130   2.421   4.344  11.748  0.3769  0.0405 -0.6288
15572TIP3    H168131   2.404   4.357  11.841  0.7631 -0.4700 -0.4802
15572TIP3    H268132   2.508   4.304  11.746  0.7884  0.9383 -1.2598
15573TIP3   OH268133   3.368   3.803  16.721 -0.1049 -0.4300 -0.1764
15573TIP3    H168134   3.292   3.861  16.731  0.0653 -0.1759 -0.3265
15573TIP3    H268135   3.362   3.742  16.795  0.0924  0.2186  0.3930
15574TIP3   OH268136   4.870   2.857   2.443 -0.2090 -0.0717 -0.1209
15574TIP3    H168137   4.848   2.921   2.510 -0.4200 -0.4847  0.2071
15574TIP3    H268138   4.811   2.876   2.370 -1.9155 -1.3456  0.8499
15575TIP3   OH268139   1.518   4.696  13.083  0.5993  0.2701 -0.2681
15575TIP3    H168140   1.492   4.677  13.173 -2.4917  0.7578 -0.9387
15575TIP3    H268141   1.492   4.619  13.034 -0.8115  1.2765 -1.1828
15576TIP3   OH268142   1.638   6.371   5.996  0.4652  0.1190 -0.3767
15576TIP3    H168143   1.626   6.332   6.082  1.0544 -1.9351 -1.1720
15576TIP3    H268144   1.732   6.390   5.991  0.1704  1.8120  0.0407
15577TIP3   OH268145   5.424   4.195  13.765 -0.1865  0.3460 -0.2737
15577TIP3    H168146   5.411   4.202  13.860 -1.3931  0.7204 -0.4574
15577TIP3    H268147   5.336   4.189  13.729  0.2756 -0.1454 -1.3542
15578TIP3   OH268148   2.632   0.038   1.870 -0.5623 -0.6551  0.1994
15578TIP3    H168149   2.582   0.111   1.833 -0.8103 -1.6489 -1.5257
15578TIP3    H268150   2.578   0.007   1.943 -0.8962  0.2983  0.3747
15579TIP3   OH268151   5.586   4.912  14.673 -0.0960  0.0198 -0.5572
15579TIP3    H168152   5.538   4.876  14.597 -0.7960  0.7410 -0.4738
15579TIP3    H268153   5.588   5.006  14.657  1.2675  0.0140 -0.5174
15580TIP3   OH268154   0.796   0.791  11.315 -0.3731  0.3331 -0.3303
15580TIP3    H168155   0.750   0.865  11.355 -0.9623 -0.3222  0.2049
15580TIP3    H268156   0.829   0.740  11.389 -0.0421  0.0005 -0.7002
15581TIP3   OH268157   3.370   4.078   1.957 -0.2521 -0.0937  0.0353
15581TIP3    H168158   3.341   4.101   1.868  0.5089  0.9938  0.0452
15581TIP3    H268159   3.464   4.067   1.949 -0.2766 -0.7375  0.5712
15582TIP3   OH268160   2.012   6.672   0.530  0.5813  0.6386  0.2740
15582TIP3    H168161   1.954   6.691   0.456  0.4109  0.6753  0.4146
15582TIP3    H268162   1.959   6.695   0.607  0.6790  0.3887  0.4138
15583TIP3   OH268163   2.072   3.663  16.453  0.6739 -0.4315  0.0404
15583TIP3    H168164   2.113   3.686  16.537 -0.0481 -0.4647  0.4116
15583TIP3    H268165   2.145   3.644  16.395  1.2346  0.7754  0.3095
15584TIP3   OH268166   4.426   3.282   6.235  0.1914 -0.7006 -0.0462
15584TIP3    H168167   4.369   3.231   6.293 -0.8968  1.4227  0.8354
15584TIP3    H268168   4.498   3.311   6.291  1.7470 -2.5579 -0.9378
15585TIP3   OH268169   5.592   5.936   2.474  0.0511  0.1957 -0.5437
15585TIP3    H168170   5.639   5.996   2.532  0.5937 -0.9053  0.2014
15585TIP3    H268171   5.519   5.988   2.440  1.4242  1.7638 -1.2205
15586TIP3   OH268172   6.308   0.708   2.249  0.5545 -0.0049 -0.0037
15586TIP3    H168173   6.245   0.651   2.205  1.0387 -0.2303 -0.4221
15586TIP3    H268174   6.343   0.763   2.179  0.3888  0.5316  0.3303
15587TIP3   OH268175   1.582   6.684  15.626  0.0276 -0.6663 -0.2399
15587TIP3    H168176   1.503   6.676  15.679 -0.9339 -1.1358 -1.6784
15587TIP3    H268177   1.556   6.653  15.539  1.0979  1.5676 -1.4319
15588TIP3   OH268178   0.573   1.604   5.050  0.2683  0.4353 -0.2978
15588TIP3    H168179   0.565   1.678   5.109  0.0150 -0.3841  0.7382
15588TIP3    H268180   0.491   1.555   5.061  1.3536 -1.2446  0.8412
15589TIP3   OH268181   1.689   2.864  16.994  0.6470 -0.3018 -0.1811
15589TIP3    H168182   1.614   2.901  17.041 -0.2427 -0.7231 -1.2131
15589TIP3    H268183   1.651   2.828  16.914  1.3292 -3.9085  0.9379
15590TIP3   OH268184   0.504   3.237   3.897 -0.2955 -0.2551 -0.2472
15590TIP3    H168185   0.450   3.169   3.937 -0.5592 -0.0559 -0.2566
15590TIP3    H268186   0.567   3.190   3.843 -0.1331 -0.5141  0.1646
15591TIP3   OH268187   1.965   2.804   1.342  0.5074  0.3171 -0.2875
15591TIP3    H168188   2.028   2.870   1.310  1.5268 -0.0344  0.9249
15591TIP3    H268189   2.017   2.724   1.351 -0.8001 -0.8418 -2.1778
15592TIP3   OH268190   5.245   3.045   4.282 -0.1669  0.1588 -0.4397
15592TIP3    H168191   5.243   2.976   4.348  1.6491  1.7420  1.4166
15592TIP3    H268192   5.242   3.126   4.332  1.3038  1.4444 -2.2976
15593TIP3   OH268193   6.736   5.429  14.840 -0.2952  0.3744 -0.0635
15593TIP3    H168194   6.728   5.486  14.917 -2.5521 -1.2032  0.9607
15593TIP3    H268195   6.701   5.482  14.768  1.5019  1.7300 -0.0193
15594TIP3   OH268196   1.515   5.011   3.736 -0.0763 -0.7209  0.4269
15594TIP3    H168197   1.458   5.069   3.787 -0.9550 -0.7520 -0.4813
15594TIP3    H268198   1.486   4.923   3.759  0.6156 -0.7802  1.0865
15595TIP3   OH268199   2.427   3.590  12.273  0.0059  0.8923  0.3808
15595TIP3    H168200   2.479   3.655  12.320 -0.6598  1.9414 -0.2935
15595TIP3    H268201   2.466   3.588  12.186  0.3741 -0.0506  0.5508
15596TIP3   OH268202   4.760   0.597  15.389 -0.1138  0.9914 -0.0054
15596TIP3    H168203   4.782   0.682  15.428  0.6484  0.3656  0.9813
15596TIP3    H268204   4.785   0.533  15.456  0.6094 -0.0929 -1.2645
15597TIP3   OH268205   5.383   5.678  13.237  0.1974 -0.6297  0.8011
15597TIP3    H168206   5.428   5.671  13.153 -0.5902 -0.9971  0.3906
15597TIP3    H268207   5.449   5.712  13.297  0.2575  1.5367 -0.3898
15598TIP3   OH268208   0.676   2.230   1.911 -0.3795 -0.1564  0.1530
15598TIP3    H168209   0.672   2.326   1.914 -0.7496 -0.0749 -1.6932
15598TIP3    H268210   0.661   2.208   1.819 -0.7552 -2.0223  0.6120
15599TIP3   OH268211   1.009   3.179  15.548  0.1956 -0.1292  0.1961
15599TIP3    H168212   1.043   3.127  15.621  0.0348  1.3051  1.3348
15599TIP3    H268213   1.084   3.229  15.516  0.7436 -2.1545 -1.9597
15600TIP3   OH268214   5.873   5.419   2.779 -0.1274 -0.0765 -0.4875
15600TIP3    H168215   5.885   5.496   2.723 -0.1819 -1.0642 -1.9165
15600TIP3    H268216   5.784   5.389   2.759  0.2694 -1.1155 -0.7435
15601TIP3   OH268217   3.683   3.803  16.723 -0.2982  0.1337 -0.1853
15601TIP3    H168218   3.688   3.755  16.640  1.1252 -1.3227  0.6958
15601TIP3    H268219   3.589   3.804  16.744 -0.5957 -0.1519 -1.4166
15602TIP3   OH268220   4.932   1.302   1.461  0.4415  0.3570  0.7037
15602TIP3    H168221   4.888   1.352   1.391  1.8993  1.4394  0.5047
15602TIP3    H268222   4.866   1.240   1.491 -1.3144  2.0617  0.5908
15603TIP3   OH268223   4.313   5.678   4.871 -0.3111 -0.2251 -0.3131
15603TIP3    H168224   4.245   5.675   4.938 -0.5634  2.1835 -0.3584
15603TIP3    H268225   4.395   5.686   4.921 -0.3672  0.0929 -0.2688
15604TIP3   OH268226   3.551   6.395   6.071  0.3042  0.1788 -0.0423
15604TIP3    H168227   3.633   6.418   6.113  0.5789 -1.4229  0.3584
15604TIP3    H268228   3.503   6.344   6.137  0.1503 -1.1980 -1.1602
15605TIP3   OH268229   6.407   4.473   3.815  0.8868 -0.0422 -0.0740
15605TIP3    H168230   6.455   4.404   3.770 -0.5037 -0.8674 -0.3385
15605TIP3    H268231   6.415   4.452   3.908  0.8054 -0.3342 -0.1328
15606TIP3   OH268232   0.707   1.165   0.671  0.5835 -0.1074 -0.0794
15606TIP3    H168233   0.715   1.138   0.762 -0.1336  1.8199  0.6053
15606TIP3    H268234   0.788   1.212   0.652 -0.7872  2.7993  0.8255
15607TIP3   OH268235   4.015   6.694  14.378  0.0736  0.2993 -0.1976
15607TIP3    H168236   4.013   6.624  14.312 -1.5945 -0.2498  0.3807
15607TIP3    H268237   4.025   6.774  14.327 -1.5782 -0.0790 -1.1953
15608TIP3   OH268238   1.941   2.513  14.951 -0.0454 -0.2370 -0.5127
15608TIP3    H168239   1.907   2.574  15.017 -1.0535 -1.4123  0.0882
15608TIP3    H268240   1.919   2.554  14.868  1.3655  1.3396 -0.1661
15609TIP3   OH268241   6.303   4.011   4.048 -0.4446 -0.2500 -0.6265
15609TIP3    H168242   6.213   3.982   4.034  0.0845 -1.5744 -1.5103
15609TIP3    H268243   6.335   4.033   3.961  0.1309  0.0974 -0.3332
15610TIP3   OH268244   1.387   5.610   5.473  0.1172 -0.4076 -0.1224
15610TIP3    H168245   1.466   5.622   5.420 -0.4486  0.7813 -0.7314
15610TIP3    H268246   1.320   5.660   5.427 -1.1222 -1.7919  0.1231
15611TIP3   OH268247   2.336   4.122   1.856 -0.0638  0.1627  1.0148
15611TIP3    H168248   2.310   4.199   1.907  0.8413  0.5387  0.9431
15611TIP3    H268249   2.322   4.148   1.765  0.2919  0.2705  0.9884
15612TIP3   OH268250   0.117   6.059   1.789 -0.2001 -0.0855 -0.6999
15612TIP3    H168251   0.155   6.058   1.700  0.8569 -0.4278 -0.2649
15612TIP3    H268252   0.038   6.111   1.780 -0.1714 -0.2018 -1.8771
15613TIP3   OH268253   4.101   2.995   2.977  0.0596 -0.5411 -0.1082
15613TIP3    H168254   4.099   3.091   2.977  1.7330 -0.4676 -0.8350
15613TIP3    H268255   4.125   2.972   2.887  0.1825 -1.6209  0.1877
15614TIP3   OH268256   0.520   3.309  16.818 -0.1804 -0.1682  0.2667
15614TIP3    H168257   0.562   3.394  16.832 -0.9287  0.4814 -1.2230
15614TIP3    H268258   0.593   3.250  16.796  0.3647  0.0054  1.5187
15615TIP3   OH268259   6.282   1.273   2.787 -0.0044 -0.4653  0.5744
15615TIP3    H168260   6.204   1.305   2.832 -0.0408 -0.1741  0.3110
15615TIP3    H268261   6.278   1.313   2.700  0.9985  0.4703  0.9212
15616TIP3   OH268262   4.028   3.060   1.187 -0.2941 -0.6155 -0.4577
15616TIP3    H168263   4.105   3.114   1.168  0.5185 -1.1947  1.0898
15616TIP3    H268264   4.018   3.064   1.282 -2.7199  0.1548 -0.6834
15617TIP3   OH268265   3.859   4.648   2.194 -0.3768  0.0962  0.0055
15617TIP3    H168266   3.940   4.680   2.155 -0.6079 -0.0746 -0.6252
15617TIP3    H268267   3.860   4.684   2.283  1.3055 -1.4588  0.6734
15618TIP3   OH268268   1.016   1.046   4.595 -0.6705 -0.1862  0.7099
15618TIP3    H168269   1.054   0.972   4.643 -0.9449 -1.3303 -0.7753
15618TIP3    H268270   1.076   1.059   4.521 -0.6390  1.0838  0.9366
15619TIP3   OH268271   0.940   0.428   1.244  0.4770  0.3871  0.3417
15619TIP3    H168272   0.854   0.394   1.220  0.3508  0.4115  0.7576
15619TIP3    H268273   1.001   0.377   1.190  0.3287 -0.8489  1.3079
15620TIP3   OH268274   3.649   6.015  16.501 -0.2100 -0.1166  0.0498
15620TIP3    H168275   3.713   6.079  16.470  1.1945 -1.3784  0.2245
15620TIP3    H268276   3.691   5.974  16.576 -1.0751 -1.2374 -0.0539
15621TIP3   OH268277   5.647   6.436   0.861  0.7316  0.1603 -0.5179
15621TIP3    H168278   5.575   6.475   0.910  1.5994  1.4629 -0.2322
15621TIP3    H268279   5.722   6.492   0.880  1.6194 -0.6544 -1.5086
15622TIP3   OH268280   3.127   5.193   4.631 -0.0528  0.5573  0.2527
15622TIP3    H168281   3.145   5.229   4.544  2.2546 -0.4448  0.2440
15622TIP3    H268282   3.070   5.118   4.614 -0.5575  1.0403 -0.2510
15623TIP3   OH268283   1.470   6.254  15.995 -0.2625  0.0392 -0.0236
15623TIP3    H168284   1.442   6.179  15.942  0.6345 -0.6225  0.4288
15623TIP3    H268285   1.510   6.314  15.932 -0.0549 -0.3157 -0.2296
15624TIP3   OH268286   0.428   2.957   3.304  0.0464  0.6274  0.3808
15624TIP3    H168287   0.357   2.955   3.369 -0.4512 -0.2826 -0.1543
15624TIP3    H268288   0.490   3.021   3.337  0.3751 -0.6237  2.3655
15625TIP3   OH268289   1.792   4.710   1.117  0.3861 -0.1713 -0.4677
15625TIP3    H168290   1.882   4.738   1.103  0.1184 -0.5767 -3.7374
15625TIP3    H268291   1.739   4.787   1.098 -0.0189 -0.2846  0.1574
15626TIP3   OH268292   2.499   1.980  15.285 -0.1466 -0.1234 -0.8839
15626TIP3    H168293   2.406   1.957  15.279 -0.0407 -0.6995 -0.3506
15626TIP3    H268294   2.527   1.991  15.194 -0.4230 -1.2116 -1.1107
15627TIP3   OH268295   4.487   1.663  15.833  0.1868  0.2548  0.3308
15627TIP3    H168296   4.499   1.703  15.747 -1.0556 -0.8173 -0.3672
15627TIP3    H268297   4.519   1.573  15.822 -2.1594 -0.6338  0.2744
15628TIP3   OH268298   3.951   0.253   2.379  0.2891 -0.1983 -0.1101
15628TIP3    H168299   3.970   0.342   2.407 -0.7372  0.2409 -0.7653
15628TIP3    H268300   3.969   0.252   2.285 -0.3898 -0.4757 -0.2441
15629TIP3   OH268301   5.260   4.839   2.302  0.5397 -0.0997 -0.1236
15629TIP3    H168302   5.334   4.805   2.351  1.2659 -0.0225 -1.1362
15629TIP3    H268303   5.219   4.761   2.263 -0.4613 -0.2362  1.1456
15630TIP3   OH268304   6.378   2.237   0.550 -0.5387 -0.1727 -0.1582
15630TIP3    H168305   6.420   2.322   0.566 -0.2024  0.0198 -1.8038
15630TIP3    H268306   6.285   2.257   0.548 -0.4018  0.7167 -2.8911
15631TIP3   OH268307   4.669   6.707  13.176  0.4680  1.1954  0.0854
15631TIP3    H168308   4.613   6.638  13.211  0.5358  1.2571  0.3156
15631TIP3    H268309   4.615   6.749  13.108  1.8714 -1.8157 -3.1942
15632TIP3   OH268310   1.174   4.890   1.681 -0.5867  0.3408 -0.1795
15632TIP3    H168311   1.100   4.874   1.739 -0.1581  2.3388  1.0334
15632TIP3    H268312   1.251   4.873   1.735 -0.1806  1.3927 -0.3964
15633TIP3   OH268313   6.664   5.992   1.627 -0.3302 -0.3356 -0.1727
15633TIP3    H168314   6.578   5.990   1.583  0.0206  0.5481 -0.9327
15633TIP3    H268315   6.727   5.981   1.556  0.2064 -0.5884  0.3397
15634TIP3   OH268316   1.967   4.638  11.187  0.4566  0.2735 -0.6252
15634TIP3    H168317   1.898   4.628  11.122  2.2431  3.4073 -3.2949
15634TIP3    H268318   1.923   4.672  11.264 -1.0546  2.3084 -2.2853
15635TIP3   OH268319   4.422   6.631   5.628  0.4637  0.1137  0.1425
15635TIP3    H168320   4.421   6.617   5.723 -0.3532 -1.5802 -0.0780
15635TIP3    H268321   4.441   6.545   5.591 -0.3988  0.4944 -1.2589
15636TIP3   OH268322   2.317   1.690   6.057  0.5762 -0.1952  0.1285
15636TIP3    H168323   2.398   1.690   6.108  0.2395  0.3446  0.6794
15636TIP3    H268324   2.247   1.691   6.122  0.1380  1.4672 -0.3088
15637TIP3   OH268325   2.078   6.602   0.233 -0.0402 -0.2533  0.0947
15637TIP3    H168326   2.102   6.598   0.141  3.5188 -0.3454  0.8871
15637TIP3    H268327   1.985   6.579   0.234 -0.3989  0.4025 -3.4783
15638TIP3   OH268328   2.822   6.094  16.603 -0.1079 -0.2598 -0.3019
15638TIP3    H168329   2.838   6.094  16.697  0.2510  2.7279 -0.2748
15638TIP3    H268330   2.830   6.002  16.577  3.4661 -0.7529  1.9503
15639TIP3   OH268331   6.627   4.954   2.238 -0.3948 -1.0059  0.0121
15639TIP3    H168332   6.575   4.940   2.317  1.5246 -2.1151  1.1605
15639TIP3    H268333   6.699   5.011   2.266 -0.7555  0.2257 -1.4473
15640TIP3   OH268334   2.495   6.615   6.549  0.3247  0.2907  0.3236
15640TIP3    H168335   2.440   6.555   6.599  0.9456  1.4315  2.4995
15640TIP3    H268336   2.585   6.585   6.567  0.5376 -0.0859 -1.2399
15641TIP3   OH268337   3.507   6.152   2.004  0.4181 -0.3646  0.6825
15641TIP3    H168338   3.474   6.087   1.942 -0.3986 -0.0215  0.7432
15641TIP3    H268339   3.539   6.223   1.949  1.1666 -0.7471  0.6202
15642TIP3   OH268340   5.359   0.909   1.010  0.5585 -0.8223 -0.1578
15642TIP3    H168341   5.450   0.941   1.004  0.6031 -0.6195  1.2846
15642TIP3    H268342   5.322   0.956   1.084 -0.0952 -2.4269  0.5840
15643TIP3   OH268343   0.609   5.084   3.210  0.0202  0.4614 -0.1959
15643TIP3    H168344   0.663   5.065   3.286  1.3867 -1.4321 -1.5575
15643TIP3    H268345   0.521   5.097   3.245  0.1069 -2.7855  1.5313
15644TIP3   OH268346   2.675   0.290   5.071  0.0868 -0.0783 -0.6446
15644TIP3    H168347   2.679   0.312   4.978  1.2425 -0.0934 -0.6054
15644TIP3    H268348   2.582   0.274   5.087 -0.1334 -0.0541 -1.7882
15645TIP3   OH268349   6.281   5.302  12.517 -0.2463  1.1989  0.0022
15645TIP3    H168350   6.323   5.353  12.586  1.6383 -1.4656  0.9589
15645TIP3    H268351   6.351   5.280  12.456 -0.5701 -1.4993  0.4582
15646TIP3   OH268352   1.817   5.281  13.123 -0.0560 -0.9251  0.5170
15646TIP3    H168353   1.749   5.342  13.093  1.0192 -0.1834 -0.5041
15646TIP3    H268354   1.899   5.328  13.110  0.6138 -1.1436  3.2775
15647TIP3   OH268355   2.088   5.363  11.053  0.7834 -0.0490  0.0178
15647TIP3    H168356   2.130   5.447  11.071 -0.6398  0.7812 -0.3302
15647TIP3    H268357   2.153   5.313  11.004  1.0930  1.4728 -1.2082
15648TIP3   OH268358   4.374   2.469  14.060  0.0504 -0.2813  0.3239
15648TIP3    H168359   4.426   2.397  14.097  1.9373 -0.4183 -2.3120
15648TIP3    H268360   4.396   2.545  14.115  1.9981 -0.6736  0.1655
15649TIP3   OH268361   6.327   3.710   3.718  0.4498 -0.4868  0.0059
15649TIP3    H168362   6.262   3.655   3.674 -0.3491  1.6025 -1.5396
15649TIP3    H268363   6.411   3.672   3.692 -0.0114  0.1905 -2.7538
15650TIP3   OH268364   0.213   2.164  13.332  0.2846  0.0956 -0.4540
15650TIP3    H168365   0.215   2.252  13.295 -0.6675  0.4019  0.1760
15650TIP3    H268366   0.167   2.112  13.267 -2.0992  0.8029  0.5316
15651TIP3   OH268367   0.371   6.318   0.385  0.5822  0.2087 -0.1691
15651TIP3    H168368   0.374   6.223   0.375 -0.5049 -0.2700  3.0366
15651TIP3    H268369   0.463   6.345   0.387  0.9133 -0.4797 -2.5682
15652TIP3   OH268370   2.304   5.291   3.409 -0.5959  0.2736 -0.9480
15652TIP3    H168371   2.279   5.201   3.431 -1.5884  0.6342 -0.5197
15652TIP3    H268372   2.227   5.327   3.365 -1.0810  1.5898  0.8557
15653TIP3   OH268373   5.844   6.659  11.922  0.2990 -0.5547 -0.0526
15653TIP3    H168374   5.844   6.739  11.975 -0.5172  0.1783 -1.0988
15653TIP3    H268375   5.907   6.601  11.965  1.6653  1.0280  0.1764
15654TIP3   OH268376   4.839   0.425   6.685 -0.8119 -0.0214  0.5015
15654TIP3    H168377   4.763   0.483   6.688 -0.1451  1.1277 -1.8781
15654TIP3    H268378   4.909   0.479   6.647  0.4147 -1.7954  0.0954
15655TIP3   OH268379   0.549   5.002   6.581 -0.1160  0.1352 -0.5650
15655TIP3    H168380   0.563   5.097   6.576 -0.2228  0.0839 -2.4349
15655TIP3    H268381   0.624   4.965   6.536 -0.2964 -0.6501 -0.2225
15656TIP3   OH268382   2.551   0.619   3.492 -0.3649 -0.7569  0.1731
15656TIP3    H168383   2.525   0.527   3.490 -0.5472 -0.7642  1.6402
15656TIP3    H268384   2.638   0.620   3.451 -0.4618 -1.5444 -0.0679
15657TIP3   OH268385   0.473   5.370  10.559  0.1825  0.6619 -0.0404
15657TIP3    H168386   0.516   5.443  10.514  1.6918 -1.0845 -1.6056
15657TIP3    H268387   0.434   5.319  10.488 -0.9949  0.0312  1.0413
15658TIP3   OH268388   5.095   1.287   5.828 -0.2786 -0.1817 -0.0788
15658TIP3    H168389   5.066   1.341   5.901  1.3713 -0.9145  1.2056
15658TIP3    H268390   5.138   1.348   5.769  0.2408  0.1566  0.6248
15659TIP3   OH268391   4.717   2.983  13.086 -0.6897  1.1244  0.1171
15659TIP3    H168392   4.629   2.962  13.053 -0.9256  0.6557  1.0241
15659TIP3    H268393   4.735   3.070  13.050 -1.2418  0.9471 -0.6342
15660TIP3   OH268394   2.490   1.500  12.722 -0.4288  0.5149 -0.4706
15660TIP3    H168395   2.515   1.563  12.789  0.7702  1.5693 -1.8624
15660TIP3    H268396   2.400   1.476  12.744 -1.0673  2.9856 -0.0766
15661TIP3   OH268397   5.870   1.776   2.849  0.3367 -0.5592  0.0561
15661TIP3    H168398   5.924   1.698   2.863  0.3828 -0.2204  2.1924
15661TIP3    H268399   5.841   1.769   2.758  0.3407 -3.0791  0.1630
15662TIP3   OH268400   1.132   5.115  15.804 -0.1425  0.4199  0.0343
15662TIP3    H168401   1.090   5.082  15.724 -1.9082 -1.6372  1.6607
15662TIP3    H268402   1.123   5.210  15.798 -1.3728  0.2505 -1.6415
15663TIP3   OH268403   2.963   3.569  15.711  0.1211  0.0435  0.4870
15663TIP3    H168404   2.928   3.564  15.800 -2.2875 -0.1246 -0.4007
15663TIP3    H268405   2.928   3.492  15.667 -0.2220  1.0670 -1.0982
15664TIP3   OH268406   4.431   0.885  12.044 -0.7739 -0.0668  0.1936
15664TIP3    H168407   4.364   0.839  12.094 -0.6881 -0.9630 -0.4918
15664TIP3    H268408   4.397   0.974  12.034 -0.4533  0.3780  2.4570
15665TIP3   OH268409   1.610   2.383   3.473 -0.5879  0.0953 -0.4016
15665TIP3    H168410   1.598   2.288   3.477  2.2865 -0.3697 -0.7112
15665TIP3    H268411   1.670   2.396   3.400  1.7955  1.7549  1.6715
15666TIP3   OH268412   3.858   0.110   3.061  0.3109 -0.3337  1.0362
15666TIP3    H168413   3.906   0.190   3.037  0.3119 -0.1688  1.5806
15666TIP3    H268414   3.911   0.040   3.024 -1.0332 -0.0128 -1.7642
15667TIP3   OH268415   5.757   0.608   2.065  0.6840  0.0168 -0.1719
15667TIP3    H168416   5.717   0.562   2.139  0.1698  1.2678  0.3659
15667TIP3    H268417   5.713   0.693   2.064  0.0349 -0.2891 -2.4923
15668TIP3   OH268418   2.510   1.043   0.558 -0.2172  0.1568  0.4338
15668TIP3    H168419   2.544   1.093   0.483  1.1058 -0.3348  0.6740
15668TIP3    H268420   2.438   1.097   0.592 -2.7010 -0.8158 -2.7437
15669TIP3   OH268421   2.305   4.095  16.014  0.0731 -0.1741 -0.1982
15669TIP3    H168422   2.351   4.107  16.097 -1.1379 -0.4448  0.5291
15669TIP3    H268423   2.351   4.153  15.953  1.4089 -0.4759  0.4749
15670TIP3   OH268424   2.328   2.213   3.543 -0.9950  0.4987 -0.1212
15670TIP3    H168425   2.282   2.283   3.591  2.5274  1.1236  2.8137
15670TIP3    H268426   2.343   2.145   3.609 -1.4385 -1.6305 -2.0997
15671TIP3   OH268427   4.432   1.215   2.419 -0.4358  0.4247  0.1278
15671TIP3    H168428   4.452   1.244   2.330  0.1846  0.0001  0.1203
15671TIP3    H268429   4.503   1.252   2.472  0.4261 -1.0963  0.1076
15672TIP3   OH268430   1.036   3.603   0.119  0.4918 -0.5945  0.2009
15672TIP3    H168431   1.067   3.512   0.120 -0.6428 -0.9971  0.4830
15672TIP3    H268432   1.058   3.636   0.206 -0.6807 -1.1860  0.7507
15673TIP3   OH268433   1.561   2.216   5.805  0.0867 -0.0345  0.0892
15673TIP3    H168434   1.634   2.260   5.848 -0.1505  0.2378  0.2166
15673TIP3    H268435   1.571   2.124   5.829  0.4553 -0.0180  0.0086
15674TIP3   OH268436   2.223   0.523  13.966 -0.6737  0.0712  0.1826
15674TIP3    H168437   2.134   0.501  13.992 -0.3651 -0.4428  0.8386
15674TIP3    H268438   2.261   0.440  13.938  0.2839 -0.1755  2.0336
15675TIP3   OH268439   6.446   5.652   4.420 -0.7736  0.0048  0.4133
15675TIP3    H168440   6.506   5.723   4.397 -1.6991  0.6366 -0.1139
15675TIP3    H268441   6.437   5.600   4.339 -0.5332 -0.3912  0.6382
15676TIP3   OH268442   6.116   0.107   2.205 -0.1121 -0.1939  0.2514
15676TIP3    H168443   6.114   0.166   2.281 -0.0566  0.1430 -0.0095
15676TIP3    H268444   6.028   0.110   2.169  0.2909  0.9231 -0.6748
15677TIP3   OH268445   0.134   2.067   0.849 -0.3208  0.6917  0.0619
15677TIP3    H168446   0.131   2.157   0.883  1.6635  0.0245  2.1925
15677TIP3    H268447   0.224   2.056   0.818 -0.2228 -0.8992  0.8458
15678TIP3   OH268448   6.233   6.560  16.756 -0.0656  0.0517 -0.3170
15678TIP3    H168449   6.211   6.467  16.749  0.5679 -0.1588  0.3145
15678TIP3    H268450   6.173   6.604  16.696 -0.1365 -0.8028 -0.8876
15679TIP3   OH268451   3.518   1.570   1.641 -0.3331 -0.2524  0.1376
15679TIP3    H168452   3.544   1.496   1.695 -0.2216  0.9642  1.8227
15679TIP3    H268453   3.430   1.592   1.670 -0.5866 -0.0614 -0.7395
15680TIP3   OH268454   2.598   1.570   1.580 -0.4253 -0.1898  0.5347
15680TIP3    H168455   2.519   1.624   1.573 -0.3630 -0.0262  1.0950
15680TIP3    H268456   2.657   1.621   1.634 -0.1173 -0.5322  0.5197
15681TIP3   OH268457   1.665   3.633  13.757  0.2297 -0.5170  0.6972
15681TIP3    H168458   1.650   3.586  13.675  2.5374  0.5151 -0.4182
15681TIP3    H268459   1.608   3.710  13.751  1.1003  0.0680 -0.4451
15682TIP3   OH268460   3.062   2.474  13.726  0.0229  0.0545 -0.4545
15682TIP3    H168461   3.035   2.533  13.796 -0.6482 -0.2425 -0.4530
15682TIP3    H268462   2.999   2.402  13.729  1.0192 -0.8466 -0.2353
15683TIP3   OH268463   4.866   6.038   2.799  0.5649 -0.2399 -0.0045
15683TIP3    H168464   4.785   6.066   2.757  0.2962 -2.9115 -1.4566
15683TIP3    H268465   4.934   6.056   2.734  1.1511  1.4642  0.9911
15684TIP3   OH268466   3.751   0.387   2.216 -0.7960  0.0780  0.4618
15684TIP3    H168467   3.700   0.340   2.150 -1.9242  0.9581  0.6918
15684TIP3    H268468   3.752   0.328   2.291 -1.2590 -0.0518  0.3689
15685TIP3   OH268469   1.980   3.169  12.946  0.7869  0.5885  0.5439
15685TIP3    H168470   2.027   3.173  12.863 -0.9872 -0.7788 -0.5984
15685TIP3    H268471   1.986   3.077  12.972  1.0387  0.9380  1.7852
15686TIP3   OH268472   0.533   2.072   2.412  0.9171 -0.0615  0.0777
15686TIP3    H168473   0.468   2.006   2.387  0.4014  0.8888 -1.1532
15686TIP3    H268474   0.551   2.121   2.332  0.0869  2.3271  1.2406
15687TIP3   OH268475   5.509   3.988  14.477  0.3689  0.3385  0.0117
15687TIP3    H168476   5.492   3.894  14.477  0.0411  0.3973 -0.6538
15687TIP3    H268477   5.573   4.000  14.548  0.9170 -0.4770 -0.3268
15688TIP3   OH268478   4.159   0.581   2.925 -0.1614  0.5256  0.2991
15688TIP3    H168479   4.100   0.602   2.853  0.7886  1.1380 -0.3307
15688TIP3    H268480   4.233   0.538   2.884  0.0301  0.1414  1.0210
15689TIP3   OH268481   2.374   5.599  15.527 -0.2917  0.1857 -0.4392
15689TIP3    H168482   2.426   5.567  15.453  0.9508  2.2525 -0.5616
15689TIP3    H268483   2.434   5.657  15.575 -1.7241  0.5977  0.9357
15690TIP3   OH268484   0.304   6.528  13.906 -0.2570 -1.0252 -0.0812
15690TIP3    H168485   0.219   6.567  13.923 -0.0788 -0.6212 -0.1118
15690TIP3    H268486   0.363   6.572  13.966  0.0340 -0.9030 -0.4509
15691TIP3   OH268487   3.274   2.043  15.839  0.4517 -0.0135 -0.5538
15691TIP3    H168488   3.236   1.980  15.900  3.3387 -1.8446 -0.4760
15691TIP3    H268489   3.318   2.108  15.894 -1.4084  1.4405 -0.6717
15692TIP3   OH268490   1.607   6.529   2.816  0.0790  0.0638 -0.5020
15692TIP3    H168491   1.585   6.620   2.798 -0.9873 -0.1702 -0.4271
15692TIP3    H268492   1.662   6.533   2.894  1.0379  0.7215 -1.1839
15693TIP3   OH268493   0.629   0.778  15.183 -0.9497 -0.4906 -0.3757
15693TIP3    H168494   0.692   0.847  15.206  0.8851 -2.2655  0.2767
15693TIP3    H268495   0.548   0.804  15.227  0.6694 -0.4944  2.9273
15694TIP3   OH268496   2.503   6.276   6.098 -0.7639 -0.3692 -0.2533
15694TIP3    H168497   2.471   6.194   6.060  0.0731  0.2298 -2.3537
15694TIP3    H268498   2.592   6.256   6.127 -0.4929 -0.1506 -0.9373
15695TIP3   OH268499   1.197   1.321   3.963  0.1089  0.3186 -0.1960
15695TIP3    H168500   1.280   1.272   3.959 -0.4957 -0.7881  0.3194
15695TIP3    H268501   1.223   1.413   3.957  1.4642  0.0525  0.9981
15696TIP3   OH268502   1.511   0.808  12.748  0.1369 -0.1729 -0.1304
15696TIP3    H168503   1.474   0.859  12.676  2.6942  0.5706 -1.0070
15696TIP3    H268504   1.539   0.873  12.812  0.0671 -0.7170  0.4632
15697TIP3   OH268505   2.153   3.769  10.908  0.0006 -0.2287 -0.1540
15697TIP3    H168506   2.187   3.801  10.825  2.8705 -1.2321  0.5189
15697TIP3    H268507   2.130   3.848  10.957 -2.1021  0.3710 -1.9163
15698TIP3   OH268508   2.215   6.396  14.859 -0.3864 -0.8647  0.4983
15698TIP3    H168509   2.141   6.374  14.803 -0.1549  3.7123 -2.0181
15698TIP3    H268510   2.290   6.402  14.800  0.4209  1.6223  1.6281
15699TIP3   OH268511   3.233   1.300   3.939 -0.3000  0.4864  0.1235
15699TIP3    H168512   3.265   1.381   3.978 -0.2829  0.9277 -0.7755
15699TIP3    H268513   3.269   1.300   3.851 -0.3493 -0.4761  0.0951
15700TIP3   OH268514   3.968   3.357   4.770  0.3972  0.0076  0.1798
15700TIP3    H168515   3.941   3.288   4.710 -1.1886 -0.1369  1.0197
15700TIP3    H268516   4.016   3.312   4.839 -2.8624 -0.7370  2.1327
15701TIP3   OH268517   1.861   4.265  16.584 -0.3770 -0.2055 -0.3787
15701TIP3    H168518   1.934   4.315  16.620 -1.0072 -0.7189  1.7204
15701TIP3    H268519   1.783   4.318  16.601 -0.9818 -1.5449  1.3456
15702TIP3   OH268520   1.897   5.857   0.433 -0.3352  0.0864 -0.3317
15702TIP3    H168521   1.939   5.852   0.519  2.0349  0.5006 -1.3744
15702TIP3    H268522   1.838   5.782   0.431  0.6026 -0.7544  1.1472
15703TIP3   OH268523   5.348   1.394   0.341  0.2892 -0.7051 -0.6024
15703TIP3    H168524   5.409   1.321   0.345 -1.5873 -2.6656 -3.6670
15703TIP3    H268525   5.375   1.444   0.264 -0.7243 -0.4046 -0.7774
15704TIP3   OH268526   0.000   6.475   6.161  0.6387  0.0346  0.2846
15704TIP3    H168527  -0.065   6.531   6.119  0.7372  0.4978  0.7477
15704TIP3    H268528  -0.028   6.469   6.252  1.6063  0.7991  0.6549
15705TIP3   OH268529   5.955   3.979  13.790  0.5489 -0.1795  0.2650
15705TIP3    H168530   5.965   4.068  13.755  0.7419 -0.5501 -0.6424
15705TIP3    H268531   6.020   3.927  13.743 -0.4222 -1.0659 -0.1337
15706TIP3   OH268532   5.103   2.305   0.936 -0.2676  0.3451 -0.5497
15706TIP3    H168533   5.020   2.339   0.966  0.2134 -0.3796  1.8276
15706TIP3    H268534   5.161   2.381   0.934 -0.4230  0.4881  0.0389
15707TIP3   OH268535   5.622   5.144  16.794 -0.0354 -0.3527  0.2616
15707TIP3    H168536   5.655   5.126  16.706  0.8053 -0.1880  0.5394
15707TIP3    H268537   5.530   5.116  16.790 -0.8698  2.2260 -1.4935
15708TIP3   OH268538   5.411   2.074   5.276 -0.3229 -0.6672  0.5422
15708TIP3    H168539   5.410   1.982   5.250  1.0793 -0.8912  1.1679
15708TIP3    H268540   5.444   2.072   5.366 -1.2219  0.3806  0.9125
15709TIP3   OH268541   4.690   6.022  15.213 -0.3717 -0.8121  0.4280
15709TIP3    H168542   4.754   6.003  15.281 -0.9752 -3.2214  0.3854
15709TIP3    H268543   4.707   6.114  15.191  1.4349 -0.6615  2.0966
15710TIP3   OH268544   1.017   1.882   4.625  0.5834  0.6323 -0.0587
15710TIP3    H168545   1.043   1.973   4.643 -3.6543  2.0127  0.2759
15710TIP3    H268546   1.065   1.830   4.689  2.1840  2.7783  0.6036
15711TIP3   OH268547   0.537   1.054  15.108  0.2776 -0.9738  0.7653
15711TIP3    H168548   0.627   1.043  15.140  0.5249  1.9854  1.4195
15711TIP3    H268549   0.546   1.113  15.034 -1.2354  1.0876  2.1170
15712TIP3   OH268550   3.837   1.431  14.790  0.2206 -0.4803 -0.0285
15712TIP3    H168551   3.921   1.452  14.832 -0.0308  0.9895 -0.1971
15712TIP3    H268552   3.847   1.463  14.700 -1.1484  1.5124  0.4590
15713TIP3   OH268553   3.142   3.414  16.898 -0.4993 -0.5651  0.3490
15713TIP3    H168554   3.196   3.335  16.899 -2.2705 -1.8736 -0.7493
15713TIP3    H268555   3.204   3.486  16.899  1.3703 -1.9604 -2.2598
15714TIP3   OH268556   0.521   4.809  16.217 -0.2949  0.2144 -0.0086
15714TIP3    H168557   0.606   4.846  16.239 -0.6271  1.0325 -0.0907
15714TIP3    H268558   0.542   4.733  16.162  0.3857  0.2491  0.1919
15715TIP3   OH268559   1.183   5.887   0.425 -0.2024 -0.1563  0.4782
15715TIP3    H168560   1.192   5.814   0.364 -1.1882  0.6768 -0.7033
15715TIP3    H268561   1.246   5.867   0.495 -0.4724 -2.1306  0.2140
15716TIP3   OH268562   4.690   5.260  13.724  0.0280 -0.4783  0.0426
15716TIP3    H168563   4.671   5.350  13.747  1.7129  0.1176 -0.7570
15716TIP3    H268564   4.607   5.227  13.688  0.0339  1.5814 -2.0939
15717TIP3   OH268565   2.281   3.560  14.632  0.4297 -0.0212  0.0499
15717TIP3    H168566   2.202   3.601  14.597 -0.7580 -2.5905 -0.5382
15717TIP3    H268567   2.288   3.594  14.722 -0.2340  1.6627 -0.4947
15718TIP3   OH268568   4.189   2.137   0.676 -0.5607  0.4097 -0.3335
15718TIP3    H168569   4.137   2.086   0.614  0.7515 -1.4942  0.0431
15718TIP3    H268570   4.237   2.200   0.622  0.0231 -0.7428 -1.2033
15719TIP3   OH268571   3.107   5.977   2.590 -0.5400  0.4752  0.1813
15719TIP3    H168572   3.138   6.055   2.636  0.4072  0.3021 -0.1427
15719TIP3    H268573   3.180   5.915   2.595 -0.7317  0.1461 -0.8094
15720TIP3   OH268574   6.028   1.150   4.725  0.1664  0.2856 -0.1846
15720TIP3    H168575   6.025   1.061   4.761 -1.3370 -0.5128 -2.0691
15720TIP3    H268576   6.121   1.170   4.717  0.5339 -1.0848  0.3789
15721TIP3   OH268577   2.351   5.857   5.292  0.1752 -0.1135  0.6393
15721TIP3    H168578   2.263   5.836   5.325 -0.4465  0.0112 -0.8526
15721TIP3    H268579   2.394   5.773   5.282  0.0765 -0.2052  0.9618
15722TIP3   OH268580   4.010   3.574   5.606  0.3196 -0.2853  0.6957
15722TIP3    H168581   3.946   3.610   5.667  0.4341 -0.1579  0.7403
15722TIP3    H268582   3.968   3.495   5.571 -1.4361  1.6621 -2.0008
15723TIP3   OH268583   3.074   2.191  15.716 -0.0659 -0.1820 -0.9120
15723TIP3    H168584   3.163   2.174  15.748 -0.3243 -0.8350 -0.5202
15723TIP3    H268585   3.078   2.280  15.680  0.5203  0.1265 -0.1122
15724TIP3   OH268586   4.284   1.055   3.626 -0.9966 -0.4234 -0.0869
15724TIP3    H168587   4.303   1.102   3.545 -1.9208  0.1933  0.0400
15724TIP3    H268588   4.311   0.965   3.608  0.5158  0.0716 -0.4349
15725TIP3   OH268589   3.957   4.542  15.935 -0.3466 -0.1316  0.3377
15725TIP3    H168590   3.906   4.620  15.957  0.7026  0.5687  0.3644
15725TIP3    H268591   4.019   4.533  16.008  0.4003 -0.2238 -0.2981
15726TIP3   OH268592   5.929   1.841   1.781  0.6859 -0.4017 -0.0410
15726TIP3    H168593   5.968   1.792   1.709  1.6677  0.2545  0.0305
15726TIP3    H268594   5.854   1.886   1.742  0.8954 -0.4717 -0.5296
15727TIP3   OH268595   0.667   5.356  13.178  0.1358  0.4114  0.9779
15727TIP3    H168596   0.712   5.295  13.119  1.3900  1.7284  0.5043
15727TIP3    H268597   0.595   5.391  13.125  0.8257  1.0537  0.4380
15728TIP3   OH268598   1.386   1.846  12.180  0.1667 -0.2554  0.1075
15728TIP3    H168599   1.350   1.857  12.267  0.6958  2.0429  0.1207
15728TIP3    H268600   1.474   1.813  12.194  0.0272 -0.4962  0.4102
15729TIP3   OH268601   3.021   3.493  10.888  0.0232 -0.4856 -0.3762
15729TIP3    H168602   3.006   3.572  10.835 -0.4635 -0.7494 -0.6377
15729TIP3    H268603   3.089   3.446  10.840 -0.6264 -0.8707 -0.9457
15730TIP3   OH268604   3.572   1.832  15.533  0.3099  0.2629  0.1353
15730TIP3    H168605   3.485   1.794  15.539  0.3277  0.3467  1.0129
15730TIP3    H268606   3.625   1.765  15.488 -0.8321  1.3385 -3.1042
15731TIP3   OH268607   0.416   3.712   1.816  0.1086  0.0657 -0.2916
15731TIP3    H168608   0.450   3.661   1.890 -3.3131 -2.9246 -0.5105
15731TIP3    H268609   0.414   3.802   1.848  2.5698 -0.4678  1.6747
15732TIP3   OH268610   2.940   0.602   5.345  0.1793  0.2276 -0.4072
15732TIP3    H168611   2.912   0.583   5.434 -1.3729 -0.6158 -1.0438
15732TIP3    H268612   2.947   0.516   5.303  2.2249  0.5147 -0.7491
15733TIP3   OH268613   5.958   6.307   0.874  0.0185 -0.9473  0.5057
15733TIP3    H168614   5.876   6.275   0.836  0.2855 -0.1291 -0.8348
15733TIP3    H268615   6.003   6.228   0.902 -0.6515 -1.5168  0.0360
15734TIP3   OH268616   4.809   3.174  12.374  0.3656 -0.3246  0.1173
15734TIP3    H168617   4.832   3.093  12.420  0.9210 -1.6853 -2.3441
15734TIP3    H268618   4.714   3.170  12.363  0.3376 -0.4233  0.3975
15735TIP3   OH268619   1.690   4.915   3.120  0.4714 -0.0511 -0.0926
15735TIP3    H168620   1.643   4.998   3.124  0.0020 -0.1957 -1.6839
15735TIP3    H268621   1.771   4.935   3.074 -0.5546 -0.7851 -2.3720
15736TIP3   OH268622   1.083   0.150   1.470  0.6518 -0.1378 -0.4040
15736TIP3    H168623   1.069   0.071   1.522 -1.5092  0.8035  0.5861
15736TIP3    H268624   0.995   0.175   1.441  1.4962  0.9622 -2.1368
15737TIP3   OH268625   1.969   2.313   1.377 -0.4605  0.6034 -0.8406
15737TIP3    H168626   1.880   2.282   1.393 -0.1656  0.3408  0.3947
15737TIP3    H268627   1.986   2.292   1.285 -1.5060  0.2419 -0.9621
15738TIP3   OH268628   0.764   5.551   1.412 -0.1192  0.2948 -0.5998
15738TIP3    H168629   0.723   5.572   1.496 -0.3785  0.6452 -0.8151
15738TIP3    H268630   0.858   5.561   1.429 -0.0336 -1.2957  0.1198
15739TIP3   OH268631   0.502   0.220   4.536 -0.1882 -0.1883  0.4413
15739TIP3    H168632   0.581   0.171   4.513  0.6289  1.2433  0.0022
15739TIP3    H268633   0.489   0.279   4.461 -0.9961  0.4024  1.0336
15740TIP3   OH268634   1.985   6.296   1.361  0.5275 -1.2493 -0.4143
15740TIP3    H168635   1.958   6.233   1.427 -0.6381  0.5146  0.8727
15740TIP3    H268636   1.904   6.332   1.327  1.1234  0.7617  0.1347
15741TIP3   OH268637   1.103   2.082  15.439  0.0507 -0.1781  0.4436
15741TIP3    H168638   1.115   2.126  15.523  1.0181 -2.2418  1.4585
15741TIP3    H268639   1.140   1.995  15.452  1.2368 -0.2231 -2.4601
15742TIP3   OH268640   5.175   1.601   1.332  0.2416 -0.2234 -0.0786
15742TIP3    H168641   5.112   1.608   1.403 -0.1847 -0.1288 -0.4631
15742TIP3    H268642   5.244   1.544   1.366  0.1008 -0.0774  0.4520
15743TIP3   OH268643   1.324   1.109  13.465 -0.4801 -0.3665 -0.1049
15743TIP3    H168644   1.255   1.170  13.440  1.3979  1.8138 -0.1859
15743TIP3    H268645   1.378   1.100  13.387  1.4932  1.0382  1.0281
15744TIP3   OH268646   5.583   2.307   5.222 -0.0645 -0.2738  0.0071
15744TIP3    H168647   5.509   2.247   5.210  0.5108 -0.9271 -0.3110
15744TIP3    H268648   5.645   2.258   5.276  0.3678  0.0704 -0.1745
15745TIP3   OH268649   4.693   5.772  11.671 -0.1488  0.1415  0.0320
15745TIP3    H168650   4.740   5.689  11.677  0.1713  0.1083 -2.0550
15745TIP3    H268651   4.716   5.806  11.584 -2.2922  1.1628 -0.2015
15746TIP3   OH268652   1.951   3.158   1.242  0.1913  0.7352 -0.1070
15746TIP3    H168653   2.024   3.157   1.181 -0.0388 -0.5340 -0.3725
15746TIP3    H268654   1.887   3.216   1.201  0.1686  0.1460 -0.9246
15747TIP3   OH268655   1.592   5.371  11.722 -0.3859 -0.3045  0.3301
15747TIP3    H168656   1.610   5.366  11.816 -1.0407 -0.2063  0.4674
15747TIP3    H268657   1.496   5.365  11.716 -0.5640  2.0619 -0.1509
15748TIP3   OH268658   6.609   1.503   6.536  0.2056 -0.5704 -0.3453
15748TIP3    H168659   6.522   1.543   6.527  0.3166 -0.1833  0.2444
15748TIP3    H268660   6.662   1.570   6.580  0.5528 -1.1637  0.1512
15749TIP3   OH268661   2.422   1.735  15.481 -0.0218  0.1094  0.6261
15749TIP3    H168662   2.448   1.758  15.391 -0.6624  0.3245  0.4918
15749TIP3    H268663   2.395   1.644  15.475 -0.2713  0.1869  0.5522
15750TIP3   OH268664   0.649   5.260   5.110  0.1792 -0.2497 -0.7415
15750TIP3    H168665   0.679   5.170   5.119 -0.5187 -0.5511 -1.3236
15750TIP3    H268666   0.564   5.253   5.067 -0.1141  0.6572 -0.3451
15751TIP3   OH268667   5.799   4.399   1.440  0.4234  0.0441 -0.3999
15751TIP3    H168668   5.828   4.487   1.414 -0.2023 -0.0733 -1.5695
15751TIP3    H268669   5.879   4.354   1.465  0.8885  0.6278 -0.7847
15752TIP3   OH268670   4.376   4.913   3.416  0.4748  0.2081  0.0549
15752TIP3    H168671   4.304   4.897   3.477  1.2789  1.4750  1.3871
15752TIP3    H268672   4.441   4.847   3.437  0.3092 -0.0315 -0.1769
15753TIP3   OH268673   3.317   0.111  11.603  0.1550  0.4165 -0.2465
15753TIP3    H168674   3.309   0.064  11.685 -0.9649 -1.1812 -1.2152
15753TIP3    H268675   3.399   0.079  11.565  0.3975  0.7486 -0.0074
15754TIP3   OH268676   4.523   0.345  17.002  0.1812 -0.0775  0.7817
15754TIP3    H168677   4.613   0.371  16.987  0.4796 -2.1722 -1.9083
15754TIP3    H268678   4.527   0.284  17.077  1.0924 -0.5266  0.3758
15755TIP3   OH268679   4.682   3.225   5.151 -0.0885  0.0925 -0.0671
15755TIP3    H168680   4.623   3.153   5.176 -0.1080  0.1583  0.0797
15755TIP3    H268681   4.688   3.279   5.230 -1.1891  1.0143 -0.5851
15756TIP3   OH268682   4.545   4.705   4.954 -0.2363 -0.0058 -0.1336
15756TIP3    H168683   4.514   4.637   4.894  0.2528  0.8053 -1.3580
15756TIP3    H268684   4.640   4.701   4.948 -0.1410 -0.6347  1.4619
15757TIP3   OH268685   5.224   1.890  11.900  0.3928 -0.1784 -0.5942
15757TIP3    H168686   5.176   1.807  11.902 -0.4714  0.3261  0.5328
15757TIP3    H268687   5.162   1.954  11.932  2.1720  0.3167  2.2438
15758TIP3   OH268688   5.701   3.389   6.118  0.1303  0.1639 -0.0193
15758TIP3    H168689   5.643   3.461   6.143 -2.8734 -1.8285 -0.8600
15758TIP3    H268690   5.738   3.359   6.201  3.6450  4.1351  0.2086
15759TIP3   OH268691   3.812   3.295   1.997  0.3433 -0.2457 -0.5012
15759TIP3    H168692   3.870   3.319   1.924 -2.5813  0.7159 -2.6955
15759TIP3    H268693   3.794   3.201   1.983  0.2480 -0.2003 -0.6917
15760TIP3   OH268694   5.292   0.187   2.863 -0.8524  0.0699 -0.7655
15760TIP3    H168695   5.335   0.272   2.874 -1.3436  0.1176  1.0294
15760TIP3    H268696   5.198   0.207   2.860 -0.9578 -0.3837 -0.6139
15761TIP3   OH268697   5.967   3.171  15.819 -0.5144 -0.6711 -0.2892
15761TIP3    H168698   5.876   3.201  15.824  0.2147  1.7303  0.4345
15761TIP3    H268699   5.962   3.076  15.829 -2.7127 -0.3726  3.8695
15762TIP3   OH268700   1.084   3.522   3.879 -0.3593  0.6895 -0.5640
15762TIP3    H168701   1.045   3.481   3.802  1.3157 -2.0542 -0.0718
15762TIP3    H268702   1.016   3.514   3.946 -0.1560 -1.2249 -0.5367
15763TIP3   OH268703   2.329   2.449   2.360  0.3719  0.0812 -0.0713
15763TIP3    H168704   2.398   2.383   2.358  1.9524  1.5758  1.4289
15763TIP3    H268705   2.375   2.532   2.350 -1.4222  1.0416 -0.7568
15764TIP3   OH268706   6.376   6.687   4.170 -0.6823  0.0682 -0.2320
15764TIP3    H168707   6.354   6.595   4.182  0.3445 -0.0176  1.1965
15764TIP3    H268708   6.421   6.690   4.085 -2.0783 -0.4641 -1.0265
15765TIP3   OH268709   3.739   1.006   3.687  1.0133  0.7136  0.0854
15765TIP3    H168710   3.652   1.037   3.664 -0.4435 -1.3558  2.3260
15765TIP3    H268711   3.778   1.079   3.736 -0.2252  0.9884  0.7053
15766TIP3   OH268712   1.451   4.331  14.898 -0.1677  0.0346  0.7042
15766TIP3    H168713   1.487   4.316  14.985 -0.0161 -2.0452  0.3352
15766TIP3    H268714   1.517   4.385  14.854 -0.0486  0.7522  1.7314
15767TIP3   OH268715   4.632   5.619  13.174  0.7843  0.5798  0.0632
15767TIP3    H168716   4.597   5.562  13.242  1.8282  0.0394  0.1599
15767TIP3    H268717   4.566   5.689  13.166  1.5807  1.8865  3.1674
15768TIP3   OH268718   3.400   4.089   5.384 -0.1216 -0.3457  0.1234
15768TIP3    H168719   3.359   4.138   5.312 -0.5583  0.7253  1.0520
15768TIP3    H268720   3.493   4.094   5.366 -0.2273 -0.1426 -0.4053
15769TIP3   OH268721   6.202   1.213   0.381  0.1948  0.4368 -0.6527
15769TIP3    H168722   6.200   1.209   0.285  1.1745  1.6793 -0.7463
15769TIP3    H268723   6.110   1.203   0.407 -0.1581  0.6610 -1.7576
15770TIP3   OH268724   4.745   0.750   3.801  0.0466 -0.3515  0.0835
15770TIP3    H168725   4.675   0.704   3.754  0.6318 -2.6408  1.3125
15770TIP3    H268726   4.775   0.687   3.866  2.3927  1.0416  0.4438
15771TIP3   OH268727   6.006   1.395  14.463 -0.0055 -0.1339  0.1468
15771TIP3    H168728   6.044   1.311  14.437 -0.4844 -0.2530 -0.1757
15771TIP3    H268729   5.957   1.376  14.543  2.0200  0.3638  1.5944
15772TIP3   OH268730   2.773   3.821   5.204 -0.2194  0.2394  0.0620
15772TIP3    H168731   2.680   3.802   5.191 -0.2600  0.9681 -0.7641
15772TIP3    H268732   2.797   3.877   5.130  0.6835  0.7255  0.7076
15773TIP3   OH268733   6.147   3.457   0.065 -0.1498  0.0462 -0.5087
15773TIP3    H168734   6.209   3.384   0.059  0.1828  0.2034  0.7749
15773TIP3    H268735   6.198   3.530   0.099 -0.2134  1.2410 -2.7778
15774TIP3   OH268736   6.326   4.171   5.321  0.4383  0.7081 -0.2405
15774TIP3    H168737   6.313   4.215   5.237  2.0879  1.0014 -0.3793
15774TIP3    H268738   6.282   4.087   5.311 -1.7225  1.8054 -0.4029
15775TIP3   OH268739   4.802   6.651   5.494 -0.0747 -0.6011  0.0598
15775TIP3    H168740   4.897   6.661   5.488 -0.1488  0.2611  0.1729
15775TIP3    H268741   4.783   6.570   5.446  0.6752 -0.5656 -0.3050
15776TIP3   OH268742   5.509   0.167  13.955 -0.7668  0.4674 -0.0805
15776TIP3    H168743   5.487   0.183  14.047 -2.5532  0.2329 -0.4239
15776TIP3    H268744   5.544   0.078  13.954 -1.6047  0.1161  0.2857
15777TIP3   OH268745   6.268   2.181  14.785 -0.1292  0.4410  0.0664
15777TIP3    H168746   6.187   2.130  14.786 -0.7935  1.4787  1.1902
15777TIP3    H268747   6.329   2.127  14.734 -0.8167 -1.4401  1.1245
15778TIP3   OH268748   1.047   3.272   4.164  0.1322 -0.5395 -0.3359
15778TIP3    H168749   0.954   3.291   4.153  0.1869 -0.1149 -0.0691
15778TIP3    H268750   1.068   3.304   4.251  0.7833  0.3865 -0.8204
15779TIP3   OH268751   3.277   6.741  13.335 -0.0348 -0.1982  0.1028
15779TIP3    H168752   3.321   6.688  13.267  1.8227 -0.1987  1.2401
15779TIP3    H268753   3.321   6.826  13.331  0.0849 -0.1946  1.2832
15780TIP3   OH268754   6.486   6.265  16.362  0.0729 -0.4991  0.7521
15780TIP3    H168755   6.553   6.247  16.429  0.5409  0.7554  0.6534
15780TIP3    H268756   6.506   6.203  16.292  3.7799  2.3472 -1.0770
15781TIP3   OH268757   3.509   1.418  15.500 -0.0623 -0.0541 -0.2460
15781TIP3    H168758   3.569   1.441  15.571 -0.7935  0.6039  0.1801
15781TIP3    H268759   3.439   1.370  15.542 -0.5007  0.3344 -0.5173
15782TIP3   OH268760   5.520   6.648   0.202  0.0676 -0.7940 -0.4442
15782TIP3    H168761   5.527   6.743   0.207  1.0118 -0.8702 -0.0526
15782TIP3    H268762   5.466   6.624   0.278 -0.3589 -0.5570 -0.6711
15783TIP3   OH268763   0.497   5.819  13.861  0.2227  0.4057  0.3043
15783TIP3    H168764   0.581   5.863  13.852  1.0838 -1.3027 -0.4193
15783TIP3    H268765   0.514   5.729  13.834 -2.2646  0.4255 -1.6440
15784TIP3   OH268766   0.331   2.087  11.406  0.5222 -0.3344  0.6167
15784TIP3    H168767   0.338   2.038  11.324 -0.4230  1.7925 -0.8361
15784TIP3    H268768   0.411   2.067  11.454  0.8013 -2.1396 -0.5175
15785TIP3   OH268769   4.497   5.184  14.954  0.0674 -0.7193  0.4987
15785TIP3    H168770   4.533   5.118  15.014  1.0082 -1.7393 -1.1008
15785TIP3    H268771   4.561   5.255  14.956  0.8222 -1.3543 -0.2978
15786TIP3   OH268772   6.283   0.947   5.340  0.4368  0.1403  0.0859
15786TIP3    H168773   6.267   0.861   5.303  0.4401  0.0522  0.2897
15786TIP3    H268774   6.220   0.954   5.413 -1.1249  1.1757 -1.2888
15787TIP3   OH268775   1.506   1.626  14.483  0.3538  0.0071 -0.6851
15787TIP3    H168776   1.570   1.572  14.436  3.6931 -0.8810  4.1747
15787TIP3    H268777   1.454   1.563  14.533 -0.1086  1.0535  0.1834
15788TIP3   OH268778   4.578   6.635   4.940  0.3042 -0.1193  0.2638
15788TIP3    H168779   4.575   6.561   5.001 -3.2439  0.0232  0.4542
15788TIP3    H268780   4.513   6.697   4.974  0.1317  1.1899 -2.2295
15789TIP3   OH268781   2.589   5.561  14.891  0.1993 -0.2418  0.4874
15789TIP3    H168782   2.548   5.491  14.841  0.0604 -0.3257  0.7155
15789TIP3    H268783   2.679   5.532  14.905  0.6131  0.3433 -0.7904
15790TIP3   OH268784   1.577   0.723   4.016 -0.3300 -0.0383  0.1947
15790TIP3    H168785   1.606   0.781   3.945 -0.6778  2.9870  2.3765
15790TIP3    H268786   1.489   0.695   3.990  0.7281 -1.6728 -2.0047
15791TIP3   OH268787   5.095   3.923   1.634  0.4746 -0.0843 -0.5344
15791TIP3    H168788   5.114   3.829   1.642  2.2403  0.1867 -1.0781
15791TIP3    H268789   5.049   3.931   1.550  1.2656 -0.3450 -1.0014
15792TIP3   OH268790   0.103   6.690   3.424 -0.4093  0.0706 -0.4551
15792TIP3    H168791   0.182   6.674   3.476 -1.6498 -1.5091  1.0527
15792TIP3    H268792   0.090   6.785   3.429  1.2362  0.3205 -0.5275
15793TIP3   OH268793   5.688   3.937  12.415  0.3438  0.5615  0.4976
15793TIP3    H168794   5.699   3.843  12.427 -1.2099  0.3276  0.3337
15793TIP3    H268795   5.671   3.971  12.503  1.0436  0.7198  0.5763
15794TIP3   OH268796   3.075   3.484   3.247 -0.1601  0.1077 -0.1131
15794TIP3    H168797   3.020   3.406   3.245  1.2544 -1.0356  1.8227
15794TIP3    H268798   3.052   3.532   3.167 -0.6766 -2.5769 -1.6982
15795TIP3   OH268799   0.508   2.655   4.738 -0.4003  0.6802 -0.1958
15795TIP3    H168800   0.543   2.576   4.696 -0.0188  0.5110  0.4254
15795TIP3    H268801   0.570   2.674   4.808 -0.1813  1.8738 -0.6961
15796TIP3   OH268802   0.592   1.844   0.903  0.0181 -0.3753  0.3182
15796TIP3    H168803   0.674   1.796   0.893  0.1334 -0.1519  0.1811
15796TIP3    H268804   0.524   1.780   0.879  0.2690  0.0681 -1.8283
15797TIP3   OH268805   6.228   3.413  14.471 -0.4921  0.1132 -0.5574
15797TIP3    H168806   6.239   3.335  14.525 -0.4664  0.6531  0.2275
15797TIP3    H268807   6.223   3.485  14.533  0.7957  0.8970 -1.3150
15798TIP3   OH268808   4.532   6.617  11.942  0.4997 -0.0413 -0.3554
15798TIP3    H168809   4.620   6.650  11.958 -0.2979  1.6814  0.8013
15798TIP3    H268810   4.545   6.534  11.897  2.6986  0.2430 -0.3367
15799TIP3   OH268811   3.498   6.355  12.612 -0.3731 -0.2169 -0.1526
15799TIP3    H168812   3.486   6.276  12.559 -0.4352 -1.2486  1.3297
15799TIP3    H268813   3.586   6.386  12.590 -0.8635  0.1130 -1.7625
15800TIP3   OH268814   0.253   4.815   2.590  0.3876  0.5808 -0.0823
15800TIP3    H168815   0.208   4.739   2.552  2.2354 -0.3541 -0.5392
15800TIP3    H268816   0.188   4.885   2.589 -0.4119 -0.1001 -2.6791
15801TIP3   OH268817   5.444   6.772   2.775 -0.2584  0.8515 -0.2634
15801TIP3    H168818   5.386   6.703   2.809 -0.1878  1.3370  0.8997
15801TIP3    H268819   5.400   6.854   2.799 -0.3811  1.2353 -1.7028
15802TIP3   OH268820   1.261   4.844  12.562 -0.1558 -0.2543  0.1725
15802TIP3    H168821   1.303   4.856  12.647 -0.2417 -2.0086  0.4869
15802TIP3    H268822   1.304   4.908  12.505 -0.7962  1.6670  1.7364
15803TIP3   OH268823   2.768   1.632  14.785  0.3596 -0.1317  0.4024
15803TIP3    H168824   2.837   1.644  14.851  0.5505  0.0945  0.1614
15803TIP3    H268825   2.808   1.578  14.717  0.1509 -0.3941  0.4844
15804TIP3   OH268826   1.092   2.701   3.209 -0.4251  0.5353  0.4549
15804TIP3    H168827   1.123   2.718   3.298  1.3329  0.3812 -0.1060
15804TIP3    H268828   1.055   2.613   3.214  0.4775  0.1673  0.8349
15805TIP3   OH268829   4.600   4.407  13.965 -0.0000 -0.1683 -0.3832
15805TIP3    H168830   4.576   4.314  13.964  2.2076 -0.9534  3.2846
15805TIP3    H268831   4.692   4.408  13.937 -0.0049  0.9266 -0.4021
15806TIP3   OH268832   0.997   6.089  12.125 -0.1759 -0.3453  0.0585
15806TIP3    H168833   1.042   6.013  12.088  3.0507  1.0681  0.7902
15806TIP3    H268834   1.066   6.153  12.140 -2.0838  1.1383  3.5999
15807TIP3   OH268835   5.310   3.692   3.112  0.5730  0.4290 -0.0963
15807TIP3    H168836   5.301   3.747   3.034  0.6091  0.3377 -0.1655
15807TIP3    H268837   5.222   3.655   3.126  1.0357 -1.2768 -1.3781
15808TIP3   OH268838   4.910   4.752   3.989 -0.3574  0.2178  0.3495
15808TIP3    H168839   4.862   4.826   4.026 -1.1257  0.3946 -0.9589
15808TIP3    H268840   4.852   4.677   4.001 -0.7679  0.3404 -0.7850
15809TIP3   OH268841   5.764   0.931  13.728  0.1285  0.1255 -1.1701
15809TIP3    H168842   5.743   1.008  13.781 -0.3170  0.5652 -1.9563
15809TIP3    H268843   5.754   0.857  13.788  1.0133  0.7078 -0.2839
15810TIP3   OH268844   1.912   6.339  14.505  0.0052  0.1987  0.2968
15810TIP3    H168845   1.937   6.399  14.575  1.3621  0.4345 -0.3559
15810TIP3    H268846   1.894   6.396  14.430  2.3958 -0.1941 -0.6597
15811TIP3   OH268847   1.995   6.627  13.124 -0.2660 -0.3022 -0.1685
15811TIP3    H168848   1.984   6.722  13.117  0.3165 -0.1505  0.7676
15811TIP3    H268849   1.938   6.602  13.197 -0.2298 -0.6243 -0.2518
15812TIP3   OH268850   1.516   4.500   4.724  0.0376 -0.5000  0.6140
15812TIP3    H168851   1.440   4.557   4.735  0.5624  0.2333  0.4893
15812TIP3    H268852   1.559   4.501   4.810  1.4071  1.2903 -0.0234
15813TIP3   OH268853   4.768   1.651   0.897  0.2139  0.1505  0.6055
15813TIP3    H168854   4.747   1.645   0.803  0.2202  0.4359  0.5834
15813TIP3    H268855   4.857   1.618   0.904  0.2662  0.2654  0.4884
15814TIP3   OH268856   0.996   1.791   4.046 -0.5799 -0.1300 -0.4796
15814TIP3    H168857   1.010   1.744   4.128  1.4314 -0.1471 -0.7935
15814TIP3    H268858   0.995   1.883   4.072  0.9884 -0.0808 -0.5121
15815TIP3   OH268859   3.872   1.411  12.305  0.0064 -0.2667  0.0571
15815TIP3    H168860   3.925   1.419  12.225  0.3668 -0.7401  0.2458
15815TIP3    H268861   3.917   1.465  12.369  0.6935 -1.2449  0.4310
15816TIP3   OH268862   0.457   2.817   7.056 -0.2604 -0.2652 -0.2867
15816TIP3    H168863   0.528   2.867   7.098 -0.5288  3.0929 -3.2816
15816TIP3    H268864   0.503   2.755   6.998  0.3180  1.0031 -1.2493
15817TIP3   OH268865   4.333   2.346  16.044  0.3599 -0.2466 -0.0299
15817TIP3    H168866   4.345   2.254  16.067 -0.3902  0.3618  3.2885
15817TIP3    H268867   4.421   2.384  16.050  0.5910 -0.5955 -0.9357
15818TIP3   OH268868   1.354   3.559   5.760 -0.3958  0.2470  0.0664
15818TIP3    H168869   1.268   3.524   5.736 -0.4300 -0.8954  1.6777
15818TIP3    H268870   1.352   3.562   5.856  0.7441  1.8632  0.0835
15819TIP3   OH268871   4.395   5.221  10.426  0.3155  0.2496 -0.2723
15819TIP3    H168872   4.317   5.237  10.479 -0.0715 -0.0665 -0.7408
15819TIP3    H268873   4.420   5.131  10.445  1.8062  0.9782  1.4662
15820TIP3   OH268874   5.304   3.302   2.582 -0.1137  0.6102 -0.1024
15820TIP3    H168875   5.320   3.230   2.520 -1.2191 -1.2270  1.6277
15820TIP3    H268876   5.209   3.311   2.584  0.0182  2.3171 -0.4482
15821TIP3   OH268877   2.347   2.177  14.980 -0.0940 -0.0434  0.4105
15821TIP3    H168878   2.421   2.194  15.038  0.3513 -1.0195  0.1483
15821TIP3    H268879   2.346   2.082  14.970 -2.2653 -0.1796  1.5405
15822TIP3   OH268880   0.121   4.025  12.764  0.0553  0.1846 -0.0403
15822TIP3    H168881   0.067   3.960  12.719 -0.4394 -0.2337  1.1336
15822TIP3    H268882   0.060   4.094  12.790 -0.1310 -0.7339  2.1282
15823TIP3   OH268883   5.139   0.994   3.418 -0.3134 -0.5193  0.2941
15823TIP3    H168884   5.213   0.935   3.401 -0.0484 -0.5803  1.5513
15823TIP3    H268885   5.063   0.949   3.381  0.0225 -1.2520  0.4742
15824TIP3   OH268886   5.783   6.325   4.907 -0.2616 -0.3313 -0.3924
15824TIP3    H168887   5.777   6.366   4.820  0.8009  1.9335  0.5118
15824TIP3    H268888   5.877   6.322   4.925 -0.4743 -0.7788  0.6832
15825TIP3   OH268889   5.985   2.250   2.653  0.5809 -0.4268  0.0219
15825TIP3    H168890   5.924   2.307   2.699  0.4764 -0.2493 -0.3273
15825TIP3    H268891   6.002   2.178   2.714 -1.8252 -1.7279 -0.7062
15826TIP3   OH268892   0.254   5.478   1.507 -0.1295 -0.0324 -0.1725
15826TIP3    H168893   0.216   5.550   1.557  0.9190 -0.1714  0.8719
15826TIP3    H268894   0.234   5.400   1.559 -0.4744 -0.3900 -0.8343
15827TIP3   OH268895   0.909   4.017   0.158  0.3727 -0.4989  0.5662
15827TIP3    H168896   0.848   4.014   0.231 -0.9520  1.1511 -0.3999
15827TIP3    H268897   0.858   3.985   0.083  0.7995  0.5214 -0.1818
15828TIP3   OH268898   4.522   5.679   0.627 -0.2840  0.1328  0.7123
15828TIP3    H168899   4.463   5.662   0.700  1.7224 -4.0202  1.7075
15828TIP3    H268900   4.602   5.713   0.667  0.6300 -1.6206  0.4753
15829TIP3   OH268901   1.247   0.882   3.292 -0.0340  0.6122 -0.6508
15829TIP3    H168902   1.323   0.855   3.343 -0.4834 -1.5884 -1.0440
15829TIP3    H268903   1.204   0.949   3.346  0.5972 -0.1983  0.9053
15830TIP3   OH268904   3.438   2.926   0.735 -0.1037  0.8467  0.2603
15830TIP3    H168905   3.500   2.967   0.675  1.1976 -1.5176 -0.1284
15830TIP3    H268906   3.373   2.885   0.677 -1.0877  1.8265  0.6284
15831TIP3   OH268907   3.356   1.042  17.025 -0.1504  0.7498 -0.7862
15831TIP3    H168908   3.405   0.963  17.004 -1.1408 -0.0480 -0.1931
15831TIP3    H268909   3.423   1.107  17.048  0.6015 -0.8303  1.8635
15832TIP3   OH268910   4.446   6.705  12.560 -0.0669  0.8343 -0.4180
15832TIP3    H168911   4.418   6.659  12.640 -0.7279  0.2909 -0.9511
15832TIP3    H268912   4.538   6.681  12.550  0.7200  2.7275  1.4244
15833TIP3   OH268913   3.673   3.834   0.660 -0.7284  0.7213  0.0608
15833TIP3    H168914   3.748   3.864   0.608 -1.2143  0.7346 -0.6521
15833TIP3    H268915   3.669   3.740   0.644  1.5030 -0.0790  3.2121
15834TIP3   OH268916   3.631   5.368   4.470 -0.1539 -0.1494 -0.2885
15834TIP3    H168917   3.662   5.286   4.510  1.0855  0.9140  1.0305
15834TIP3    H268918   3.588   5.415   4.541 -1.9797 -0.1453 -1.3281
15835TIP3   OH268919   1.390   1.577   2.997 -0.0341  0.8985  0.2419
15835TIP3    H168920   1.428   1.538   3.076 -0.0440 -0.2202 -0.2791
15835TIP3    H268921   1.458   1.637   2.965  0.2754  0.7977  0.6989
15836TIP3   OH268922   4.086   3.805   3.742  0.2673 -0.1595  0.7654
15836TIP3    H168923   4.072   3.889   3.699  1.4201 -0.8166 -0.9679
15836TIP3    H268924   4.017   3.749   3.708 -0.7222  0.1248  2.1916
15837TIP3   OH268925   5.846   5.476  11.124  0.2290  0.2668 -0.0360
15837TIP3    H168926   5.919   5.539  11.117 -0.2282  0.9379  1.0568
15837TIP3    H268927   5.828   5.451  11.033  1.2796  0.7201 -0.3851
15838TIP3   OH268928   6.001   1.224   3.419 -0.0323 -0.3667  0.0376
15838TIP3    H168929   6.083   1.272   3.431 -0.0526  0.3962 -2.4016
15838TIP3    H268930   5.935   1.278   3.464  0.5244 -0.0855  0.5329
15839TIP3   OH268931   1.229   5.463   4.441 -0.0312  0.7467 -0.5855
15839TIP3    H168932   1.246   5.480   4.533 -1.2912  1.1581 -0.4190
15839TIP3    H268933   1.297   5.400   4.416 -0.0737  0.1078  0.7952
15840TIP3   OH268934   2.465   2.380   4.523  0.4006 -0.2723  0.1426
15840TIP3    H168935   2.552   2.414   4.499  1.2085 -1.3502  1.4677
15840TIP3    H268936   2.433   2.339   4.442  1.4933 -0.6323 -0.1215
15841TIP3   OH268937   5.746   6.013  15.539  0.2731 -0.0520  0.0495
15841TIP3    H168938   5.757   6.011  15.444  0.7685 -0.1537  0.1079
15841TIP3    H268939   5.691   5.936  15.559  1.3849 -0.8776 -0.0023
15842TIP3   OH268940   4.636   2.407   0.772  0.1254  0.2056 -0.5492
15842TIP3    H168941   4.586   2.471   0.721  1.4580  2.4248  0.7534
15842TIP3    H268942   4.631   2.439   0.862  1.0160 -1.4527  0.1347
15843TIP3   OH268943   4.615   5.500  14.174 -0.4017  0.1776 -0.1424
15843TIP3    H168944   4.545   5.550  14.216  0.9726  0.3959  2.0094
15843TIP3    H268945   4.678   5.483  14.243  0.6536 -1.9345 -1.5056
15844TIP3   OH268946   1.439   1.570   0.715  0.2865  0.3871 -0.1432
15844TIP3    H168947   1.526   1.607   0.735 -0.3483  1.4230  0.8107
15844TIP3    H268948   1.388   1.645   0.685 -0.6537  0.0199  0.5298
15845TIP3   OH268949   3.943   5.362   2.524 -0.3302 -0.1690 -0.4115
15845TIP3    H168950   3.956   5.370   2.618  2.5073  1.2009 -0.8143
15845TIP3    H268951   3.899   5.443   2.498 -1.7648 -0.8577 -0.2233
15846TIP3   OH268952   2.766   4.699  13.248 -0.4456  0.3135 -0.3701
15846TIP3    H168953   2.736   4.707  13.158  1.0946 -0.0618 -0.9480
15846TIP3    H268954   2.825   4.623  13.247  1.9745  2.0622  0.2246
15847TIP3   OH268955   3.372   1.859  14.884 -0.2519  0.0798 -0.0084
15847TIP3    H168956   3.413   1.776  14.909  2.9517  1.7262  0.6789
15847TIP3    H268957   3.350   1.848  14.792 -1.2859 -2.0040  0.4371
15848TIP3   OH268958   0.352   3.018   0.061  0.4622 -0.0807 -0.1298
15848TIP3    H168959   0.260   3.013   0.035  0.5038  0.2319 -0.3434
15848TIP3    H268960   0.377   2.927   0.080  0.1941 -0.2018 -0.3611
15849TIP3   OH268961   5.032   4.961  12.450 -0.4821 -0.4274  0.0448
15849TIP3    H168962   5.048   4.893  12.385 -1.3955 -1.9535  1.3543
15849TIP3    H268963   5.106   4.955  12.510 -0.4183 -0.0454  0.0121
15850TIP3   OH268964   4.048   4.449  15.049  0.2945  0.1459  0.4952
15850TIP3    H168965   4.006   4.366  15.072 -0.5558  0.1587 -0.9169
15850TIP3    H268966   3.976   4.512  15.043  0.9709  1.1301  1.9637
15851TIP3   OH268967   2.367   0.037  12.342 -0.1011 -0.1900  0.2361
15851TIP3    H168968   2.310   0.114  12.341 -2.1446 -1.6498 -0.9471
15851TIP3    H268969   2.334  -0.016  12.414  0.0499 -0.8748 -0.1984
15852TIP3   OH268970   5.744   5.922  14.554 -0.3036 -0.0118  0.6939
15852TIP3    H168971   5.708   5.834  14.548  0.6978 -0.3555 -0.9917
15852TIP3    H268972   5.820   5.921  14.496 -1.8873  2.7460 -1.7604
15853TIP3   OH268973   4.017   2.823   0.675 -0.2182 -0.1417  0.2979
15853TIP3    H168974   4.029   2.899   0.733 -1.1962  0.2422  0.0172
15853TIP3    H268975   4.051   2.853   0.590  0.7766 -0.5423  0.5400
15854TIP3   OH268976   5.260   3.215   0.990 -0.1930 -0.4483  0.1558
15854TIP3    H168977   5.215   3.220   1.074  0.4336 -1.9028  0.6068
15854TIP3    H268978   5.333   3.277   0.997 -0.8273  0.3116  0.2194
15855TIP3   OH268979   1.203   0.024   3.444  0.0325 -0.7296  0.4622
15855TIP3    H168980   1.144   0.065   3.382 -1.3393 -2.1068  0.7808
15855TIP3    H268981   1.194   0.075   3.524 -2.2789 -2.0175  1.1110
15856TIP3   OH268982   3.452   2.008   5.500 -0.0119  0.1856 -0.6134
15856TIP3    H168983   3.499   1.983   5.579 -1.0398 -1.6731 -0.5380
15856TIP3    H268984   3.496   1.961   5.429  0.2573  1.0156 -1.0067
15857TIP3   OH268985   4.535   6.376  15.053  0.3116  0.4168  0.3259
15857TIP3    H168986   4.497   6.329  14.978 -0.1975  0.7637  0.3644
15857TIP3    H268987   4.621   6.403  15.022 -0.3099  1.5231 -0.5463
15858TIP3   OH268988   4.937   3.902   3.580  0.5210  0.0220 -0.1617
15858TIP3    H168989   4.980   3.850   3.513  0.3382 -0.3570  0.0150
15858TIP3    H268990   4.860   3.851   3.605 -0.1796  0.8047 -0.6589
15859TIP3   OH268991   2.844   4.156   4.618  0.1987 -0.1920  0.4470
15859TIP3    H168992   2.905   4.090   4.649  0.9193  0.7713  1.1203
15859TIP3    H268993   2.860   4.232   4.673 -1.3891  0.2014  0.4361
15860TIP3   OH268994   3.888   3.014   1.955 -0.2046 -0.5003 -0.1066
15860TIP3    H168995   3.812   3.029   1.899  1.2545  1.4679 -1.7231
15860TIP3    H268996   3.958   2.992   1.894  0.7541 -1.3100  1.2474
15861TIP3   OH268997   1.298   3.994   3.460  0.8496 -0.2824 -0.2767
15861TIP3    H168998   1.240   3.984   3.384 -1.5523  0.3146  1.3481
15861TIP3    H268999   1.338   3.908   3.471 -2.4837 -1.8855  0.5314
15862TIP3   OH269000   6.420   5.313  16.019  0.7336  0.0341  0.4341
15862TIP3    H169001   6.332   5.347  16.006  0.5447 -0.6301 -0.1199
15862TIP3    H269002   6.453   5.359  16.095 -0.4791 -0.4463  1.2842
15863TIP3   OH269003   0.540   3.178   2.386  0.3307 -0.1433 -0.1734
15863TIP3    H169004   0.627   3.198   2.420 -0.3197  0.2101  1.4321
15863TIP3    H269005   0.539   3.083   2.374  1.3058 -0.0135 -1.3578
15864TIP3   OH269006   2.080   1.352  16.140 -0.1216  0.1771  0.6900
15864TIP3    H169007   2.091   1.442  16.172 -0.1831  0.9336 -1.2848
15864TIP3    H269008   2.170   1.319  16.133  0.0947  0.9942 -0.9157
15865TIP3   OH269009   3.245   1.753   4.026 -0.2070 -0.3532 -0.7313
15865TIP3    H169010   3.304   1.741   4.100 -2.3409  0.8501  1.2842
15865TIP3    H269011   3.280   1.695   3.958  3.7837  0.9613 -0.0753
15866TIP3   OH269012   4.215   1.097   5.615  0.8414 -0.2670  0.0119
15866TIP3    H169013   4.126   1.094   5.650  1.1433  1.0097  0.9916
15866TIP3    H269014   4.209   1.056   5.529 -0.7754  0.1984 -0.1242
15867TIP3   OH269015   0.755   0.653  12.480  0.5260  0.1523  0.1437
15867TIP3    H169016   0.834   0.690  12.442  1.5946 -0.2909  1.8159
15867TIP3    H269017   0.684   0.709  12.448  1.3767  0.1206 -1.9885
15868TIP3   OH269018   2.080   3.505  16.116  0.4199  0.2698  0.4963
15868TIP3    H169019   2.145   3.540  16.176  2.9758 -3.0966 -0.0511
15868TIP3    H269020   2.018   3.458  16.172  0.3646  0.6554  0.7646
15869TIP3   OH269021   2.734   6.750   4.474 -0.6263 -0.3122  0.0102
15869TIP3    H169022   2.649   6.711   4.493 -1.5536  0.9257 -1.3333
15869TIP3    H269023   2.717   6.844   4.475  0.6479 -0.0573 -0.6883
15870TIP3   OH269024   0.503   3.805   0.972 -0.3864 -0.0699 -0.0073
15870TIP3    H169025   0.426   3.748   0.964  0.1331 -0.4388 -3.6156
15870TIP3    H269026   0.523   3.832   0.883  1.2573  3.3934  1.2312
15871TIP3   OH269027   3.010   6.386   4.612  0.0323  0.8100  0.4420
15871TIP3    H169028   3.089   6.435   4.636  0.2924 -0.1619  1.6822
15871TIP3    H269029   2.982   6.426   4.529  0.8405  2.3035  0.8359
15872TIP3   OH269030   3.039   1.885   2.578  0.2441  0.3715  0.5896
15872TIP3    H169031   3.012   1.802   2.618 -2.5861  0.2505 -1.2800
15872TIP3    H269032   3.066   1.861   2.490  2.3265  1.1299  0.9753
15873TIP3   OH269033   6.541   5.486   0.024  0.2979  0.0669  0.3901
15873TIP3    H169034   6.524   5.545   0.098 -1.6019 -0.1550  0.1833
15873TIP3    H269035   6.505   5.402   0.053 -1.6213  0.2766 -1.2166
15874TIP3   OH269036   5.194   4.551   2.329 -0.4481 -0.4822  0.0276
15874TIP3    H169037   5.225   4.481   2.271 -0.6433  0.8613 -1.7961
15874TIP3    H269038   5.099   4.551   2.319 -0.6623 -1.3094  1.7003
15875TIP3   OH269039   2.765   6.427   4.118  0.2818 -0.5196  0.1748
15875TIP3    H169040   2.856   6.440   4.144 -0.0242  0.3286  0.8958
15875TIP3    H269041   2.715   6.435   4.199 -0.5289  0.1549 -0.3673
15876TIP3   OH269042   6.297   6.431   6.125  0.0458  0.1716 -0.4089
15876TIP3    H169043   6.223   6.486   6.150  0.2659  0.2504  0.0846
15876TIP3    H269044   6.302   6.364   6.193  1.9499  1.6235  1.0182
15877TIP3   OH269045   3.400   5.626   5.554  0.2727 -0.9239  0.0578
15877TIP3    H169046   3.475   5.568   5.537  1.8446  0.7726  0.9447
15877TIP3    H269047   3.390   5.676   5.473  1.1936  0.0099  0.5062
15878TIP3   OH269048   5.950   0.882   4.267 -0.1749 -0.1656  0.5910
15878TIP3    H169049   5.978   0.942   4.199 -0.9798  0.7791  1.0687
15878TIP3    H269050   5.996   0.800   4.248 -0.5942 -0.0116 -1.2433
15879TIP3   OH269051   2.682   0.448   5.599 -0.3993 -0.1850  0.6558
15879TIP3    H169052   2.776   0.440   5.615  0.0746 -2.4322 -2.3979
15879TIP3    H269053   2.644   0.373   5.646 -0.3403 -0.6549 -0.0366
15880TIP3   OH269054   3.707   4.001   1.073 -0.4436 -0.6049 -0.1223
15880TIP3    H169055   3.791   4.006   1.119 -1.4442  0.7369  1.6798
15880TIP3    H269056   3.666   3.922   1.106  0.2906 -1.5614 -1.4128
15881TIP3   OH269057   5.610   0.430   5.973 -0.7158  0.4000  0.0313
15881TIP3    H169058   5.629   0.493   6.043 -0.7084  1.3542 -0.8189
15881TIP3    H269059   5.639   0.473   5.893 -0.0503 -0.9704 -0.5064
15882TIP3   OH269060   3.416   3.343   2.894 -0.0160 -0.3686 -0.3381
15882TIP3    H169061   3.494   3.344   2.839  1.1096  1.9366  1.1334
15882TIP3    H269062   3.355   3.402   2.850 -0.6797 -1.5568 -1.0723
15883TIP3   OH269063   0.719   6.208  13.987 -0.0217 -0.4453  0.7145
15883TIP3    H169064   0.730   6.294  14.028 -1.2208 -0.5498  1.2875
15883TIP3    H269065   0.632   6.210  13.948  1.0559 -0.3605 -1.9009
15884TIP3   OH269066   5.495   5.042   5.553 -0.4610 -0.0551 -0.2617
15884TIP3    H169067   5.447   5.072   5.630  1.2047  1.2784  0.3076
15884TIP3    H269068   5.492   5.115   5.492  2.9258  1.2233  0.8186
15885TIP3   OH269069   6.700   4.281   4.585 -0.0634  0.1155 -0.4457
15885TIP3    H169070   6.783   4.232   4.583 -0.7375 -1.0468 -1.0334
15885TIP3    H269071   6.719   4.357   4.640  0.7018 -1.4441  1.5828
15886TIP3   OH269072   0.989   4.645   1.241 -0.0949 -0.0100 -0.1643
15886TIP3    H169073   1.027   4.605   1.163 -1.0167 -1.3306  0.0344
15886TIP3    H269074   0.914   4.695   1.208 -0.1321 -0.0861 -0.1957
15887TIP3   OH269075   1.344   2.713  11.920 -0.2324  0.4575 -0.0216
15887TIP3    H169076   1.263   2.672  11.888 -0.2566 -0.2867  0.9466
15887TIP3    H269077   1.365   2.664  12.000  0.8798  1.0043  0.0284
15888TIP3   OH269078   0.681   1.844   2.612  0.3117 -0.4694 -0.1880
15888TIP3    H169079   0.636   1.917   2.569  0.6811 -0.8513 -1.2765
15888TIP3    H269080   0.662   1.855   2.705  1.1141  1.5540 -0.1907
15889TIP3   OH269081   0.845   1.682  16.718 -0.0853 -0.4355  0.7783
15889TIP3    H169082   0.874   1.733  16.793 -0.4750 -0.1401  0.7308
15889TIP3    H269083   0.756   1.654  16.740 -1.0447  1.4837 -0.4624
15890TIP3   OH269084   6.411   3.202  10.378 -0.3608  0.0637  0.2687
15890TIP3    H169085   6.358   3.243  10.310  1.1103 -0.2513 -1.1459
15890TIP3    H269086   6.362   3.214  10.459 -0.9677  2.7226 -0.4290
15891TIP3   OH269087   5.683   4.304   6.831  0.6382 -0.9388 -0.4723
15891TIP3    H169088   5.669   4.318   6.737 -0.7322 -0.2428 -0.1867
15891TIP3    H269089   5.761   4.356   6.851 -0.5759  1.1080 -0.7389
15892TIP3   OH269090   6.287   5.235  15.331 -0.1542 -0.0515 -0.3472
15892TIP3    H169091   6.297   5.201  15.241  0.5725  0.5401 -0.5007
15892TIP3    H269092   6.234   5.314  15.321 -1.3895 -0.8183 -0.0544
15893TIP3   OH269093   6.654   1.757  10.705  0.4184 -0.8620 -0.5722
15893TIP3    H169094   6.566   1.790  10.724  0.7929  0.1813 -0.5852
15893TIP3    H269095   6.655   1.669  10.741  0.1304 -0.0477  1.5292
15894TIP3   OH269096   1.552   5.953   1.690  0.1434  0.0621 -0.4758
15894TIP3    H169097   1.634   5.915   1.721  1.3305  1.4549 -1.8036
15894TIP3    H269098   1.531   5.905   1.610 -0.3622 -0.2734 -0.1557
15895TIP3   OH269099   2.124   4.422  15.165  0.0387 -0.1038 -0.1389
15895TIP3    H169100   2.134   4.473  15.245 -0.5530  0.0670 -0.1686
15895TIP3    H269101   2.080   4.481  15.104 -1.6038 -0.9360  0.1524
15896TIP3   OH269102   3.427   4.479  13.179  0.3173  0.0228  0.0714
15896TIP3    H169103   3.503   4.535  13.166  0.0072  0.5229  0.3949
15896TIP3    H269104   3.397   4.458  13.091 -0.0396  1.0103 -0.0451
15897TIP3   OH269105   6.547   6.642  11.314 -0.0501 -0.3026  0.4356
15897TIP3    H169106   6.570   6.572  11.253 -3.0139 -0.1028 -1.1148
15897TIP3    H269107   6.452   6.634  11.325 -0.0046  1.3833  2.9406
15898TIP3   OH269108   6.359   0.369   1.670 -0.0545  0.2601 -0.7698
15898TIP3    H169109   6.389   0.395   1.757 -1.8801 -1.0931  0.3495
15898TIP3    H269110   6.353   0.451   1.621  1.0025  1.0512  0.3639
15899TIP3   OH269111   5.749   1.971   0.244 -0.5612 -0.5002  0.0856
15899TIP3    H169112   5.790   2.005   0.164  0.0605  1.3054  1.0982
15899TIP3    H269113   5.823   1.938   0.297 -1.1087 -3.1480 -0.6669
15900TIP3   OH269114   4.764   2.524  11.779  0.0304 -0.9288  0.2242
15900TIP3    H169115   4.796   2.460  11.843 -0.7343 -0.6414  0.9072
15900TIP3    H269116   4.805   2.607  11.805 -0.4206 -0.7762  0.4506
15901TIP3   OH269117   3.694   4.052   1.559  0.7654  0.6137 -0.3884
15901TIP3    H169118   3.761   4.091   1.615  0.0566  0.0865  0.8650
15901TIP3    H269119   3.667   4.123   1.501  0.3765  1.6648  1.0192
15902TIP3   OH269120   4.896   0.467  12.092  0.1558  0.4174  0.4164
15902TIP3    H169121   4.944   0.452  12.010  1.2005  2.0398  0.6735
15902TIP3    H269122   4.885   0.380  12.129  0.8300 -0.2324 -0.8208
15903TIP3   OH269123   3.278   6.654   6.251 -0.1317  0.1192 -0.0242
15903TIP3    H169124   3.215   6.725   6.240 -0.1919  0.1311  0.3786
15903TIP3    H269125   3.340   6.665   6.178 -0.6855  0.0018 -0.5220
15904TIP3   OH269126   5.457   0.521   1.040  0.1156  0.1512 -0.0750
15904TIP3    H169127   5.491   0.581   1.107  0.1474  0.1181 -0.0613
15904TIP3    H269128   5.535   0.487   0.996  0.0709  0.6423 -0.5406
15905TIP3   OH269129   5.638   3.630  16.167 -0.1279  0.1071  0.1056
15905TIP3    H169130   5.693   3.668  16.235 -0.0147  0.0254  0.0594
15905TIP3    H269131   5.548   3.648  16.195 -0.0735  1.7305 -0.6483
15906TIP3   OH269132   2.823   5.619   0.384  0.1901 -0.2042 -0.6610
15906TIP3    H169133   2.739   5.584   0.415 -0.1063  0.9823 -0.0376
15906TIP3    H269134   2.800   5.670   0.306  0.2507  0.4728 -0.2441
15907TIP3   OH269135   5.007   2.580   0.686 -0.1859 -0.2620  0.2167
15907TIP3    H169136   5.049   2.605   0.603 -0.0787  0.6346  0.5290
15907TIP3    H269137   4.962   2.498   0.666 -1.2629  0.5961 -1.1193
15908TIP3   OH269138   5.412   1.095   1.283 -0.1612 -0.3016 -0.1128
15908TIP3    H169139   5.423   1.174   1.230  1.2361 -2.4591 -3.3319
15908TIP3    H269140   5.320   1.096   1.308 -0.4357  1.7771 -1.0036
15909TIP3   OH269141   5.073   0.652   2.430 -0.5584 -0.1800 -0.0994
15909TIP3    H169142   5.027   0.719   2.380  0.6370 -0.5307 -1.7735
15909TIP3    H269143   5.139   0.701   2.480 -0.8499  0.0467  0.0690
15910TIP3   OH269144   3.693   4.407   3.149  0.1886 -0.1636 -0.1352
15910TIP3    H169145   3.615   4.380   3.196  0.4218  0.5524  0.7061
15910TIP3    H269146   3.748   4.329   3.146 -0.2258 -0.4632 -0.0548
15911TIP3   OH269147   0.718   0.043   0.039  0.0603  0.6019 -0.3377
15911TIP3    H169148   0.744   0.134   0.058  0.8155  0.4443 -0.5890
15911TIP3    H269149   0.796  -0.009   0.059  0.1114  0.1683 -1.5794
15912TIP3   OH269150   4.009   3.981  13.588 -0.7779 -0.2761  0.4456
15912TIP3    H169151   3.960   3.937  13.657 -1.6121 -0.6037 -0.3360
15912TIP3    H269152   4.037   3.910  13.530 -0.4544  0.0382  0.2117
15913TIP3   OH269153   6.536   2.463   0.564  0.4284  0.4682  0.5461
15913TIP3    H169154   6.601   2.489   0.629  0.8151  1.0984 -0.0830
15913TIP3    H269155   6.586   2.427   0.491 -0.0511 -1.1779  0.9838
15914TIP3   OH269156   6.537   3.965   2.147  0.4218  0.5248  0.2657
15914TIP3    H169157   6.564   3.998   2.061 -0.5662  0.2583 -0.1529
15914TIP3    H269158   6.453   4.006   2.163  0.0606 -0.3272  0.5840
15915TIP3   OH269159   0.874   2.269  14.822  0.3264 -0.1664 -0.4608
15915TIP3    H169160   0.854   2.279  14.730 -2.4288 -2.0614 -0.1836
15915TIP3    H269161   0.795   2.296  14.868  1.4642  0.2910  1.3691
15916TIP3   OH269162   3.818   0.607  16.651 -0.3597  0.0077 -0.4178
15916TIP3    H169163   3.902   0.628  16.612  0.4744 -1.4250  0.5196
15916TIP3    H269164   3.821   0.646  16.738 -1.0145  0.6349 -0.6601
15917TIP3   OH269165   0.485   2.894  16.214  0.5110 -0.1388  0.0593
15917TIP3    H169166   0.467   2.975  16.261 -1.6724  0.0209 -0.9437
15917TIP3    H269167   0.543   2.845  16.272  0.4007  1.3436  1.4954
15918TIP3   OH269168   4.946   2.033  16.841  0.4205  0.4087 -0.5784
15918TIP3    H169169   5.014   2.098  16.861 -0.5600  0.7424  2.1829
15918TIP3    H269170   4.992   1.949  16.845  1.1584  0.7678 -1.3315
15919TIP3   OH269171   2.775   6.030   5.507 -0.2745  0.1142  0.4501
15919TIP3    H169172   2.710   5.984   5.560 -1.8417  0.2810 -1.2484
15919TIP3    H269173   2.734   6.115   5.489  1.1973  0.9312  0.8393
15920TIP3   OH269174   0.691   2.742   1.509 -0.4967 -0.0740  0.0307
15920TIP3    H169175   0.731   2.822   1.474 -0.2163 -0.3915 -0.3867
15920TIP3    H269176   0.642   2.771   1.586 -0.2170  0.4648  0.0082
15921TIP3   OH269177   1.528   1.898  13.974  0.3572 -0.0631 -0.1455
15921TIP3    H169178   1.524   1.937  14.061  0.1774 -0.3730 -0.0125
15921TIP3    H269179   1.576   1.817  13.986  0.9748  0.2488 -0.4717
15922TIP3   OH269180   1.196   0.521   5.261  0.3762 -0.2055  0.2173
15922TIP3    H169181   1.126   0.456   5.251  0.1294 -0.0372  0.7837
15922TIP3    H269182   1.156   0.592   5.311  0.0732  1.2885 -2.0231
15923TIP3   OH269183   5.102   6.596  10.718  0.0863  0.0517 -0.0399
15923TIP3    H169184   5.008   6.580  10.711  0.3401 -1.0150 -1.4141
15923TIP3    H269185   5.114   6.685  10.684 -0.3700  0.0280 -0.2602
15924TIP3   OH269186   6.516   0.523  15.650 -0.6237  0.3742 -0.3230
15924TIP3    H169187   6.574   0.448  15.634  0.8537  1.3478  0.2385
15924TIP3    H269188   6.516   0.571  15.568 -0.7350  0.3053 -0.3630
15925TIP3   OH269189   3.474   2.059   3.325 -0.0409  0.2180  0.2596
15925TIP3    H169190   3.503   2.107   3.247 -0.5129  0.5340  0.2743
15925TIP3    H269191   3.456   1.971   3.293  0.2153  0.2229  0.1003
15926TIP3   OH269192   3.182   6.795   5.010  0.0693 -0.3955 -0.3291
15926TIP3    H169193   3.148   6.830   5.092 -3.5717 -2.2908 -0.8095
15926TIP3    H269194   3.219   6.710   5.034  1.0324 -0.0005 -0.3775
15927TIP3   OH269195   2.667   3.222  14.535 -0.1121  0.0293 -0.0723
15927TIP3    H169196   2.629   3.307  14.556  0.1452  0.2855 -0.6192
15927TIP3    H269197   2.603   3.158  14.567  0.5560  0.3667  2.0757
15928TIP3   OH269198   4.299   0.289   1.315  0.4160  0.3288 -0.4622
15928TIP3    H169199   4.308   0.368   1.368 -0.4681 -0.1683  0.4726
15928TIP3    H269200   4.222   0.306   1.260 -0.1991 -0.1298  0.2344
15929TIP3   OH269201   2.627   1.634  13.656 -0.9718 -0.4901  0.0593
15929TIP3    H169202   2.648   1.560  13.598  0.0285  0.2673 -0.5720
15929TIP3    H269203   2.577   1.594  13.727  1.5420 -2.2198  0.9963
15930TIP3   OH269204   3.375   4.471  12.361  0.6583  0.6432  0.2586
15930TIP3    H169205   3.465   4.445  12.378 -0.2635 -2.4845  1.1215
15930TIP3    H269206   3.355   4.434  12.275 -0.3247 -0.3707  0.9037
15931TIP3   OH269207   2.784   6.764  16.397 -0.6217  0.4420  0.2581
15931TIP3    H169208   2.848   6.790  16.331 -2.0396  0.8911 -0.9841
15931TIP3    H269209   2.828   6.780  16.480  1.2824 -0.3419 -0.5458
15932TIP3   OH269210   6.679   0.445  13.607 -0.4644 -0.2948  0.0463
15932TIP3    H169211   6.725   0.463  13.688 -1.9957 -2.4844  1.5057
15932TIP3    H269212   6.635   0.528  13.585 -1.6906 -0.1886  2.6142
15933TIP3   OH269213   3.084   0.470   0.457 -0.0185 -0.2953 -0.2608
15933TIP3    H169214   3.058   0.562   0.457  1.3963  0.1305 -0.5910
15933TIP3    H269215   3.113   0.453   0.547  1.4678  0.1391 -0.6242
15934TIP3   OH269216   0.358   2.002  14.588 -0.0576 -0.2831 -0.0789
15934TIP3    H169217   0.347   2.041  14.674 -1.5666 -0.5343 -0.1222
15934TIP3    H269218   0.284   1.941  14.579 -0.7589  0.7376 -2.0556
15935TIP3   OH269219   2.283   0.402  16.677 -0.5201 -0.0615  0.0403
15935TIP3    H169220   2.242   0.409  16.591 -0.7343  0.8692  0.2094
15935TIP3    H269221   2.316   0.490  16.696 -0.0178 -0.3745  0.6849
15936TIP3   OH269222   2.790   4.396  16.671  0.2500  0.3651  0.3257
15936TIP3    H169223   2.819   4.434  16.754  0.3547  0.9940  0.0093
15936TIP3    H269224   2.831   4.310  16.668  0.9100  0.6651  0.5484
15937TIP3   OH269225   2.708   5.364   0.236 -0.4406  0.3852 -0.1911
15937TIP3    H169226   2.780   5.408   0.192 -0.2081 -0.9094 -1.1812
15937TIP3    H269227   2.647   5.341   0.165 -1.3295  0.5522  0.4985
15938TIP3   OH269228   1.882   2.877  11.855  0.2457  0.4554  0.9320
15938TIP3    H169229   1.977   2.880  11.855  0.2506  0.3669  1.4993
15938TIP3    H269230   1.859   2.828  11.776  0.7010 -0.4355  1.3378
15939TIP3   OH269231   0.122   0.180  14.231  0.6268  0.4530  0.5099
15939TIP3    H169232   0.169   0.219  14.304 -1.0184  0.8515  1.3909
15939TIP3    H269233   0.063   0.117  14.271  0.0260  0.3463 -0.5159
15940TIP3   OH269234   1.408   4.146  15.835  0.1226 -0.5979  0.1606
15940TIP3    H169235   1.424   4.239  15.821  1.3364 -0.9198 -0.7675
15940TIP3    H269236   1.331   4.143  15.893  0.8898  0.9893  1.3260
15941TIP3   OH269237   1.170   5.892   2.296  0.0216 -0.3898  0.7757
15941TIP3    H169238   1.265   5.882   2.302  0.0245 -0.9447  0.0095
15941TIP3    H269239   1.147   5.850   2.213 -0.8842 -0.1803  0.9100
15942TIP3   OH269240   3.768   1.149  12.224  0.3545  0.6713 -0.6699
15942TIP3    H169241   3.845   1.094  12.213  1.3483  1.9368 -0.3633
15942TIP3    H269242   3.801   1.227  12.269 -1.4125  0.5765  0.8854
15943TIP3   OH269243   0.929   0.579   0.829 -0.1504 -1.0214  0.1519
15943TIP3    H169244   0.910   0.555   0.738 -0.3221 -1.9348  0.4186
15943TIP3    H269245   1.004   0.525   0.853  1.1531  0.6441 -0.0482
15944TIP3   OH269246   5.158   0.894  16.750 -0.2335 -0.1855  0.1769
15944TIP3    H169247   5.123   0.842  16.822  0.7411 -0.3542  0.5496
15944TIP3    H269248   5.220   0.954  16.792 -0.9507  0.9265 -0.3156
15945TIP3   OH269249   6.454   4.542  12.491  0.0114 -0.5557 -0.3839
15945TIP3    H169250   6.444   4.526  12.397 -4.6166 -1.8926  0.0693
15945TIP3    H269251   6.452   4.454  12.530  0.1860  0.0411  1.0150
15946TIP3   OH269252   4.173   6.029   5.175 -0.2638  0.3770  0.4228
15946TIP3    H169253   4.255   6.067   5.145 -0.4252 -0.9547 -1.8921
15946TIP3    H269254   4.189   5.935   5.177 -1.9704 -0.0071 -1.0532
15947TIP3   OH269255   6.416   3.777   5.273 -0.4675 -0.7153  0.6977
15947TIP3    H169256   6.363   3.802   5.348  1.0962 -0.1550  1.6798
15947TIP3    H269257   6.473   3.708   5.308  0.3369 -0.3826  0.0610
15948TIP3   OH269258   4.812   6.280   0.753  0.0161  0.1438  0.1865
15948TIP3    H169259   4.751   6.346   0.721  0.4797  0.6841  0.3967
15948TIP3    H269260   4.894   6.328   0.766  0.3321 -0.4553  0.4366
15949TIP3   OH269261   4.770   5.899   1.298 -0.1965 -0.0993  0.0250
15949TIP3    H169262   4.751   5.979   1.248 -0.0010 -0.1059 -0.0643
15949TIP3    H269263   4.866   5.890   1.291 -0.0299  0.4903  1.3008
15950TIP3   OH269264   5.887   0.748   5.397  0.4769  0.1569  0.1662
15950TIP3    H169265   5.802   0.708   5.378  1.3187 -2.1419  0.9222
15950TIP3    H269266   5.885   0.766   5.491  1.2494 -1.0576  0.4320
15951TIP3   OH269267   4.950   5.620  11.490 -0.6188  0.7624 -0.1279
15951TIP3    H169268   4.899   5.673  11.429  1.9897  1.6028 -1.7755
15951TIP3    H269269   4.953   5.533  11.450  0.0823  0.9947 -0.5979
15952TIP3   OH269270   3.845   6.667  15.405 -0.0027 -0.5868  0.1865
15952TIP3    H169271   3.844   6.710  15.319  0.6892 -1.2365 -0.1583
15952TIP3    H269272   3.794   6.725  15.461 -0.6584 -0.2590 -0.7179
15953TIP3   OH269273   3.292   4.396  10.902 -0.0078 -0.1442  0.0514
15953TIP3    H169274   3.200   4.402  10.874  0.2068 -1.1095 -0.8743
15953TIP3    H269275   3.286   4.369  10.994 -0.6468 -0.2886 -0.0236
15954TIP3   OH269276   0.791   3.615  11.307  0.0838 -0.1906  0.7178
15954TIP3    H169277   0.759   3.694  11.263 -0.7216 -0.2605  1.1776
15954TIP3    H269278   0.733   3.603  11.382 -0.3555 -1.7140  0.1673
15955TIP3   OH269279   0.868   4.234  14.200 -0.2405 -0.6677  0.8806
15955TIP3    H169280   0.846   4.315  14.154 -2.5315 -2.9480 -2.4716
15955TIP3    H269281   0.800   4.226  14.267 -0.5155 -0.1941  0.6689
15956TIP3   OH269282   1.875   0.358   1.807 -0.8500 -0.2461  0.3405
15956TIP3    H169283   1.791   0.335   1.767 -0.4891 -0.0539 -0.5328
15956TIP3    H269284   1.895   0.445   1.772 -1.9593  1.3328  3.1839
15957TIP3   OH269285   4.119   0.065  12.641  0.6464  0.4383  0.2591
15957TIP3    H169286   4.056   0.124  12.683 -1.5270 -1.6767  0.2094
15957TIP3    H269287   4.096   0.068  12.548 -0.8731 -1.8588  0.4749
15958TIP3   OH269288   2.051   2.162  15.716 -0.2558 -0.1246  0.2081
15958TIP3    H169289   2.061   2.252  15.685 -0.6267 -0.1442  0.0344
15958TIP3    H269290   2.108   2.111  15.658  1.8939  0.2944  1.8139
15959TIP3   OH269291   2.978   1.802  10.763  0.0828 -0.6648 -0.5791
15959TIP3    H169292   2.940   1.867  10.822 -2.4619 -1.7963 -0.7960
15959TIP3    H269293   2.968   1.719  10.810  2.2469 -1.0809 -0.7540
15960TIP3   OH269294   3.282   5.483  17.037 -0.0457  0.2270  0.3480
15960TIP3    H169295   3.266   5.395  17.070 -1.7904  0.3992  0.0203
15960TIP3    H269296   3.296   5.471  16.943 -3.1039  0.5164 -0.2395
15961TIP3   OH269297   4.332   1.577  15.420  0.3191  0.8963  0.0335
15961TIP3    H169298   4.325   1.609  15.330 -0.1411  0.4962 -0.0736
15961TIP3    H269299   4.397   1.634  15.460  0.1696  1.3884 -0.4135
15962TIP3   OH269300   1.707   2.164  16.198  0.1223 -0.2548 -0.7762
15962TIP3    H169301   1.689   2.183  16.106  0.7507 -0.9079 -1.0442
15962TIP3    H269302   1.624   2.180  16.243 -0.6037 -1.3398 -1.6766
15963TIP3   OH269303   1.100   2.960  12.342  0.2180 -0.6149 -0.0643
15963TIP3    H169304   1.076   3.042  12.298 -0.1283  0.3297  1.7995
15963TIP3    H269305   1.185   2.977  12.381  0.1786 -1.1644  0.2706
15964TIP3   OH269306   6.057   6.093  11.612  0.3901 -0.3106 -0.0084
15964TIP3    H169307   6.049   6.175  11.661 -0.0221  0.1219 -0.7680
15964TIP3    H269308   6.101   6.119  11.530 -0.1550 -0.7619 -0.4520
15965TIP3   OH269309   4.663   4.771   3.135  0.2537 -0.3848  0.1968
15965TIP3    H169310   4.624   4.858   3.150  0.7014  0.0108 -0.8183
15965TIP3    H269311   4.650   4.756   3.042  1.2835 -0.8657  0.1229
15966TIP3   OH269312   5.569   2.605  14.299 -0.2633 -0.6346  0.0031
15966TIP3    H169313   5.537   2.659  14.371 -2.9207  0.4626 -1.8517
15966TIP3    H269314   5.494   2.552  14.273  0.8608 -1.5894 -1.4834
15967TIP3   OH269315   3.113   4.418  14.084  0.6250  0.1063 -0.0685
15967TIP3    H169316   3.081   4.337  14.045 -1.4315  0.5534  0.5624
15967TIP3    H269317   3.149   4.391  14.168  1.2062 -0.3096 -0.4425
15968TIP3   OH269318   0.806   6.656  13.131 -0.7552 -0.0937 -0.0870
15968TIP3    H169319   0.861   6.701  13.067 -1.4882  0.0338 -0.6410
15968TIP3    H269320   0.855   6.578  13.155  1.0239  1.4330  1.6541
15969TIP3   OH269321   3.471   1.349   2.315  0.4547  0.3853  0.1892
15969TIP3    H169322   3.554   1.317   2.352  1.3266  0.8912 -1.2562
15969TIP3    H269323   3.442   1.279   2.256  0.1968  0.4980  0.1795
15970TIP3   OH269324   0.643   3.260   0.391 -0.5739  0.4426  0.5292
15970TIP3    H169325   0.610   3.203   0.460  1.0102 -1.1759  0.0467
15970TIP3    H269326   0.604   3.226   0.310 -0.0281  0.3493  0.2968
15971TIP3   OH269327   5.046   3.647  11.846  0.1231  0.3162  0.0264
15971TIP3    H169328   4.954   3.671  11.842 -0.4449 -1.4992  0.9014
15971TIP3    H269329   5.065   3.639  11.939  1.2189  0.7720 -0.1355
15972TIP3   OH269330   3.438   6.287  13.264 -0.5510  0.4169  0.5015
15972TIP3    H169331   3.382   6.361  13.244  0.2380  0.3029 -2.5033
15972TIP3    H269332   3.448   6.240  13.181  1.3161 -1.4272  1.6569
15973TIP3   OH269333   3.412   0.532   0.400  0.3761  0.1606 -0.2071
15973TIP3    H169334   3.345   0.474   0.364  0.8558  0.4070 -1.5412
15973TIP3    H269335   3.443   0.486   0.479 -1.3766  0.0740  0.4896
15974TIP3   OH269336   6.082   5.241   0.322 -0.4734 -0.1705 -0.4618
15974TIP3    H169337   6.023   5.166   0.315 -0.7362 -0.1753  1.2967
15974TIP3    H269338   6.029   5.315   0.294 -0.8143 -0.3871 -0.3989
15975TIP3   OH269339   4.239   1.830   3.540 -0.2701  0.3337  0.0486
15975TIP3    H169340   4.161   1.859   3.587 -0.0667 -0.7035  1.0913
15975TIP3    H269341   4.207   1.762   3.480 -0.1487 -0.2997  0.6849
15976TIP3   OH269342   2.300   0.952  13.874  0.5039  0.0392 -0.1843
15976TIP3    H169343   2.386   0.935  13.836 -0.1649  0.9984 -2.2264
15976TIP3    H269344   2.245   0.880  13.843  0.5276 -0.5906  1.1412
15977TIP3   OH269345   5.912   2.835   0.948  0.3041  0.0947  0.4973
15977TIP3    H169346   5.985   2.853   1.007  1.3152 -1.1032 -0.3389
15977TIP3    H269347   5.902   2.915   0.897  0.0583  0.7895  1.6096
15978TIP3   OH269348   5.479   5.530  13.686  0.0314  0.4736 -0.6451
15978TIP3    H169349   5.407   5.501  13.631 -0.9431 -0.4801  1.0361
15978TIP3    H269350   5.480   5.625  13.677  1.2267  0.2874 -3.8071
15979TIP3   OH269351   0.704   0.387  14.097 -0.2727 -0.6872 -0.2616
15979TIP3    H169352   0.757   0.412  14.173  0.8042  0.4790 -1.3455
15979TIP3    H269353   0.644   0.461  14.086 -2.2754 -2.0361  1.0080
15980TIP3   OH269354   3.345   0.646   1.050  0.2757  0.2351 -0.0186
15980TIP3    H169355   3.368   0.647   0.957 -0.3755 -1.7602 -0.2484
15980TIP3    H269356   3.407   0.707   1.091 -0.5107  2.4424 -1.9487
15981TIP3   OH269357   1.011   1.571  13.372 -0.5291  0.7888 -0.2919
15981TIP3    H169358   0.960   1.537  13.299 -2.0681 -1.7413  1.7653
15981TIP3    H269359   0.946   1.611  13.431  0.1875 -0.0109  1.1004
15982TIP3   OH269360   6.391   3.986   2.503 -0.2012 -0.1041  0.7014
15982TIP3    H169361   6.337   3.968   2.580 -0.8073  0.0917  0.3277
15982TIP3    H269362   6.337   3.959   2.429 -0.1123  0.8529  0.2754
15983TIP3   OH269363   6.178   5.094   4.467  0.0720  0.1032  0.4592
15983TIP3    H169364   6.187   5.064   4.377 -2.0812  2.2561 -0.5629
15983TIP3    H269365   6.268   5.116   4.494  0.8878 -1.6134 -0.7168
15984TIP3   OH269366   5.834   5.314   4.301  0.1460 -0.1623  0.1746
15984TIP3    H169367   5.843   5.219   4.303 -0.6608 -0.2501  0.2482
15984TIP3    H269368   5.844   5.342   4.392 -2.6688 -0.5328  0.7084
15985TIP3   OH269369   4.203   6.136   4.744 -0.3945  0.1095  0.4555
15985TIP3    H169370   4.163   6.185   4.816  1.2109 -1.3345  2.4057
15985TIP3    H269371   4.199   6.045   4.771  1.7823 -0.3243 -0.5088
15986TIP3   OH269372   6.125   6.346   6.681 -0.1855  0.7865  0.3436
15986TIP3    H169373   6.073   6.266   6.691  0.0231  0.4018 -1.3989
15986TIP3    H269374   6.062   6.417   6.696 -0.9929  0.3134 -0.6703
15987TIP3   OH269375   3.191   5.244  12.430 -0.4494  0.2649  0.3613
15987TIP3    H169376   3.228   5.157  12.417 -1.6452 -0.5228  1.8949
15987TIP3    H269377   3.225   5.295  12.357  0.3917 -1.4403 -0.5117
15988TIP3   OH269378   0.807   4.642  15.659  0.2723  0.3217  0.4837
15988TIP3    H169379   0.832   4.724  15.617 -0.5241  0.0205 -0.6074
15988TIP3    H269380   0.759   4.594  15.592 -1.6285  0.0986  1.9109
15989TIP3   OH269381   2.912   4.631   1.755  0.5287 -0.0211 -0.0593
15989TIP3    H169382   2.839   4.662   1.701 -0.7050 -0.2350  1.4096
15989TIP3    H269383   2.915   4.537   1.738  1.7575  0.2402 -1.5662
15990TIP3   OH269384   2.717   6.632  15.505 -0.2504  0.0086  0.4432
15990TIP3    H169385   2.773   6.706  15.525  0.8960 -0.9795  0.9661
15990TIP3    H269386   2.743   6.605  15.417 -0.7784  0.3102  0.1877
15991TIP3   OH269387   3.528   4.842  13.203 -0.1809 -0.2968  0.2188
15991TIP3    H169388   3.443   4.804  13.224 -0.7073  0.9771  0.4864
15991TIP3    H269389   3.548   4.899  13.278  1.4964 -1.5043  0.7511
15992TIP3   OH269390   5.735   2.043  16.089  0.2044 -0.9013  0.2468
15992TIP3    H169391   5.739   1.995  16.171  1.8210  1.4173  1.6491
15992TIP3    H269392   5.826   2.069  16.072 -0.4710  0.9769 -0.8241
15993TIP3   OH269393   0.603   6.573   5.755 -0.1100  0.0503  0.0805
15993TIP3    H169394   0.648   6.545   5.835  1.4055  1.0339 -0.4024
15993TIP3    H269395   0.575   6.491   5.714 -0.1564 -0.5072  1.1697
15994TIP3   OH269396   1.304   0.579   4.293  0.1129 -0.1980 -0.0056
15994TIP3    H169397   1.234   0.514   4.286  0.2778 -0.2094 -2.2262
15994TIP3    H269398   1.259   0.663   4.301 -0.1195 -0.3181 -0.0683
15995TIP3   OH269399   0.591   2.968   0.978  0.2465 -0.0485 -0.6125
15995TIP3    H169400   0.670   2.928   1.014  0.3562 -0.4608 -1.2993
15995TIP3    H269401   0.533   2.894   0.961 -0.6375  0.3026  0.6722
15996TIP3   OH269402   0.264   4.722   1.653  0.0486 -0.3956 -0.2592
15996TIP3    H169403   0.349   4.766   1.644  0.6530 -1.9182 -2.8425
15996TIP3    H269404   0.215   4.748   1.575 -0.9978 -1.3412  0.0584
15997TIP3   OH269405   6.474   5.453   5.378 -0.3407 -0.7608 -0.9715
15997TIP3    H169406   6.504   5.445   5.287 -2.8863  0.3670 -2.0167
15997TIP3    H269407   6.383   5.483   5.371 -1.1376 -2.0778  1.9538
15998TIP3   OH269408   0.806   1.741   2.083 -0.3261 -0.0056 -0.1810
15998TIP3    H169409   0.858   1.782   2.013 -2.2334 -0.0026 -1.7003
15998TIP3    H269410   0.843   1.654   2.092 -0.5064 -0.2925 -1.8036
15999TIP3   OH269411   6.466   5.095   4.209 -0.4182 -0.1357  0.3388
15999TIP3    H169412   6.500   5.011   4.238  0.4543 -0.4250 -1.4283
15999TIP3    H269413   6.372   5.080   4.196  0.0009 -1.3628 -1.6278
16000TIP3   OH269414   0.158   4.895  10.574  0.0681  0.0704 -0.1581
16000TIP3    H169415   0.074   4.906  10.530 -0.2780 -1.0959  0.1584
16000TIP3    H269416   0.164   4.801  10.591  0.9621  0.2690  0.7535
16001TIP3   OH269417   4.472   1.348  16.632  0.5015  0.1855  0.5109
16001TIP3    H169418   4.553   1.384  16.596  0.2202  1.1578  0.8080
16001TIP3    H269419   4.403   1.386  16.577  0.3115 -2.0675 -0.9188
16002TIP3   OH269420   1.055   0.360  12.769 -0.6730  0.3482 -0.0876
16002TIP3    H169421   0.964   0.379  12.749 -1.0758  0.3613  1.6183
16002TIP3    H269422   1.077   0.285  12.714 -2.4966 -1.2715  1.2550
16003TIP3   OH269423   5.901   2.521   4.256  0.1435  0.2480 -0.4339
16003TIP3    H169424   5.876   2.591   4.196 -0.2843  1.2488  0.8690
16003TIP3    H269425   5.982   2.486   4.219  0.7439  1.8888 -0.7665
16004TIP3   OH269426   2.477   6.189   3.291 -0.0039 -0.2021  0.5637
16004TIP3    H169427   2.436   6.273   3.311 -1.2348 -0.7298  0.3531
16004TIP3    H269428   2.566   6.198   3.323  0.2066  1.5502 -0.3783
16005TIP3   OH269429   2.956   6.222   2.099  0.1722 -0.2193 -0.0703
16005TIP3    H169430   2.985   6.195   2.012 -0.6627 -1.2629 -0.0344
16005TIP3    H269431   3.005   6.165   2.159  1.7850  1.3949  0.2626
16006TIP3   OH269432   6.450   5.662  16.181  0.2104 -0.0123 -0.0205
16006TIP3    H169433   6.414   5.715  16.110  1.4109 -0.1172 -0.7244
16006TIP3    H269434   6.375   5.612  16.214 -0.1151 -1.1050 -2.2090
16007TIP3   OH269435   2.732   4.864  14.019  0.0634  0.4715  0.2907
16007TIP3    H169436   2.682   4.800  14.070 -1.5958  1.3544 -0.1444
16007TIP3    H269437   2.703   4.949  14.052  0.4832  1.0197 -0.7124
16008TIP3   OH269438   1.489   2.881   0.072  0.2483 -0.1429 -0.0808
16008TIP3    H169439   1.473   2.947   0.139  1.1073  0.3438 -0.3392
16008TIP3    H269440   1.406   2.834   0.064 -0.4384  1.0242 -0.0234
16009TIP3   OH269441   3.479   1.568  17.155  0.0334 -0.1037  0.2890
16009TIP3    H169442   3.500   1.646  17.104 -0.1574  0.9648  1.7689
16009TIP3    H269443   3.562   1.522  17.163  0.2560  0.2061 -0.2004
16010TIP3   OH269444   5.338   6.578   5.137  0.3259 -0.3283 -0.2952
16010TIP3    H169445   5.410   6.548   5.081 -2.0394 -1.2024 -3.1054
16010TIP3    H269446   5.359   6.669   5.156  2.7371 -0.8838 -0.0028
16011TIP3   OH269447   4.482   6.617   4.343 -0.0233  0.4841  0.0222
16011TIP3    H169448   4.455   6.587   4.430  3.1186 -1.0337  0.6262
16011TIP3    H269449   4.417   6.579   4.283 -0.9424 -0.3903  1.5053
16012TIP3   OH269450   6.096   2.430   0.314  0.0614 -0.0713  0.0181
16012TIP3    H169451   6.060   2.449   0.228  1.7004 -1.5529 -1.0813
16012TIP3    H269452   6.170   2.489   0.323  0.4304 -0.5216 -0.0019
16013TIP3   OH269453   0.998   1.083   0.201  0.0007  0.4521 -0.0895
16013TIP3    H169454   1.091   1.083   0.177  0.2241 -0.8392  0.6928
16013TIP3    H269455   0.970   1.174   0.186  0.7189  0.3226 -2.7943
16014TIP3   OH269456   5.499   3.688  11.641  0.5022 -0.3480 -0.0364
16014TIP3    H169457   5.439   3.625  11.600 -0.9562  0.5843  0.5708
16014TIP3    H269458   5.459   3.706  11.726 -0.2654  2.8671 -0.9434
16015TIP3   OH269459   0.547   5.421   1.985  0.0411 -0.1260  0.1886
16015TIP3    H169460   0.550   5.499   2.041  2.8318 -0.3118  0.4497
16015TIP3    H269461   0.465   5.430   1.936 -0.4083  2.2379  1.2147
16016TIP3   OH269462   6.449   3.780  14.686 -0.1457  0.1911 -0.4098
16016TIP3    H169463   6.543   3.764  14.696 -0.0391  1.6483  1.3704
16016TIP3    H269464   6.431   3.855  14.742 -2.0126  1.2984 -2.3485
16017TIP3   OH269465   0.819   4.730   3.314 -0.4244 -0.0859 -0.1460
16017TIP3    H169466   0.754   4.794   3.342 -0.5587 -0.6699  0.9501
16017TIP3    H269467   0.773   4.646   3.320 -0.7539 -0.2042 -3.0485
16018TIP3   OH269468   5.087   3.388  10.649 -0.5811  0.5404 -0.4720
16018TIP3    H169469   5.147   3.420  10.717  2.2811 -1.1084 -2.0214
16018TIP3    H269470   5.029   3.463  10.631 -0.3850  1.5490  2.5419
16019TIP3   OH269471   5.280   6.650  14.659 -0.0722 -0.2567 -0.3778
16019TIP3    H169472   5.352   6.663  14.596  1.1975 -1.7843  0.6657
16019TIP3    H269473   5.318   6.675  14.743 -1.1750  0.0862  0.0208
16020TIP3   OH269474   0.127   3.313   3.464  0.7202  0.7176 -0.0424
16020TIP3    H169475   0.146   3.295   3.557  0.3734  0.0729 -0.0859
16020TIP3    H269476   0.035   3.339   3.463  1.4618  3.6137  0.1386
16021TIP3   OH269477   4.130   0.186   3.322  0.4915 -0.7862 -0.7194
16021TIP3    H169478   4.121   0.226   3.236 -1.4365 -1.3262 -0.8254
16021TIP3    H269479   4.173   0.252   3.376  0.5010  0.0749 -1.7542
16022TIP3   OH269480   6.731   5.152  15.410  0.5315 -0.0579  0.6299
16022TIP3    H169481   6.760   5.162  15.500 -0.5229 -1.4508  1.1682
16022TIP3    H269482   6.812   5.140  15.360  1.1881  1.7243  1.2054
16023TIP3   OH269483   5.255   0.990  16.494 -0.0479  0.4305 -0.8563
16023TIP3    H169484   5.209   0.956  16.570  1.9316  0.8809  0.6128
16023TIP3    H269485   5.245   1.085  16.500 -0.7786  0.4254 -1.7797
16024TIP3   OH269486   4.992   0.095  14.131  0.0648  0.2006 -0.0253
16024TIP3    H169487   4.932   0.037  14.178  1.3149  1.3773  3.3163
16024TIP3    H269488   4.955   0.183  14.144  0.1254  0.5409 -1.9016
16025TIP3   OH269489   4.053   3.293   3.244  0.3655 -0.9775 -0.2824
16025TIP3    H169490   4.001   3.352   3.298  0.8837 -0.3568 -0.4428
16025TIP3    H269491   3.999   3.215   3.234 -0.4258 -0.4453 -0.2449
16026TIP3   OH269492   0.963   4.011  16.751 -0.4479  0.3030  0.3551
16026TIP3    H169493   1.056   4.032  16.756 -0.1179 -1.1524  0.7076
16026TIP3    H269494   0.960   3.915  16.748 -1.8414  0.3479 -1.5849
16027TIP3   OH269495   6.016   6.668   4.258 -0.0333  0.1334  0.1223
16027TIP3    H169496   6.057   6.742   4.301  0.4805  0.5084 -0.9844
16027TIP3    H269497   6.014   6.691   4.165 -3.0055  0.2661  0.1218
16028TIP3   OH269498   4.926   5.877  10.855  0.5665 -0.0228  0.3532
16028TIP3    H169499   4.849   5.867  10.799  0.8896  1.4311 -0.4153
16028TIP3    H269500   5.001   5.864  10.797  0.9113  1.4985  0.4083
16029TIP3   OH269501   3.413   0.354   5.429 -0.2945  0.0476  0.2156
16029TIP3    H169502   3.349   0.418   5.459 -1.1553 -1.1817  1.1409
16029TIP3    H269503   3.366   0.270   5.433  1.6267 -1.0339  1.8235
16030TIP3   OH269504   2.536   1.210  12.492  0.1997  0.2381 -0.0559
16030TIP3    H169505   2.520   1.131  12.441  0.4516  0.1182  0.0464
16030TIP3    H269506   2.533   1.181  12.583 -0.9188  0.5756  0.0329
16031TIP3   OH269507   2.710   5.007   5.154 -0.7056 -0.1618 -0.3524
16031TIP3    H169508   2.771   4.941   5.121  1.4286  1.0699  0.8425
16031TIP3    H269509   2.671   5.046   5.076  1.5793  0.3618 -1.3003
16032TIP3   OH269510   3.642   1.494  15.273  0.1659 -0.0003 -0.5381
16032TIP3    H169511   3.624   1.588  15.265 -0.3082  0.0192  0.5321
16032TIP3    H269512   3.606   1.470  15.359 -1.6410 -1.5938 -1.6457
16033TIP3   OH269513   3.800   2.246   3.113 -0.7336  0.3941 -0.3583
16033TIP3    H169514   3.850   2.210   3.187  1.1455 -0.3406 -1.9194
16033TIP3    H269515   3.746   2.314   3.153  0.6330  0.4257  1.6311
16034TIP3   OH269516   6.033   1.375   2.655 -0.8421  0.2177  0.0304
16034TIP3    H169517   6.080   1.454   2.628  1.9207 -1.8712 -1.8868
16034TIP3    H269518   5.981   1.351   2.578 -0.4465 -0.6391  0.0192
16035TIP3   OH269519   1.636   3.730   6.025  0.2408 -0.0120  0.2748
16035TIP3    H169520   1.698   3.764   6.090 -0.4565 -1.3720  1.7299
16035TIP3    H269521   1.687   3.722   5.945  1.1293  1.7645  0.5996
16036TIP3   OH269522   1.516   1.226   3.487 -0.4103  0.2571  0.3023
16036TIP3    H169523   1.427   1.213   3.521 -0.5898  0.0936 -0.2061
16036TIP3    H269524   1.507   1.208   3.393  0.4794 -1.3210  0.4786
16037TIP3   OH269525   5.808   1.859  16.302  0.0874  0.2323 -0.2070
16037TIP3    H169526   5.841   1.793  16.242 -0.7545 -0.2494 -0.1634
16037TIP3    H269527   5.875   1.867  16.370 -0.0903 -1.0613  0.1423
16038TIP3   OH269528   4.159   4.668   0.170 -0.9349  0.0512  0.0917
16038TIP3    H169529   4.253   4.684   0.178 -0.8300 -0.7610  0.5740
16038TIP3    H269530   4.119   4.753   0.192 -0.3461  0.1143  0.9874
16039TIP3   OH269531   5.279   1.636   5.478 -0.9179 -0.2823  0.4086
16039TIP3    H169532   5.314   1.721   5.506 -0.9777 -0.2026  0.2427
16039TIP3    H269533   5.206   1.619   5.537  0.3716 -1.1998  1.8138
16040TIP3   OH269534   6.415   2.435  12.377  0.1720  0.4943 -0.1094
16040TIP3    H169535   6.340   2.473  12.421  0.0125  1.1491 -0.9215
16040TIP3    H269536   6.382   2.354  12.339  0.9549 -1.5984  3.2178
16041TIP3   OH269537   5.702   1.452   2.192 -0.3765 -0.9859 -0.0054
16041TIP3    H169538   5.721   1.421   2.103 -0.4682 -1.1607  0.0347
16041TIP3    H269539   5.690   1.546   2.183  0.5076 -0.8648 -0.0391
16042TIP3   OH269540   2.734   5.668  16.055  0.9305 -0.2810 -0.0994
16042TIP3    H169541   2.748   5.633  15.967 -0.8966 -2.3677  0.3473
16042TIP3    H269542   2.665   5.733  16.044 -0.3155 -1.5429 -0.0867
16043TIP3   OH269543   1.095   4.917  16.090 -0.1074 -0.5644 -0.4603
16043TIP3    H169544   1.098   5.010  16.071  2.2601 -0.5246 -0.2264
16043TIP3    H269545   1.059   4.911  16.179  0.2878  0.1833 -0.2450
16044TIP3   OH269546   6.100   4.591  14.892 -0.4035  0.3841 -0.0729
16044TIP3    H169547   6.005   4.606  14.894 -0.2936  1.0189  1.7994
16044TIP3    H269548   6.138   4.666  14.937  0.8355 -0.7916  0.9637
16045TIP3   OH269549   6.215   5.431   1.118  0.0248 -0.0159 -0.0185
16045TIP3    H169550   6.285   5.422   1.183 -0.7337 -0.2258  0.7996
16045TIP3    H269551   6.164   5.506   1.149 -2.1273 -1.9425  1.4000
16046TIP3   OH269552   0.460   3.307  16.120 -0.0865  0.9198  0.6942
16046TIP3    H169553   0.474   3.399  16.142 -1.5045  0.7903  2.4093
16046TIP3    H269554   0.375   3.286  16.158 -0.1324 -0.9118 -0.3149
16047TIP3   OH269555   2.151   1.961   4.969  0.8723 -0.2810  0.4970
16047TIP3    H169556   2.162   1.868   4.986  0.3885 -0.5532 -0.5704
16047TIP3    H269557   2.062   1.980   4.999  0.7700 -0.3008  0.2179
16048TIP3   OH269558   3.174   6.421   5.795 -0.2589  0.1950  0.2367
16048TIP3    H169559   3.236   6.348   5.792 -0.0485  0.4004 -0.9416
16048TIP3    H269560   3.223   6.493   5.836  0.5616  0.5721 -1.3111
16049TIP3   OH269561   6.486   5.001  12.623  0.2565  0.2465  0.7292
16049TIP3    H169562   6.486   4.983  12.717 -1.0117 -1.4647  0.4483
16049TIP3    H269563   6.433   4.931  12.585  1.9764 -0.0059 -1.4400
16050TIP3   OH269564   3.744   0.766   0.926  0.1305 -0.2899  0.4003
16050TIP3    H169565   3.818   0.826   0.930  0.8492 -1.1631  0.5472
16050TIP3    H269566   3.724   0.747   1.018  0.4620 -0.9353  0.3419
16051TIP3   OH269567   3.934   4.061  13.898  0.2306  0.2039  0.6433
16051TIP3    H169568   4.017   4.106  13.913  0.7197 -0.2889 -0.4338
16051TIP3    H269569   3.882   4.124  13.847 -0.0185  0.4669  1.2156
16052TIP3   OH269570   3.274   6.751   2.157 -0.4138  0.6548  0.3639
16052TIP3    H169571   3.214   6.740   2.084 -0.1522  1.5645  0.0029
16052TIP3    H269572   3.361   6.735   2.119 -0.4304 -1.3880  1.0328
16053TIP3   OH269573   4.663   5.552   0.402 -0.0083 -0.2603 -0.1688
16053TIP3    H169574   4.666   5.593   0.316  1.5942 -0.3273 -0.1758
16053TIP3    H269575   4.642   5.623   0.462 -0.0066  0.0106 -0.4898
16054TIP3   OH269576   2.523   3.282   0.503  0.4411 -0.7966 -1.1312
16054TIP3    H169577   2.532   3.215   0.571  0.1484 -0.9888 -1.2774
16054TIP3    H269578   2.440   3.261   0.460  0.1869 -0.1411 -0.9616
16055TIP3   OH269579   4.990   2.666  15.858  0.1804  0.1633 -0.0170
16055TIP3    H169580   4.973   2.572  15.865 -1.6486  0.5500  1.6701
16055TIP3    H269581   5.070   2.672  15.805  0.0875 -2.2946 -0.5638
16056TIP3   OH269582   4.026   4.794   2.390 -0.1894 -0.1025  0.7132
16056TIP3    H169583   4.061   4.873   2.432  0.1513  0.3431 -0.3606
16056TIP3    H269584   3.954   4.767   2.446 -1.1680  1.7341  0.4197
16057TIP3   OH269585   0.147   1.099   4.843  0.4734  0.2553 -0.4021
16057TIP3    H169586   0.100   1.017   4.825 -0.1572  0.7783 -1.2050
16057TIP3    H269587   0.157   1.100   4.938  0.0442 -0.5142 -0.3372
16058TIP3   OH269588   3.105   1.683   0.856  0.0455  0.4757 -0.6013
16058TIP3    H169589   3.064   1.596   0.854  2.2735 -0.6792 -0.1648
16058TIP3    H269590   3.109   1.709   0.764 -0.4683  0.0202 -0.7618
16059TIP3   OH269591   0.782   0.454  12.737  0.1096  0.2082  0.1331
16059TIP3    H169592   0.702   0.400  12.741 -0.5423  0.8396 -2.5330
16059TIP3    H269593   0.762   0.520  12.671  2.3170  1.3492  0.5426
16060TIP3   OH269594   1.866   2.384   3.702  0.1701  0.4419 -0.2582
16060TIP3    H169595   1.797   2.445   3.726  1.4740  1.9669 -0.1974
16060TIP3    H269596   1.945   2.420   3.743  1.2474 -0.4705 -1.4535
16061TIP3   OH269597   1.794   4.664   5.670 -0.0719  0.7402  0.0337
16061TIP3    H169598   1.868   4.692   5.725 -0.7598  1.5089  0.5956
16061TIP3    H269599   1.739   4.613   5.729 -0.5220  1.0797 -0.0883
16062TIP3   OH269600   5.004   4.168   3.157  0.0192  0.7003 -0.5436
16062TIP3    H169601   4.943   4.100   3.130 -0.2087  0.0437  1.4379
16062TIP3    H269602   5.089   4.125   3.158 -0.1566  0.3290  0.9285
16063TIP3   OH269603   0.905   3.108   4.489  0.2729  0.2683 -0.0898
16063TIP3    H169604   0.836   3.124   4.554  0.0578  1.2266 -0.5234
16063TIP3    H269605   0.935   3.019   4.506 -1.1684 -0.2187  0.0319
16064TIP3   OH269606   5.855   0.819   0.573  0.4509 -0.0983  0.2464
16064TIP3    H169607   5.905   0.742   0.545  0.1684  0.3775 -1.6982
16064TIP3    H269608   5.765   0.789   0.579  0.1556  0.3235 -1.6774
16065TIP3   OH269609   0.361   0.597   1.219 -0.4386  0.9270 -0.3112
16065TIP3    H169610   0.420   0.564   1.288 -1.8911  1.0661  1.0534
16065TIP3    H269611   0.299   0.526   1.205 -1.1029  1.5042 -0.3390
16066TIP3   OH269612   1.767   6.122   4.263 -0.3586 -0.6559  0.4527
16066TIP3    H169613   1.732   6.146   4.349  0.1655  0.0954  0.4685
16066TIP3    H269614   1.714   6.047   4.235 -0.3377 -1.0937  1.5580
16067TIP3   OH269615   6.667   1.133   1.165 -0.1351 -1.0203 -0.0391
16067TIP3    H169616   6.639   1.147   1.075  1.4524  0.3198 -0.3714
16067TIP3    H269617   6.599   1.175   1.218 -0.3592 -0.5663 -0.6745
16068TIP3   OH269618   3.720   5.609  16.483  0.1665  0.1571 -0.4090
16068TIP3    H169619   3.773   5.534  16.509  1.0935  0.9051 -0.0625
16068TIP3    H269620   3.651   5.614  16.548  0.6878  0.1935  0.1527
16069TIP3   OH269621   4.043   0.033   4.752  0.1465  0.2473 -0.9127
16069TIP3    H169622   4.052  -0.059   4.778 -1.6423  0.7254  1.7603
16069TIP3    H269623   4.130   0.070   4.766  0.6387 -0.8049 -1.0483
16070TIP3   OH269624   2.460   2.934   1.918  0.2184 -0.1026  0.5248
16070TIP3    H169625   2.372   2.972   1.909  0.4784  0.1123 -1.6702
16070TIP3    H269626   2.444   2.843   1.946 -0.8500 -0.6743 -1.7406
16071TIP3   OH269627   3.953   1.457  12.052  0.2939  0.0284 -0.2719
16071TIP3    H169628   3.934   1.485  11.962  1.8832  0.1980 -0.5915
16071TIP3    H269629   4.029   1.399  12.043  2.1588  2.0778  1.1524
16072TIP3   OH269630   0.605   3.581  16.717  0.0928  0.0592  0.1010
16072TIP3    H169631   0.643   3.586  16.629 -0.6229  2.1676 -0.1383
16072TIP3    H269632   0.661   3.637  16.770  0.5077 -1.1908  1.0243
16073TIP3   OH269633   2.892   1.435  14.624 -0.1840 -0.8736  0.0384
16073TIP3    H169634   2.832   1.421  14.551  0.0673 -0.4455 -0.2542
16073TIP3    H269635   2.938   1.352  14.635  2.0141 -0.0982 -2.3295
16074TIP3   OH269636   1.828   1.440   4.748  0.2235  0.1022  0.3510
16074TIP3    H169637   1.754   1.500   4.741  0.6489  0.5971 -0.0651
16074TIP3    H269638   1.792   1.354   4.727 -0.3336  0.2605  0.6575
16075TIP3   OH269639   2.252   5.327   4.232  0.0686 -0.3875 -0.1841
16075TIP3    H169640   2.198   5.254   4.201 -0.4981 -0.5735  1.1738
16075TIP3    H269641   2.261   5.312   4.326  0.2055  1.1188  0.0690
16076TIP3   OH269642   0.473   1.324  11.872  0.2133 -0.0869 -0.0863
16076TIP3    H169643   0.432   1.280  11.946  2.0319 -0.9279  0.4563
16076TIP3    H269644   0.458   1.265  11.798 -2.0094  0.9658 -0.5821
16077TIP3   OH269645   4.180   4.211  14.882 -0.1502 -0.2744 -0.2107
16077TIP3    H169646   4.243   4.165  14.938  0.5292 -0.1944 -0.8962
16077TIP3    H269647   4.219   4.208  14.794 -1.2412 -0.4908 -0.7114
16078TIP3   OH269648   2.014   4.338   3.076 -0.1736  0.5889 -0.6143
16078TIP3    H169649   2.093   4.392   3.083 -0.1607  0.4555  0.4385
16078TIP3    H269650   1.965   4.377   3.004  0.1824  1.5608 -0.3451
16079TIP3   OH269651   1.797   2.123   3.627  0.6465  0.2367  0.3314
16079TIP3    H169652   1.722   2.117   3.567  1.8409 -0.4364 -1.1665
16079TIP3    H269653   1.805   2.217   3.645  0.9662  0.6178 -1.5527
16080TIP3   OH269654   2.989   6.124  12.840  0.1558 -0.0992  0.1483
16080TIP3    H169655   2.918   6.188  12.837  0.2906  0.1204  1.1201
16080TIP3    H269656   3.054   6.157  12.778 -1.5521 -1.5542 -2.5997
16081TIP3   OH269657   2.693   3.136  12.836  0.0657 -0.1419  0.0233
16081TIP3    H169658   2.601   3.162  12.825  0.5251  1.6659  0.1388
16081TIP3    H269659   2.700   3.112  12.928  0.3203  2.6882  0.8458
16082TIP3   OH269660   3.946   6.767  11.513 -0.6386 -0.1667 -0.4252
16082TIP3    H169661   4.013   6.699  11.503  0.9965  1.4831 -1.1834
16082TIP3    H269662   3.963   6.828  11.441 -2.1722  0.9496  0.1223
16083TIP3   OH269663   5.329   4.104  12.339  0.1813  0.3543  0.7282
16083TIP3    H169664   5.412   4.145  12.363 -0.1425  1.9913 -0.7380
16083TIP3    H269665   5.275   4.177  12.307 -1.4800 -0.8211  0.7303
16084TIP3   OH269666   3.688   0.227   2.492 -0.8735 -0.1298  0.0838
16084TIP3    H169667   3.690   0.178   2.573  0.9696 -0.8967 -0.3618
16084TIP3    H269668   3.780   0.231   2.464 -1.5941 -1.9036 -3.1132
16085TIP3   OH269669   1.236   2.322   2.334  0.1241  0.4202 -0.1904
16085TIP3    H169670   1.229   2.375   2.414  0.7533  0.4332 -0.1359
16085TIP3    H269671   1.200   2.237   2.359 -2.6211  1.3143 -0.8005
16086TIP3   OH269672   4.674   3.301  13.733  0.0236  0.7063  0.3700
16086TIP3    H169673   4.617   3.237  13.775 -0.3921  1.2449  0.6479
16086TIP3    H269674   4.672   3.278  13.640  0.1162  0.1434  0.5034
16087TIP3   OH269675   1.190   5.438  12.954  0.4545 -0.4713 -0.5831
16087TIP3    H169676   1.109   5.438  12.903  0.3880  0.7336 -0.5000
16087TIP3    H269677   1.255   5.478  12.897  0.1223  1.9473  0.5818
16088TIP3   OH269678   2.941   3.061  11.542 -0.0261 -0.2212  0.3433
16088TIP3    H169679   2.996   3.128  11.582 -0.9101 -0.2601  1.6693
16088TIP3    H269680   2.936   3.086  11.449 -1.3203  2.2820  0.9975
16089TIP3   OH269681   2.921   4.872   0.937 -0.1539  0.1724  0.1704
16089TIP3    H169682   2.952   4.828   1.016 -0.3700  0.4832  0.4289
16089TIP3    H269683   2.943   4.812   0.866 -0.6404 -0.4537  0.5406
16090TIP3   OH269684   6.521   5.574  16.976 -0.1305 -0.2997  0.3088
16090TIP3    H169685   6.614   5.587  16.954 -0.7163  2.7150 -0.8419
16090TIP3    H269686   6.522   5.551  17.069  1.7511  0.4226  0.5248
16091TIP3   OH269687   6.203   5.899  11.779 -1.2978  0.2753 -0.0738
16091TIP3    H169688   6.157   5.957  11.717 -1.1166 -0.1558 -0.6197
16091TIP3    H269689   6.133   5.849  11.820 -1.4255  0.6082  0.1148
16092TIP3   OH269690   3.419   6.015  16.161 -0.4204 -0.0295  0.2679
16092TIP3    H169691   3.469   5.934  16.166  0.9008  0.7424 -0.1524
16092TIP3    H269692   3.430   6.056  16.247 -0.7407 -0.0923  0.3408
16093TIP3   OH269693   0.851   4.707   2.707  0.2512  0.0654  0.3616
16093TIP3    H169694   0.772   4.666   2.742  0.6625 -1.3526 -0.2884
16093TIP3    H269695   0.829   4.727   2.616 -0.3506  2.4839  0.9601
16094TIP3   OH269696   3.958   4.962  13.627 -0.0500  0.3020  0.8539
16094TIP3    H169697   3.989   5.041  13.671  2.9337 -0.5914  0.6044
16094TIP3    H269698   3.990   4.890  13.682  0.2590 -0.7511 -0.6410
16095TIP3   OH269699   3.693   5.944  13.850  0.0518  0.3246  0.2949
16095TIP3    H169700   3.632   6.005  13.893 -1.0490  1.0557 -2.1144
16095TIP3    H269701   3.755   6.001  13.804 -0.2547 -0.3558 -1.0006
16096TIP3   OH269702   6.744   3.255   6.697 -0.7464 -0.0208  0.3225
16096TIP3    H169703   6.799   3.202   6.754 -1.6031 -0.9319  0.3307
16096TIP3    H269704   6.661   3.207   6.693 -0.9957  0.4829 -0.9759
16097TIP3   OH269705   2.952   3.704   4.887 -0.2083  0.3769  0.0729
16097TIP3    H169706   2.908   3.789   4.893  1.5596  1.2397  1.6557
16097TIP3    H269707   3.017   3.715   4.817  0.6869  0.6695  0.9363
16098TIP3   OH269708   5.862   4.990   1.655  0.0502  0.1728  0.1573
16098TIP3    H169709   5.880   4.897   1.672  0.9265  0.1401 -0.8838
16098TIP3    H269710   5.831   5.023   1.739 -0.7980 -1.1816  0.4142
16099TIP3   OH269711   6.344   6.707   3.631  0.9296 -0.2149 -0.1523
16099TIP3    H169712   6.402   6.764   3.580 -0.4312  0.3878 -1.0942
16099TIP3    H269713   6.325   6.633   3.572 -1.3311  0.9005 -0.9530
16100TIP3   OH269714   2.813   3.410   4.094 -0.5260  0.3179 -0.0592
16100TIP3    H169715   2.819   3.454   4.180  1.2013  0.9237 -0.4559
16100TIP3    H269716   2.732   3.445   4.056  0.7444  3.3137 -0.3522
16101TIP3   OH269717   6.126   1.059   5.559 -0.5317  0.1452  0.0191
16101TIP3    H169718   6.031   1.048   5.557 -0.5876  0.3696  0.9938
16101TIP3    H269719   6.147   1.073   5.652  0.5430 -0.7029 -0.0682
16102TIP3   OH269720   6.075   2.669  15.050  0.3996  0.0130  0.2768
16102TIP3    H169721   6.055   2.759  15.076  0.5658 -0.9460  4.4338
16102TIP3    H269722   5.993   2.621  15.065  1.3498 -1.1531  2.1874
16103TIP3   OH269723   5.375   4.427  13.472 -0.1305  0.6270  0.4019
16103TIP3    H169724   5.284   4.429  13.501 -0.3551 -2.9292  0.3396
16103TIP3    H269725   5.378   4.490  13.399 -2.7374  0.2624 -0.1257
16104TIP3   OH269726   0.994   1.064  11.508  0.1008  0.0020  0.4822
16104TIP3    H169727   1.083   1.032  11.524 -0.0972 -0.6943  0.2196
16104TIP3    H269728   0.999   1.110  11.425  0.2549  0.1216  0.5577
16105TIP3   OH269729   6.125   5.980  15.803 -0.4669  0.0476  0.4223
16105TIP3    H169730   6.169   6.031  15.870 -1.5877 -0.2734  1.4387
16105TIP3    H269731   6.036   5.970  15.835 -0.7329 -1.0588 -0.5864
16106TIP3   OH269732   1.328   2.999  11.986  0.1100 -0.0365  0.5629
16106TIP3    H169733   1.314   2.908  11.958 -1.6847  0.3450  0.0511
16106TIP3    H269734   1.284   3.052  11.919  0.7697  1.1896  1.0667
16107TIP3   OH269735   4.633   1.837  14.459 -0.4901 -0.2106 -0.4285
16107TIP3    H169736   4.541   1.825  14.484 -0.1362 -1.5976  0.3375
16107TIP3    H269737   4.671   1.749  14.464  0.5963  0.1173 -1.9876
16108TIP3   OH269738   3.105   2.331   1.874  0.8287  0.3926  0.0404
16108TIP3    H169739   3.179   2.274   1.896  0.5880  0.5208  1.2507
16108TIP3    H269740   3.029   2.285   1.909  0.5404  1.0881  0.3284
16109TIP3   OH269741   2.824   1.152  12.252  1.0655 -0.3632  0.0629
16109TIP3    H169742   2.817   1.139  12.157  0.9465 -0.1341  0.0412
16109TIP3    H269743   2.912   1.188  12.264  1.3546 -1.0796  0.1142
16110TIP3   OH269744   5.870   5.289   3.027  0.3491 -0.4747  0.2895
16110TIP3    H169745   5.941   5.226   3.042  1.9349  1.1399 -0.1021
16110TIP3    H269746   5.889   5.325   2.940 -0.8896  0.0850  0.2408
16111TIP3   OH269747   4.236   6.416  12.714 -1.1926 -0.1738  0.5834
16111TIP3    H169748   4.208   6.325  12.719 -0.3648 -0.5601 -0.9384
16111TIP3    H269749   4.325   6.411  12.678 -2.0995  1.2954 -2.2134
16112TIP3   OH269750   3.047   0.254  12.736 -0.0578 -0.1772 -0.0039
16112TIP3    H169751   3.006   0.322  12.789 -0.7775 -0.9968  0.5237
16112TIP3    H269752   2.992   0.247  12.658  0.6427  0.5918 -0.5827
16113TIP3   OH269753   4.800   3.003   1.583 -0.2582 -0.4946  0.8488
16113TIP3    H169754   4.802   2.948   1.661  0.9498 -0.8000  0.6282
16113TIP3    H269755   4.732   2.965   1.528 -0.5265 -0.7943  1.3841
16114TIP3   OH269756   0.567   4.862   5.598  0.3435  0.1785  0.3773
16114TIP3    H169757   0.564   4.953   5.626 -0.6744  0.3226 -0.1624
16114TIP3    H269758   0.607   4.865   5.511 -0.5050  0.2120 -0.0155
16115TIP3   OH269759   4.159   4.718   5.269 -0.1928 -0.1258  0.1067
16115TIP3    H169760   4.203   4.799   5.244 -0.0079  0.2061  1.4103
16115TIP3    H269761   4.222   4.649   5.248 -0.5600  0.0023 -1.4910
16116TIP3   OH269762   5.364   3.049   3.124 -0.4065  0.4230 -0.2232
16116TIP3    H169763   5.281   3.069   3.166  0.4399 -1.2486  2.5391
16116TIP3    H269764   5.412   3.132   3.124 -0.0206  0.3534  3.4233
16117TIP3   OH269765   5.064   6.578   3.226 -0.0649  0.3560 -0.1266
16117TIP3    H169766   5.105   6.583   3.313 -2.7280 -1.3974  1.3970
16117TIP3    H269767   4.980   6.536   3.243 -0.0625 -1.4886 -3.8091
16118TIP3   OH269768   0.465   5.540  16.598 -0.7058 -0.3433 -0.9343
16118TIP3    H169769   0.513   5.610  16.553 -2.3839  0.5730 -1.3998
16118TIP3    H269770   0.526   5.466  16.600  0.6512  0.7142 -1.6048
16119TIP3   OH269771   2.391   3.091   2.420 -0.5304  0.5087  0.2060
16119TIP3    H169772   2.380   3.014   2.365 -2.4831  1.0013 -0.1886
16119TIP3    H269773   2.442   3.152   2.367  2.4304 -0.9924  1.1098
16120TIP3   OH269774   4.811   1.712   3.666 -0.2827 -0.6379  0.1173
16120TIP3    H169775   4.784   1.738   3.755  1.6637 -1.7133  1.0972
16120TIP3    H269776   4.889   1.765   3.649 -0.5333 -0.5840 -0.9111
16121TIP3   OH269777   5.727   0.092  16.514 -0.0834 -0.2867  0.3830
16121TIP3    H169778   5.791   0.021  16.509 -0.0313 -0.1646 -1.2105
16121TIP3    H269779   5.642   0.049  16.512 -0.0523 -0.3889  1.2401
16122TIP3   OH269780   3.457   6.731  15.117  0.0472  0.1215 -0.5421
16122TIP3    H169781   3.438   6.639  15.101 -1.3380  0.6488 -2.3276
16122TIP3    H269782   3.481   6.735  15.210 -2.9722 -1.5859  0.4421
16123TIP3   OH269783   6.519   5.315  11.988 -0.3910  0.0677 -0.1920
16123TIP3    H169784   6.578   5.297  11.916 -1.6711 -0.3214 -1.1830
16123TIP3    H269785   6.516   5.233  12.038 -0.3016  0.0021 -0.2927
16124TIP3   OH269786   4.058   3.740   4.012  0.7004 -0.0047 -0.0193
16124TIP3    H169787   3.966   3.758   3.993  1.0954  1.0366 -1.0861
16124TIP3    H269788   4.101   3.738   3.926  1.8340  0.5234  0.5041
16125TIP3   OH269789   5.291   4.498   4.381 -0.0994 -0.0730  0.1208
16125TIP3    H169790   5.353   4.429   4.404 -0.5644 -1.3319 -2.1095
16125TIP3    H269791   5.342   4.561   4.331 -0.0046  0.4227  0.8329
16126TIP3   OH269792   4.231   1.680  16.506 -0.0080 -0.2367  0.2108
16126TIP3    H169793   4.225   1.586  16.519 -1.1879 -0.1308  0.5122
16126TIP3    H269794   4.318   1.693  16.467  0.6951 -1.3037  1.3410
16127TIP3   OH269795   1.945   6.676  13.422 -0.0511 -0.5829 -0.3080
16127TIP3    H169796   1.911   6.707  13.506 -1.6601 -0.2904 -1.0313
16127TIP3    H269797   1.982   6.754  13.381  0.2864 -0.6247 -0.0855
16128TIP3   OH269798   1.583   6.707   2.122  0.3642  0.1215 -0.3183
16128TIP3    H169799   1.614   6.627   2.166  0.3338 -0.1002 -0.7010
16128TIP3    H269800   1.636   6.714   2.044  2.0410  1.7894  0.8837
16129TIP3   OH269801   1.781   3.304  16.777 -0.1091  0.7617  0.4979
16129TIP3    H169802   1.782   3.388  16.822 -0.2711  0.0993  1.7780
16129TIP3    H269803   1.714   3.313  16.709 -0.9013  1.3030  1.3417
16130TIP3   OH269804   1.225   4.993  12.130 -0.5115  0.0791 -0.4760
16130TIP3    H169805   1.196   5.059  12.193  3.7646  0.1443  1.8631
16130TIP3    H269806   1.191   4.910  12.164 -1.9059  0.5506 -0.6738
16131TIP3   OH269807   3.658   0.969   0.635 -0.1692 -0.4648  0.0464
16131TIP3    H169808   3.585   0.977   0.574  0.3696 -2.8724 -1.0283
16131TIP3    H269809   3.695   0.882   0.617  2.6148  0.4319  0.8985
16132TIP3   OH269810   1.894   6.763  12.772  0.1346  0.2404 -0.1560
16132TIP3    H169811   1.907   6.672  12.798 -3.1619 -0.0394  0.9474
16132TIP3    H269812   1.836   6.759  12.696  0.7040  1.4142 -0.6769
16133TIP3   OH269813   4.223   5.724   2.169 -0.0191  0.0955 -0.2171
16133TIP3    H169814   4.158   5.743   2.237  0.2807  1.5022 -0.3022
16133TIP3    H269815   4.304   5.707   2.218 -0.4299 -1.7995 -0.1026
16134TIP3   OH269816   2.151   3.555  13.048  0.2484  0.1550  0.5616
16134TIP3    H169817   2.093   3.629  13.032  2.0220  1.7285  0.9825
16134TIP3    H269818   2.167   3.558  13.143  0.1104 -0.9586  0.6278
16135TIP3   OH269819   0.942   6.359  11.944  0.4238  0.2927 -0.6636
16135TIP3    H169820   0.882   6.296  11.904  1.7498  0.0489 -2.3921
16135TIP3    H269821   1.023   6.348  11.896  1.2329  2.0902  0.2089
16136TIP3   OH269822   6.471   4.384   2.549 -0.3969 -0.1156 -0.1222
16136TIP3    H169823   6.547   4.355   2.600 -1.0924 -0.4617  0.7403
16136TIP3    H269824   6.405   4.404   2.614 -0.3575  2.3306 -0.7359
16137TIP3   OH269825   0.130   6.136   2.053 -0.0335  0.2315 -0.2513
16137TIP3    H169826   0.173   6.100   1.975 -0.2536 -2.4584  0.7879
16137TIP3    H269827   0.125   6.230   2.035  1.9655  0.0221 -2.4753
16138TIP3   OH269828   2.719   3.368   1.768 -0.2681  0.7353 -0.0420
16138TIP3    H169829   2.643   3.397   1.718 -1.8570 -0.7882  1.4136
16138TIP3    H269830   2.771   3.318   1.705 -0.4766  1.6760 -1.0090
16139TIP3   OH269831   0.881   1.066  15.613  0.2735 -0.1060 -0.5194
16139TIP3    H169832   0.861   1.128  15.542 -1.0129 -1.3523 -1.3113
16139TIP3    H269833   0.810   1.079  15.676 -0.2151 -1.0117 -0.8703
16140TIP3   OH269834   1.632   1.691   0.348  0.4252 -0.2891 -0.2146
16140TIP3    H169835   1.632   1.657   0.437 -1.4915  0.8285  0.2775
16140TIP3    H269836   1.708   1.750   0.344  1.0189 -1.0037  0.3860
16141TIP3   OH269837   4.210   6.340  11.626 -0.6750 -0.6203 -0.1414
16141TIP3    H169838   4.155   6.346  11.548 -1.0848 -3.9605 -0.2481
16141TIP3    H269839   4.168   6.399  11.689 -1.8756  0.1136 -1.5598
16142TIP3   OH269840   6.366   1.736   3.100  0.2925  0.4456 -0.2975
16142TIP3    H169841   6.443   1.694   3.062  0.9518 -0.1962  1.6518
16142TIP3    H269842   6.319   1.666   3.144 -0.7464  1.0637 -0.3883
16143TIP3   OH269843   0.027   4.932  12.307 -0.6220 -0.8103 -0.1394
16143TIP3    H169844   0.009   4.839  12.323  0.8705 -1.0101  0.5029
16143TIP3    H269845   0.122   4.936  12.295 -0.6714  0.6468 -0.1245
16144TIP3   OH269846   2.282   0.332   2.367  0.0562 -0.0485 -0.1266
16144TIP3    H169847   2.361   0.331   2.313  1.2066 -0.0583  1.4673
16144TIP3    H269848   2.313   0.358   2.454 -1.8404  0.7826  0.3614
16145TIP3   OH269849   2.320   2.634   0.808 -0.0176  0.1313  0.1803
16145TIP3    H169850   2.410   2.666   0.806 -0.0124  0.1434 -2.3712
16145TIP3    H269851   2.327   2.541   0.786 -0.6239  0.1049  0.0879
16146TIP3   OH269852   0.617   5.291  16.076  0.0975 -0.5167 -0.5513
16146TIP3    H169853   0.681   5.359  16.098  0.7297 -1.0061 -0.8210
16146TIP3    H269854   0.537   5.318  16.119  0.1788  0.6969 -1.1177
16147TIP3   OH269855   1.902   3.791  16.253  0.0693  0.5213  0.3121
16147TIP3    H169856   1.992   3.779  16.285  0.0908 -0.3831 -0.0556
16147TIP3    H269857   1.873   3.872  16.294  2.3234  2.8856 -2.3822
16148TIP3   OH269858   2.777   4.890   3.667 -0.2796  0.9456 -0.0742
16148TIP3    H169859   2.746   4.809   3.627  1.2350  0.3096 -0.0113
16148TIP3    H269860   2.725   4.959   3.625 -1.3960 -0.0140 -0.3199
16149TIP3   OH269861   6.168   2.985   3.027  0.3776 -0.4868  0.0181
16149TIP3    H169862   6.130   3.057   2.976 -0.0400 -2.6227 -2.9839
16149TIP3    H269863   6.118   2.985   3.108 -1.1276  1.2334 -0.8207
16150TIP3   OH269864   3.987   5.381  13.460  0.2806 -0.0057  0.3410
16150TIP3    H169865   3.975   5.395  13.554  1.0373 -0.2406  0.4854
16150TIP3    H269866   3.915   5.323  13.435  1.3421 -1.8138  1.2615
16151TIP3   OH269867   3.568   4.524   1.851  0.8869 -0.1283 -0.2857
16151TIP3    H169868   3.629   4.514   1.924  2.0729 -1.0242 -1.3481
16151TIP3    H269869   3.510   4.595   1.878  1.6390 -0.0575  1.2820
16152TIP3   OH269870   2.183   0.266   0.457 -0.1209 -0.2399  0.4167
16152TIP3    H169871   2.091   0.285   0.437  0.1019  0.8317  0.3618
16152TIP3    H269872   2.224   0.352   0.467  0.9135 -0.7051  0.3021
16153TIP3   OH269873   5.137   4.266  10.416 -0.0510 -0.1748  0.1933
16153TIP3    H169874   5.188   4.199  10.461 -0.0091 -0.7664 -0.7281
16153TIP3    H269875   5.047   4.251  10.444  0.0069 -0.3873  0.2627
16154TIP3   OH269876   5.643   1.165   0.096  0.3152  0.0080 -0.4644
16154TIP3    H169877   5.671   1.139   0.009 -0.5528  0.5998 -0.9361
16154TIP3    H269878   5.553   1.196   0.084 -0.2112 -0.9355  0.8276
16155TIP3   OH269879   5.242   2.307   1.730 -0.1162 -0.3518 -0.1296
16155TIP3    H169880   5.325   2.348   1.756 -1.0550  1.4252  0.2102
16155TIP3    H269881   5.255   2.214   1.746  1.7661 -0.0893  0.0451
16156TIP3   OH269882   3.652   5.695  15.032  0.2327 -0.1085 -0.5667
16156TIP3    H169883   3.557   5.696  15.045  0.2197  0.5479 -0.6711
16156TIP3    H269884   3.667   5.755  14.959  0.7127 -0.3403 -0.6656
16157TIP3   OH269885   5.571   0.561  13.826  0.2548  0.2999 -0.4014
16157TIP3    H169886   5.574   0.480  13.775 -0.1040  0.1489 -0.1901
16157TIP3    H269887   5.596   0.535  13.914 -0.4649  0.2947 -0.1906
16158TIP3   OH269888   2.393   3.223   3.844  0.2007 -0.1625  0.2882
16158TIP3    H169889   2.437   3.142   3.818  0.0481  0.3482 -1.7104
16158TIP3    H269890   2.465   3.283   3.864  0.4853  0.3691 -2.0380
16159TIP3   OH269891   6.333   2.108  12.020 -0.3148  0.6055 -0.0811
16159TIP3    H169892   6.388   2.135  11.946  0.7631  0.7608  0.7609
16159TIP3    H269893   6.325   2.013  12.011  0.0875  0.5824 -0.2056
16160TIP3   OH269894   6.136   2.012  13.335  0.3584 -0.7291  0.6559
16160TIP3    H169895   6.143   1.930  13.286 -0.3236 -0.5713  0.2916
16160TIP3    H269896   6.043   2.021  13.355  0.1207  0.8803 -0.9174
16161TIP3   OH269897   5.911   3.853  16.958  0.0136 -0.1827 -0.3080
16161TIP3    H169898   5.893   3.798  17.034 -1.5787 -0.9097 -1.1435
16161TIP3    H269899   5.895   3.795  16.883 -2.7998  1.6110 -1.2634
16162TIP3   OH269900   1.764   5.080  11.652 -0.5108 -0.3515 -0.4041
16162TIP3    H169901   1.837   5.135  11.680 -1.0293 -0.4402  1.2457
16162TIP3    H269902   1.700   5.142  11.617 -0.2276 -0.1272 -0.5346
16163TIP3   OH269903   1.578   2.812   4.646  0.5622 -0.2570  0.2539
16163TIP3    H169904   1.509   2.818   4.581  0.1613  0.5549  0.7461
16163TIP3    H269905   1.651   2.770   4.599  0.0511 -0.3052 -0.5184
16164TIP3   OH269906   1.940   0.576   4.964  0.1100  0.1388 -0.0979
16164TIP3    H169907   2.013   0.619   5.008 -0.9858  2.2305 -0.1563
16164TIP3    H269908   1.867   0.583   5.026 -0.5819  0.0636 -0.8803
16165TIP3   OH269909   5.382   3.283  13.907  0.4812  0.2923  0.4196
16165TIP3    H169910   5.364   3.208  13.851  0.8096  0.7725 -0.3519
16165TIP3    H269911   5.386   3.247  13.996 -1.9754 -0.1687  0.3947
16166TIP3   OH269912   6.292   3.855  11.917 -0.2438 -0.3099  0.6552
16166TIP3    H169913   6.357   3.924  11.904  2.2297 -2.7108 -0.8263
16166TIP3    H269914   6.240   3.856  11.836  1.9183 -2.1213 -0.8882
16167TIP3   OH269915   5.644   2.610  12.476 -0.0452  0.0935 -0.0541
16167TIP3    H169916   5.642   2.560  12.394 -0.6359  0.3921 -0.2288
16167TIP3    H269917   5.642   2.701  12.448 -0.1151  0.1983  0.2878
16168TIP3   OH269918   4.934   6.710   1.473  0.3647  0.0464  0.3445
16168TIP3    H169919   4.977   6.644   1.528 -0.0067 -1.3275 -0.9256
16168TIP3    H269920   5.005   6.762   1.437  0.6532  0.5002  1.5506
16169TIP3   OH269921   0.018   2.054  11.243 -0.2139 -0.4722 -0.7363
16169TIP3    H169922  -0.042   2.075  11.172 -0.4483  1.0125 -0.1389
16169TIP3    H269923   0.105   2.054  11.201 -0.4599 -0.8816 -1.2568
16170TIP3   OH269924   0.774   5.946  15.322 -0.4170  0.2041  0.4283
16170TIP3    H169925   0.851   5.962  15.376 -0.4839 -1.4768  1.0801
16170TIP3    H269926   0.700   5.966  15.379 -0.5097  2.2909 -0.3491
16171TIP3   OH269927   2.933   5.121  13.482  0.5315 -0.6059 -0.0591
16171TIP3    H169928   2.918   5.027  13.480  1.9187 -0.8437 -1.1850
16171TIP3    H269929   2.962   5.143  13.393 -0.4885  1.0220 -0.0376
16172TIP3   OH269930   0.210   2.570  15.100 -0.3929 -0.0448 -0.3273
16172TIP3    H169931   0.264   2.512  15.044  1.1507 -0.3044  1.3377
16172TIP3    H269932   0.151   2.511  15.145  1.9437 -0.6148  2.2311
16173TIP3   OH269933   4.194   5.514  13.086 -0.3491  0.1058 -0.2674
16173TIP3    H169934   4.254   5.444  13.112 -1.1181 -0.1389  0.9568
16173TIP3    H269935   4.250   5.591  13.074  0.2943 -0.2819  0.1791
16174TIP3   OH269936   5.291   6.083   6.515  0.6782  0.1718 -0.1223
16174TIP3    H169937   5.349   6.157   6.498  1.2435 -0.3287 -0.4412
16174TIP3    H269938   5.348   6.016   6.551  0.4496 -0.5768 -1.0982
16175TIP3   OH269939   1.724   6.314  12.588 -0.1254  0.5284  0.3155
16175TIP3    H169940   1.669   6.364  12.648 -0.1609  0.4462  0.3511
16175TIP3    H269941   1.675   6.313  12.506  0.3156  1.3719  0.0350
16176TIP3   OH269942   2.925   5.344   4.447 -0.2864  0.5807  0.3692
16176TIP3    H169943   2.891   5.255   4.460  0.5854 -0.0377 -1.3998
16176TIP3    H269944   2.857   5.388   4.396 -0.0581  0.4531 -0.0519
16177TIP3   OH269945   4.724   6.199   4.525  0.1020 -0.0150  0.0817
16177TIP3    H169946   4.784   6.208   4.451  0.4143 -0.7709  0.2317
16177TIP3    H269947   4.637   6.197   4.486  0.3183 -1.4323 -0.3707
16178TIP3   OH269948   5.303   4.256   4.989  0.3407 -1.0065 -1.0756
16178TIP3    H169949   5.300   4.347   4.962 -0.5248 -0.4745  0.6492
16178TIP3    H269950   5.317   4.259   5.083 -1.4070 -2.5778 -0.6927
16179TIP3   OH269951   4.608   5.889  12.351 -0.0404 -0.7966 -0.0585
16179TIP3    H169952   4.524   5.865  12.312  0.7177 -0.1641 -2.2440
16179TIP3    H269953   4.585   5.926  12.437 -1.8319 -2.0063  0.0463
16180TIP3   OH269954   6.521   4.555  17.085  0.0222 -0.3013  0.4584
16180TIP3    H169955   6.549   4.627  17.142  1.6782 -0.2269 -0.3731
16180TIP3    H269956   6.438   4.526  17.122  0.4002  0.5916  2.1208
16181TIP3   OH269957   0.491   4.225   5.524 -0.0478 -0.3489 -0.1507
16181TIP3    H169958   0.416   4.183   5.481 -0.0817 -0.9934  0.5062
16181TIP3    H269959   0.474   4.319   5.518  0.1036 -0.4093 -1.7995
16182TIP3   OH269960   3.887   6.466   3.570 -0.5927 -0.1355  0.2226
16182TIP3    H169961   3.797   6.433   3.576 -0.6444  0.1309  0.9572
16182TIP3    H269962   3.884   6.553   3.608 -0.1539  0.1586 -0.3858
16183TIP3   OH269963   0.449   2.263  13.113  0.3232 -0.0437  0.1571
16183TIP3    H169964   0.404   2.302  13.038  1.4711 -0.0461 -0.5579
16183TIP3    H269965   0.398   2.290  13.189 -0.2562  0.8590 -0.5388
16184TIP3   OH269966   4.906   6.109   5.015 -0.7038  0.4853 -0.2638
16184TIP3    H169967   4.894   6.123   4.921  1.1204  0.1968 -0.5568
16184TIP3    H269968   4.941   6.021   5.023 -1.1413  0.3847  0.7241
16185TIP3   OH269969   0.140   6.648  16.968 -0.3397  0.3682  0.4460
16185TIP3    H169970   0.124   6.563  16.927 -2.3797  0.6530  0.5600
16185TIP3    H269971   0.185   6.700  16.901 -1.3958  0.0211 -0.5534
16186TIP3   OH269972   4.311   0.364  13.226  0.5023  0.2657 -0.6033
16186TIP3    H169973   4.312   0.377  13.321 -0.0265  1.0191 -0.6910
16186TIP3    H269974   4.375   0.428  13.193 -0.0182  0.6743 -0.8244
16187TIP3   OH269975   0.051   5.617   1.307  0.1743  0.0941 -0.5352
16187TIP3    H169976   0.133   5.599   1.352  0.1492  0.4575 -0.3379
16187TIP3    H269977   0.075   5.617   1.214  0.2945 -0.3057 -0.5074
16188TIP3   OH269978   2.330   6.708   1.658 -0.1313  0.2556 -0.0070
16188TIP3    H169979   2.242   6.718   1.622 -0.0638  0.0515 -0.2292
16188TIP3    H269980   2.377   6.785   1.628 -0.9813  1.8211  2.3729
16189TIP3   OH269981   5.188   1.069  12.025 -0.0365 -0.0458 -0.1200
16189TIP3    H169982   5.121   1.136  12.006  0.0379  0.2474  0.6311
16189TIP3    H269983   5.152   0.989  11.987  0.9372  0.8245 -3.2148
16190TIP3   OH269984   3.750   4.283   4.776  0.7536  0.5853  0.0649
16190TIP3    H169985   3.782   4.317   4.859  1.5797 -0.1271  0.0511
16190TIP3    H269986   3.828   4.277   4.721  0.9688 -2.6627  0.5217
16191TIP3   OH269987   3.369   0.150   3.288  0.8795  0.1307 -0.4951
16191TIP3    H169988   3.290   0.098   3.277  0.4023  0.5283  0.8935
16191TIP3    H269989   3.373   0.205   3.210 -0.3590  0.2971 -0.4580
16192TIP3   OH269990   4.919   2.985  10.338 -0.1098  0.1970 -0.3739
16192TIP3    H169991   4.909   3.067  10.386 -0.6952 -0.8526  1.3744
16192TIP3    H269992   5.011   2.982  10.313 -0.0233  1.2407 -0.2217
16193TIP3   OH269993   6.560   1.347   4.096  0.2368 -0.0524  0.0439
16193TIP3    H169994   6.508   1.280   4.140  1.0775 -0.9784 -0.3157
16193TIP3    H269995   6.504   1.424   4.093 -1.2746 -1.1300 -0.7117
16194TIP3   OH269996   6.382   4.207  15.006  0.1684  0.5323 -0.2905
16194TIP3    H169997   6.408   4.176  15.093  2.9546 -0.8395 -1.4910
16194TIP3    H269998   6.350   4.128  14.961  0.1028  0.9336 -0.9592
16195TIP3   OH269999   3.706   0.076  14.840  0.1271  0.3662  0.5799
16195TIP3    H170000   3.765   0.088  14.914  0.2375  2.3100  0.2228
16195TIP3    H270001   3.761   0.093  14.763 -0.1396 -0.9959  0.0603
16196TIP3   OH270002   3.090   3.610   2.983 -0.3575  0.5270 -0.3193
16196TIP3    H170003   3.042   3.690   2.963  1.6738  1.8422 -0.3184
16196TIP3    H270004   3.163   3.611   2.921  0.1424 -0.9305  0.2081
16197TIP3   OH270005   2.358   5.487  16.508 -0.2126  0.2648  0.3377
16197TIP3    H170006   2.281   5.523  16.553 -0.2576  0.6052 -0.0147
16197TIP3    H270007   2.399   5.562  16.466 -1.3245 -0.3416 -1.9479
16198TIP3   OH270008   4.855   3.410   4.429  0.5128  0.1307  0.1071
16198TIP3    H170009   4.838   3.444   4.341 -1.2042  1.8716  1.0220
16198TIP3    H270010   4.768   3.408   4.470  1.3777  0.1890  2.0302
16199TIP3   OH270011   6.180   4.816  11.421  0.6245 -0.9341 -0.5755
16199TIP3    H170012   6.136   4.766  11.490 -1.4479 -1.1220 -1.9462
16199TIP3    H270013   6.159   4.908  11.442  1.3230 -0.8740 -0.1085
16200TIP3   OH270014   2.198   1.958  15.310 -0.5079  0.2452 -0.3638
16200TIP3    H170015   2.166   1.885  15.257 -0.4412 -0.1919  0.1869
16200TIP3    H270016   2.130   2.025  15.303 -0.4676  0.2221 -1.0504
16201TIP3   OH270017   2.187   0.037  13.307  0.5794  0.0739  0.2174
16201TIP3    H170018   2.165   0.126  13.334  1.8013 -0.0373  1.6313
16201TIP3    H270019   2.253   0.048  13.239  0.4298  0.2421  0.0980
16202TIP3   OH270020   1.621   0.112   4.272 -0.0204  0.1412  0.3303
16202TIP3    H170021   1.537   0.159   4.268 -0.0337  0.0429 -0.8677
16202TIP3    H270022   1.616   0.048   4.202 -0.6453 -2.8467  2.8944
16203TIP3   OH270023   6.385   2.685  11.112 -0.8681 -0.5060  0.0255
16203TIP3    H170024   6.299   2.646  11.129 -1.0626 -0.0797  0.0213
16203TIP3    H270025   6.366   2.771  11.076 -0.4366 -0.4414 -0.0525
16204TIP3   OH270026   0.747   4.951  16.467  0.3208 -0.0782  0.5948
16204TIP3    H170027   0.674   4.901  16.430  1.2652  0.8105 -2.7962
16204TIP3    H270028   0.712   5.039  16.477  0.6843  0.1799 -0.3328
16205TIP3   OH270029   5.810   6.126  16.085  0.5891  0.5700 -0.0156
16205TIP3    H170030   5.768   6.197  16.036 -2.1607  1.0922  2.7366
16205TIP3    H270031   5.831   6.165  16.170  0.2951 -1.5218  1.0901
16206TIP3   OH270032   1.238   3.404  15.718  0.3218 -0.1082 -0.0370
16206TIP3    H170033   1.240   3.364  15.631  1.1224  1.1444 -0.6311
16206TIP3    H270034   1.283   3.341  15.775 -0.2044 -0.9386 -0.5268
16207TIP3   OH270035   1.124   1.134   0.900 -0.2304  0.8128 -0.1352
16207TIP3    H170036   1.114   1.039   0.907 -0.4344  0.6113 -2.3613
16207TIP3    H270037   1.218   1.149   0.903 -0.2301  0.6344  0.9807
16208TIP3   OH270038   2.235   3.386  15.907 -0.5586  0.2714  0.1105
16208TIP3    H170039   2.253   3.458  15.847  0.9184  0.0931  0.3120
16208TIP3    H270040   2.182   3.425  15.977 -0.4520  0.9737 -0.1988
16209TIP3   OH270041   4.485   1.142  17.106 -0.1587 -0.9001  0.0108
16209TIP3    H170042   4.411   1.088  17.079 -0.1484 -0.6805 -0.4599
16209TIP3    H270043   4.529   1.166  17.024  0.4962 -1.1170  0.2917
16210TIP3   OH270044   0.841   4.695   3.677  0.1417  0.4501  0.4387
16210TIP3    H170045   0.847   4.758   3.749 -0.7619  2.3421 -1.0639
16210TIP3    H270046   0.750   4.698   3.650 -0.0103 -1.8218  0.5396
16211TIP3   OH270047   2.806   4.017   1.171 -0.0091 -0.1565  0.1099
16211TIP3    H170048   2.892   3.980   1.153  0.5426  0.7678  0.7597
16211TIP3    H270049   2.761   4.016   1.086  1.4006  1.2816 -0.6970
16212TIP3   OH270050   4.366   6.734   0.810 -0.1180 -0.2250 -0.4849
16212TIP3    H170051   4.352   6.824   0.783  1.3177  0.3107  0.4415
16212TIP3    H270052   4.351   6.682   0.731 -2.6726  0.6106 -0.6426
16213TIP3   OH270053   0.716   0.523  11.242  0.1175  0.0400 -0.1964
16213TIP3    H170054   0.720   0.617  11.260 -0.0146 -0.0336  0.2258
16213TIP3    H270055   0.734   0.482  11.327  3.1394 -0.3417 -0.9205
16214TIP3   OH270056   2.259   0.796  15.106  0.2063 -0.0581  0.6922
16214TIP3    H170057   2.166   0.779  15.094 -0.3151  1.8652  1.7256
16214TIP3    H270058   2.298   0.709  15.117 -1.4494 -0.8832  0.3517
16215TIP3   OH270059   2.888   1.665   0.411  0.4049 -0.4972 -0.5425
16215TIP3    H170060   2.858   1.630   0.495 -0.0138  0.4056 -0.3025
16215TIP3    H270061   2.908   1.587   0.358 -0.6706 -1.0978 -0.0891
16216TIP3   OH270062   5.741   6.336   0.053  0.3332  0.0371  0.4216
16216TIP3    H170063   5.764   6.244   0.040  1.5956  0.4063 -0.0223
16216TIP3    H270064   5.692   6.336   0.135  0.3730 -1.0116  0.4675
16217TIP3   OH270065   2.100   1.635   5.594  0.0915 -0.0401  0.5440
16217TIP3    H170066   2.032   1.702   5.586 -0.8869 -0.7358  2.4727
16217TIP3    H270067   2.172   1.679   5.639  1.2028  0.8262 -1.8949
16218TIP3   OH270068   5.966   5.855  10.654  0.1858  0.3667 -0.1418
16218TIP3    H170069   5.870   5.857  10.650  0.1525  0.7561  0.7504
16218TIP3    H270070   5.993   5.935  10.609  0.2038 -0.9378 -2.6367
16219TIP3   OH270071   4.066   3.906   5.670  0.0935  0.4840 -0.0445
16219TIP3    H170072   3.997   3.876   5.729 -1.2959 -0.9209 -2.2323
16219TIP3    H270073   4.145   3.905   5.724 -1.4038  1.4262  2.3510
16220TIP3   OH270074   6.231   3.419   0.401 -0.3999  0.2297 -0.1933
16220TIP3    H170075   6.274   3.463   0.474 -1.3813  0.3098  0.3469
16220TIP3    H270076   6.282   3.339   0.387 -1.0917 -0.5886  1.6185
16221TIP3   OH270077   3.906   0.025   5.141 -0.2187 -0.6291 -0.3585
16221TIP3    H170078   3.885   0.015   5.233 -1.1763 -0.1576 -0.5108
16221TIP3    H270079   3.894  -0.063   5.104 -2.1878 -0.3733 -0.4605
16222TIP3   OH270080   4.253   6.640  16.307  0.3732  0.4070  0.0197
16222TIP3    H170081   4.330   6.618  16.359  1.5894  0.8251 -1.5285
16222TIP3    H270082   4.179   6.611  16.361  1.6365 -1.6152  0.7899
16223TIP3   OH270083   3.336   6.127   3.040 -0.3016 -0.1916 -0.1725
16223TIP3    H170084   3.315   6.078   3.120 -0.6587  1.0874  0.5474
16223TIP3    H270085   3.292   6.211   3.051  1.6909  0.9720 -0.5888
16224TIP3   OH270086   1.098   4.682  16.639  0.7086 -0.1490  1.3222
16224TIP3    H170087   1.118   4.686  16.545  2.0617  1.5054  1.6348
16224TIP3    H270088   1.068   4.592  16.653 -3.2360  0.5476 -1.3256
16225TIP3   OH270089   5.581   0.696   1.515  0.7819 -0.1446 -0.0668
16225TIP3    H170090   5.636   0.620   1.499  0.4705 -0.3486 -0.1727
16225TIP3    H270091   5.606   0.727   1.602  0.3583 -0.8330  0.3029
16226TIP3   OH270092   4.492   4.707  14.157  0.2346 -0.2887 -0.0721
16226TIP3    H170093   4.505   4.799  14.179  0.8160 -0.8812  2.3690
16226TIP3    H270094   4.417   4.707  14.097 -1.5108  1.5724  1.9500
16227TIP3   OH270095   6.473   2.454   1.604  0.0096  0.1098 -0.1400
16227TIP3    H170096   6.535   2.404   1.656  0.7693  0.7609 -0.3917
16227TIP3    H270097   6.481   2.544   1.637 -1.7104 -0.0001  0.6694
16228TIP3   OH270098   3.120   3.390   1.497  0.2515 -0.5581 -0.5288
16228TIP3    H170099   3.109   3.458   1.564 -3.7706  0.4917 -1.9791
16228TIP3    H270100   3.151   3.437   1.420 -0.4026 -0.7432 -0.9103
16229TIP3   OH270101   2.778   4.505   2.287 -0.0634  0.4403 -0.1090
16229TIP3    H170102   2.802   4.451   2.212 -1.6929 -1.5193  0.6960
16229TIP3    H270103   2.855   4.501   2.345  0.5069  0.4844 -0.8529
16230TIP3   OH270104   0.386   2.007  13.471 -0.7151 -0.4586 -0.2025
16230TIP3    H170105   0.380   2.026  13.565  2.1831  0.4228 -0.0952
16230TIP3    H270106   0.337   2.078  13.430  1.2759  1.5535  0.6069
16231TIP3   OH270107   0.533   3.531   6.636 -0.6558  0.3642  0.3405
16231TIP3    H170108   0.593   3.605   6.633 -1.2795  0.8748 -1.7039
16231TIP3    H270109   0.583   3.457   6.600 -1.6403  1.2326 -3.2643
16232TIP3   OH270110   2.893   6.726   0.163  0.2648 -0.3598  0.2465
16232TIP3    H170111   2.825   6.753   0.224  0.0167  0.3685 -0.3366
16232TIP3    H270112   2.846   6.691   0.087  0.5752 -2.4143  0.9354
16233TIP3   OH270113   1.597   1.277   5.467  0.4470  0.0485 -0.5625
16233TIP3    H170114   1.520   1.302   5.519 -0.4729  1.5063 -2.4680
16233TIP3    H270115   1.669   1.327   5.505  0.0041  0.3069 -0.0432
16234TIP3   OH270116   6.702   2.820  14.645  0.1078 -0.1358  0.2860
16234TIP3    H170117   6.790   2.856  14.654  0.5032  0.1610 -3.3006
16234TIP3    H270118   6.717   2.728  14.620 -0.6633 -0.4377  0.9018
16235TIP3   OH270119   3.208   5.588   4.999 -0.3238  0.0765 -0.1585
16235TIP3    H170120   3.128   5.609   4.952 -0.7221  1.0540  0.9031
16235TIP3    H270121   3.180   5.575   5.090  0.8388  1.5392  0.4447
16236TIP3   OH270122   1.696   3.626  15.486  0.7354 -0.2051 -0.8332
16236TIP3    H170123   1.754   3.673  15.546 -0.8441  2.0484 -0.9129
16236TIP3    H270124   1.653   3.560  15.541  0.5317  0.7248  0.1722
16237TIP3   OH270125   5.287   2.479  12.614 -0.8708 -0.1910 -0.9101
16237TIP3    H170126   5.306   2.419  12.543 -2.3450 -0.5176 -1.0750
16237TIP3    H270127   5.210   2.441  12.657 -0.2030  0.1572  0.6720
16238TIP3   OH270128   2.356   5.161   1.681 -0.3377  0.1583  0.1684
16238TIP3    H170129   2.382   5.160   1.773 -0.9409 -0.5031  0.3415
16238TIP3    H270130   2.261   5.153   1.683 -0.4501  1.1411 -0.4903
16239TIP3   OH270131   5.940   1.457  16.312 -0.1898 -0.2891  0.2492
16239TIP3    H170132   6.019   1.502  16.281 -2.2406  1.8496 -2.4372
16239TIP3    H270133   5.924   1.494  16.399  0.8978  0.4264  0.1619
16240TIP3   OH270134   4.923   5.068   2.909 -0.0303 -0.1873  0.2372
16240TIP3    H170135   4.885   5.070   2.997  1.0136  0.6620  0.7015
16240TIP3    H270136   4.852   5.038   2.852 -0.6361 -1.0568  1.4088
16241TIP3   OH270137   1.772   4.466  16.211  0.3777  0.4024  0.6669
16241TIP3    H170138   1.812   4.389  16.251 -0.2086 -0.2577  0.0148
16241TIP3    H270139   1.799   4.539  16.267  2.3816 -0.0155  0.3207
16242TIP3   OH270140   6.778   1.680   4.049 -0.2838  0.0032 -0.2601
16242TIP3    H170141   6.851   1.618   4.044  1.4144  1.7002  1.3491
16242TIP3    H270142   6.714   1.638   4.107  1.1510 -0.0142  1.3972
16243TIP3   OH270143   4.186   4.911  13.342  0.2002 -0.4399 -0.6846
16243TIP3    H170144   4.281   4.916  13.332  0.3853  0.2280  1.0535
16243TIP3    H270145   4.173   4.868  13.427 -0.9957  1.0710 -0.0643
16244TIP3   OH270146   1.484   3.876  11.911 -0.1857  0.2444  0.0408
16244TIP3    H170147   1.448   3.908  11.828  0.6524  0.4736 -0.2459
16244TIP3    H270148   1.407   3.857  11.965 -0.7444  2.5430  0.1662
16245TIP3   OH270149   1.145   3.782  11.579 -0.3558  0.5468 -0.0257
16245TIP3    H170150   1.142   3.738  11.494 -1.5079 -0.2456  0.3987
16245TIP3    H270151   1.092   3.861  11.568  0.4392  1.0512 -0.3488
16246TIP3   OH270152   4.844   6.253  16.702 -0.2089 -0.5841 -0.4692
16246TIP3    H170153   4.919   6.272  16.646  0.7110  0.4960  1.0678
16246TIP3    H270154   4.863   6.298  16.784 -1.7301 -1.7268  0.5650
16247TIP3   OH270155   5.735   1.615  13.660  0.1283 -0.2249  0.7364
16247TIP3    H170156   5.750   1.634  13.752 -0.0994  2.0047  0.3683
16247TIP3    H270157   5.821   1.593  13.625  0.1941 -1.1866  1.4753
16248TIP3   OH270158   0.150   0.855  16.509  0.2305  0.2215  0.1311
16248TIP3    H170159   0.190   0.824  16.428  1.1954  0.6938  0.4186
16248TIP3    H270160   0.206   0.926  16.539 -1.1566  1.3329  0.2288
16249TIP3   OH270161   5.221   5.604  16.738 -0.2661 -0.3001  0.3571
16249TIP3    H170162   5.227   5.699  16.731 -1.9024 -0.2225 -0.4148
16249TIP3    H270163   5.298   5.579  16.789 -1.2404  1.6945  3.0544
16250TIP3   OH270164   4.229   4.017   6.310 -0.0252 -0.0289 -0.5099
16250TIP3    H170165   4.267   3.979   6.230 -2.0252 -2.9820 -0.1692
16250TIP3    H270166   4.250   3.954   6.379 -1.8090  0.4347  0.4952
16251TIP3   OH270167   2.666   5.678   3.513  0.4286 -0.2558  0.0785
16251TIP3    H170168   2.668   5.768   3.546  0.7814 -0.7511  1.4980
16251TIP3    H270169   2.721   5.629   3.575  0.5327 -1.3859 -0.8730
16252TIP3   OH270170   6.407   0.257  12.631 -0.4683  0.5370  0.5097
16252TIP3    H170171   6.462   0.193  12.676  0.0413  0.9767  0.5243
16252TIP3    H270172   6.321   0.248  12.671 -0.6945 -0.9254 -0.2642
16253TIP3   OH270173   4.857   6.574  15.662 -0.6077 -0.0053 -0.2383
16253TIP3    H170174   4.808   6.587  15.581 -1.3382 -1.5237 -0.0704
16253TIP3    H270175   4.794   6.536  15.722 -0.3681  2.0380  1.4264
16254TIP3   OH270176   2.076   4.622  14.980 -0.4074  0.1877  0.0434
16254TIP3    H170177   2.057   4.707  15.019 -1.6468 -0.6781  1.4297
16254TIP3    H270178   2.085   4.640  14.886 -0.6789  1.8262  0.3081
16255TIP3   OH270179   3.042   4.403  11.302  0.3458 -0.2144 -0.0981
16255TIP3    H170180   3.005   4.392  11.389  0.4055  4.1191  0.7103
16255TIP3    H270181   2.969   4.388  11.242  0.4921 -4.0834  0.4547
16256TIP3   OH270182   0.947   0.549   1.689 -0.4051 -0.6007 -0.5000
16256TIP3    H170183   1.005   0.554   1.614 -1.2925  1.5452 -1.1297
16256TIP3    H270184   0.868   0.597   1.662 -0.1782  1.6168  2.2604
16257TIP3   OH270185   5.734   1.104   4.755  0.1803 -0.2205  0.3849
16257TIP3    H170186   5.815   1.127   4.709  0.2099 -1.0541 -0.0095
16257TIP3    H270187   5.696   1.034   4.702 -0.6147 -0.0851  0.7673
16258TIP3   OH270188   4.813   5.656  16.457 -0.0336 -0.3021 -0.5145
16258TIP3    H170189   4.838   5.600  16.383  1.6782 -1.0599  0.5734
16258TIP3    H270190   4.769   5.598  16.518  2.0763 -0.6255  0.7852
16259TIP3   OH270191   0.405   1.548  12.238 -0.0339  0.2507 -0.5291
16259TIP3    H170192   0.340   1.487  12.272 -0.4205  0.1525 -1.4391
16259TIP3    H270193   0.355   1.612  12.188  0.4021  1.1413  0.1471
16260TIP3   OH270194   2.577   2.888   1.654  0.1727  0.4769 -0.5914
16260TIP3    H170195   2.529   2.926   1.728 -1.0439  0.6215 -1.4264
16260TIP3    H270196   2.531   2.806   1.636  0.6283  0.3157 -1.0365
16261TIP3   OH270197   1.667   0.744  14.242  0.4707 -0.0024  0.1245
16261TIP3    H170198   1.611   0.776  14.313  0.0675 -1.0171  0.2726
16261TIP3    H270199   1.611   0.748  14.165 -0.0339 -1.5781  0.3738
16262TIP3   OH270200   2.776   6.120   0.426  0.0032  0.3789 -0.0435
16262TIP3    H170201   2.700   6.176   0.441 -0.7618 -0.1227 -1.7107
16262TIP3    H270202   2.816   6.155   0.346  0.2230 -0.6683 -0.4136
16263TIP3   OH270203   3.647   5.579   3.915 -0.2371 -0.1766 -0.4616
16263TIP3    H170204   3.666   5.669   3.943  1.5277 -1.6075  3.8392
16263TIP3    H270205   3.575   5.551   3.972  0.2487 -1.8837 -0.6277
16264TIP3   OH270206   0.366   6.692   0.688  0.1289 -0.3751  0.0206
16264TIP3    H170207   0.391   6.694   0.780  2.5412 -1.7943 -0.5333
16264TIP3    H270208   0.335   6.602   0.673 -1.4278  0.1775 -0.3235
16265TIP3   OH270209   6.000   5.916  16.137 -0.5861 -0.0609 -0.3478
16265TIP3    H170210   5.958   6.000  16.117 -0.7049 -0.6470 -2.9358
16265TIP3    H270211   5.956   5.887  16.217 -0.9785  2.0272  0.2807
16266TIP3   OH270212   5.429   2.669  13.443  0.2421  0.1038 -0.0475
16266TIP3    H170213   5.410   2.617  13.364  0.7400 -1.7110  0.9772
16266TIP3    H270214   5.376   2.748  13.432 -1.9805 -1.3974 -0.8513
16267TIP3   OH270215   4.772   3.784   4.444  0.1326 -0.1325 -0.2428
16267TIP3    H170216   4.740   3.720   4.380  0.2876 -0.2811 -0.1742
16267TIP3    H270217   4.812   3.730   4.513  1.3142  0.0755 -0.7428
16268TIP3   OH270218   6.597   0.474  12.051 -0.0260 -0.0669 -0.0562
16268TIP3    H170219   6.595   0.381  12.028  0.1536  0.0412 -0.5316
16268TIP3    H270220   6.520   0.487  12.107 -2.0712  0.1807 -2.7082
16269TIP3   OH270221   3.777   4.608  12.175  0.0366 -0.6764  0.0513
16269TIP3    H170222   3.813   4.648  12.255  1.7393 -1.1124 -0.4621
16269TIP3    H270223   3.848   4.555  12.141 -0.3505  0.1800 -2.2579
16270TIP3   OH270224   4.799   5.503   5.804 -0.0804  0.0876 -0.1998
16270TIP3    H170225   4.717   5.506   5.754 -1.0981 -3.2156  0.9926
16270TIP3    H270226   4.777   5.544   5.887 -0.1590  0.3030 -0.3256
16271TIP3   OH270227   2.664   5.154  11.921 -0.5260  0.0612 -0.0129
16271TIP3    H170228   2.677   5.249  11.928  0.7030 -0.0590 -0.4182
16271TIP3    H270229   2.624   5.129  12.005  0.7101  0.7047  0.7960
16272TIP3   OH270230   4.609   5.384   1.367  0.6091 -0.1226  0.3686
16272TIP3    H170231   4.703   5.396   1.373  0.7226 -0.9986  0.5026
16272TIP3    H270232   4.591   5.386   1.273  0.8817 -0.7366  0.2971
16273TIP3   OH270233   2.295   3.762  12.751 -0.9184 -0.6618 -0.0762
16273TIP3    H170234   2.216   3.784  12.702 -0.0518  0.1586 -1.1406
16273TIP3    H270235   2.336   3.846  12.770 -0.4273 -1.0671  0.7143
16274TIP3   OH270236   5.977   0.671  14.205 -0.1474 -0.5383 -0.1917
16274TIP3    H170237   5.923   0.703  14.276  0.7861 -0.8429  0.6756
16274TIP3    H270238   5.969   0.575  14.210  0.8681 -0.6084  0.2788
16275TIP3   OH270239   4.750   1.454   3.571 -0.7143 -0.1369 -0.1166
16275TIP3    H170240   4.806   1.391   3.618 -1.8574 -0.0188  1.4610
16275TIP3    H270241   4.788   1.539   3.592 -0.0368 -0.1901 -1.0680
16276TIP3   OH270242   4.462   2.046   5.051  0.1915  0.2449 -0.0718
16276TIP3    H170243   4.487   1.955   5.069  2.1142  0.4677 -1.2321
16276TIP3    H270244   4.477   2.092   5.133  0.7768 -0.2074  0.0836
16277TIP3   OH270245   4.082   0.006  16.732  0.2938  0.0768  0.1339
16277TIP3    H170246   4.049  -0.075  16.770  0.1824  0.1374  0.1637
16277TIP3    H270247   4.089  -0.012  16.638  0.1524  0.0734  0.1243
16278TIP3   OH270248   4.236   5.034   0.467  0.1180 -0.4977  0.4374
16278TIP3    H170249   4.237   5.102   0.534  1.6948  0.4920 -0.5255
16278TIP3    H270250   4.205   4.956   0.512 -0.3631  0.5062  1.9180
16279TIP3   OH270251   0.160   5.079  15.246  0.6835 -0.3235  0.5492
16279TIP3    H170252   0.190   5.032  15.168 -3.4735 -2.3078 -0.0961
16279TIP3    H270253   0.210   5.041  15.318  1.3400 -1.7846 -0.6298
16280TIP3   OH270254   6.155   5.732  14.017 -0.1802 -0.3268 -0.2113
16280TIP3    H170255   6.237   5.758  14.059 -0.6903  1.1242 -0.0722
16280TIP3    H270256   6.166   5.639  13.999  2.2581  0.2010 -1.8736
16281TIP3   OH270257   3.456   4.905   0.893  0.0318 -1.1285  0.0323
16281TIP3    H170258   3.486   4.973   0.954 -0.0676 -1.4885  0.4849
16281TIP3    H270259   3.505   4.922   0.813  2.6029 -2.5947  1.1888
16282TIP3   OH270260   0.328   0.725   3.882 -0.0420  0.6710  0.2734
16282TIP3    H170261   0.369   0.804   3.918  0.4199  0.1135  0.9949
16282TIP3    H270262   0.255   0.758   3.828  0.9403  1.6548 -0.5097
16283TIP3   OH270263   6.443   0.969  15.730 -0.5304 -0.2200  0.3021
16283TIP3    H170264   6.413   1.058  15.750 -0.3352 -0.0909  0.0260
16283TIP3    H270265   6.481   0.976  15.643 -1.1298 -0.7222 -0.0103
16284TIP3   OH270266   1.609   2.185  14.156 -0.1936  0.2317 -0.3633
16284TIP3    H170267   1.628   2.096  14.186  0.8868  0.4101 -0.4918
16284TIP3    H270268   1.691   2.233  14.168 -1.2230  1.6885  1.3511
16285TIP3   OH270269   0.985   6.569  15.406 -0.1531 -0.2918 -0.2664
16285TIP3    H170270   0.899   6.589  15.368 -0.2177 -0.6280 -0.2994
16285TIP3    H270271   1.040   6.642  15.378 -0.5387  0.1699  0.1503
16286TIP3   OH270272   6.732   6.701   6.473 -0.5379 -0.8714 -0.1775
16286TIP3    H170273   6.679   6.710   6.395  0.6353  0.6334 -0.8520
16286TIP3    H270274   6.703   6.771   6.531  1.6266  0.9651 -1.1683
16287TIP3   OH270275   2.393   6.668   2.330 -0.0237  0.2930 -0.7940
16287TIP3    H170276   2.450   6.592   2.321 -1.4787 -1.3988  2.5252
16287TIP3    H270277   2.420   6.709   2.412 -0.8259  2.0394 -1.3377
16288TIP3   OH270278   0.294   1.544  14.031 -0.0774 -0.3787  0.5048
16288TIP3    H170279   0.275   1.475  13.967 -0.2883 -1.6886  1.9040
16288TIP3    H270280   0.288   1.625  13.982 -3.0710 -1.1127 -0.5605
16289TIP3   OH270281   2.729   0.816   1.226  0.4383 -0.0329  0.2005
16289TIP3    H170282   2.672   0.886   1.195 -0.0533 -1.3097 -2.0894
16289TIP3    H270283   2.677   0.770   1.292 -0.2361  0.2516 -0.1214
16290TIP3   OH270284   1.790   1.448   5.574  0.9182 -0.7151 -0.6927
16290TIP3    H170285   1.759   1.538   5.574 -0.2358 -1.0866  0.4919
16290TIP3    H270286   1.831   1.437   5.659  0.7266 -1.4187 -0.6859
16291TIP3   OH270287   6.652   2.366  11.190  0.2310 -0.4652  0.1525
16291TIP3    H170288   6.659   2.437  11.127 -2.5269  0.4543  0.7250
16291TIP3    H270289   6.666   2.286  11.138  1.0464  0.3759 -0.9648
16292TIP3   OH270290   3.881   5.251   1.591 -0.4698 -0.1036  0.3417
16292TIP3    H170291   3.810   5.240   1.654 -1.4061 -0.4133 -0.7350
16292TIP3    H270292   3.957   5.276   1.644 -1.3100 -0.0318  1.5422
16293TIP3   OH270293   4.598   4.101  11.567 -1.1405  0.2285 -0.1465
16293TIP3    H170294   4.574   4.093  11.659 -0.3327  0.7700  0.1298
16293TIP3    H270295   4.603   4.011  11.535 -1.1873  0.0281  0.4071
16294TIP3   OH270296   0.850   0.485   5.592  0.5420  0.2042  0.0799
16294TIP3    H170297   0.792   0.551   5.628  0.2445  1.5575 -2.6335
16294TIP3    H270298   0.938   0.518   5.609  0.3950  1.6350 -1.6634
16295TIP3   OH270299   4.823   3.901  14.000  0.3445  0.7155 -0.0142
16295TIP3    H170300   4.877   3.933  13.928 -0.8319  0.4626 -1.0328
16295TIP3    H270301   4.733   3.922  13.975 -0.1597 -0.1169  0.9832
16296TIP3   OH270302   0.214   1.808  13.893  0.5047 -0.1427 -0.2951
16296TIP3    H170303   0.126   1.770  13.888  0.1007  0.8000 -0.7210
16296TIP3    H270304   0.234   1.836  13.804  0.5533  1.0904  0.0710
16297TIP3   OH270305   3.220   6.336  15.106  0.3577  0.0985 -0.6621
16297TIP3    H170306   3.286   6.329  15.175 -0.0920  3.1390  0.2587
16297TIP3    H270307   3.138   6.348  15.154 -0.5321 -1.2054 -1.7886
16298TIP3   OH270308   1.425   2.927  12.415 -0.6234  0.3242 -0.6285
16298TIP3    H170309   1.470   2.930  12.330  1.3005  1.5599  0.3500
16298TIP3    H270310   1.456   2.846  12.455 -0.7071  0.2676 -0.6776
16299TIP3   OH270311   1.954   5.076   0.041  0.1632  0.0347 -0.3909
16299TIP3    H170312   1.885   5.110   0.098 -1.3473 -2.1356 -0.7923
16299TIP3    H270313   1.997   5.009   0.094  2.5333  1.8300  0.1036
16300TIP3   OH270314   1.920   4.083   6.418 -0.4354  0.3128  0.2843
16300TIP3    H170315   1.993   4.043   6.465  0.4247  2.3753  0.7949
16300TIP3    H270316   1.894   4.017   6.353  2.7406 -0.0070 -0.8127
16301TIP3   OH270317   2.804   2.684   3.963 -0.9151  0.3739 -0.2625
16301TIP3    H170318   2.729   2.711   4.015 -0.2028 -1.1742  1.6937
16301TIP3    H270319   2.767   2.625   3.896 -1.4561 -0.5767  0.8336
16302TIP3   OH270320   4.415   3.492  12.209  0.8668  0.0048  0.2258
16302TIP3    H170321   4.331   3.471  12.168  0.0117 -1.1130  2.3500
16302TIP3    H270322   4.476   3.502  12.136 -0.7338 -0.9417 -1.3207
16303TIP3   OH270323   1.353   3.987  12.892 -0.5205  0.6673 -0.2195
16303TIP3    H170324   1.259   3.967  12.885 -0.5794  1.0593 -0.6104
16303TIP3    H270325   1.391   3.953  12.811 -0.6649  2.2922 -1.0330
16304TIP3   OH270326   0.129   3.656   3.495 -0.5533  0.8618 -0.1243
16304TIP3    H170327   0.121   3.561   3.487 -1.1053  0.7569  1.4268
16304TIP3    H270328   0.041   3.686   3.515 -0.0639  1.4959  1.1823
16305TIP3   OH270329   2.481   5.490  12.526 -0.9748 -0.5889  0.0892
16305TIP3    H170330   2.429   5.457  12.453 -0.9145 -0.6027  0.0520
16305TIP3    H270331   2.417   5.505  12.596 -0.6384 -4.0965  1.3230
16306TIP3   OH270332   3.427   5.031  15.963 -0.1388  0.1608 -0.5247
16306TIP3    H170333   3.398   4.975  15.890  0.7848 -2.2332  0.8433
16306TIP3    H270334   3.376   5.000  16.038  1.8915 -0.3585  0.7247
16307TIP3   OH270335   3.422   0.823  12.835  0.8138 -0.7107  0.1192
16307TIP3    H170336   3.392   0.907  12.802 -2.8269 -1.5960  0.7603
16307TIP3    H270337   3.429   0.767  12.758 -0.4520 -0.8001  0.0588
16308TIP3   OH270338   4.343   1.219  14.918  0.0387 -0.3122 -0.1025
16308TIP3    H170339   4.251   1.202  14.899  0.2229 -1.7305  0.1935
16308TIP3    H270340   4.343   1.303  14.964 -0.7133  1.8752 -3.7016
16309TIP3   OH270341   6.664   5.214  11.220  1.1305 -0.7611 -0.1564
16309TIP3    H170342   6.604   5.248  11.154  2.5824  0.4541 -0.9310
16309TIP3    H270343   6.711   5.292  11.251  1.5160 -1.5167  1.2436
16310TIP3   OH270344   4.991   4.554  14.688  0.8323 -0.2900  0.2962
16310TIP3    H170345   4.953   4.468  14.672 -0.7327  0.5870 -1.0061
16310TIP3    H270346   4.975   4.603  14.608  2.4362  0.9809  0.6880
16311TIP3   OH270347   2.022   0.942  12.310 -0.1453  0.1767 -0.2199
16311TIP3    H170348   2.027   1.004  12.383 -0.8508  0.6900 -0.5892
16311TIP3    H270349   1.933   0.953  12.275  1.0160  2.0495 -2.9608
16312TIP3   OH270350   5.290   2.893  13.906  0.0054 -0.5176 -0.2716
16312TIP3    H170351   5.379   2.883  13.941 -0.2023 -2.8454 -0.2356
16312TIP3    H270352   5.302   2.941  13.824  1.2743 -0.5414 -0.1305
16313TIP3   OH270353   5.733   6.701   0.998  0.1662  0.4874 -0.3038
16313TIP3    H170354   5.729   6.663   1.086 -0.8923  0.3826 -0.3782
16313TIP3    H270355   5.825   6.723   0.985  0.4508 -0.1363  0.5601
16314TIP3   OH270356   4.464   5.097  17.088 -0.3860  0.5360  0.3457
16314TIP3    H170357   4.392   5.035  17.095  0.1914 -0.1096  0.8197
16314TIP3    H270358   4.541   5.041  17.072 -0.0753  1.2451 -0.7337
16315TIP3   OH270359   2.864   2.711   5.141 -0.1256  0.0648  0.2354
16315TIP3    H170360   2.789   2.738   5.089 -0.5235  1.4140  1.4620
16315TIP3    H270361   2.826   2.680   5.223  0.5707 -0.9685  0.1920
16316TIP3   OH270362   2.447   2.975  15.438 -0.1253 -0.7161 -1.1609
16316TIP3    H170363   2.426   3.048  15.380  0.2456 -0.5959 -1.1425
16316TIP3    H270364   2.404   2.899  15.398 -1.3279 -0.3194 -0.6661
16317TIP3   OH270365   5.327   4.026  11.007  0.2817  0.0679 -0.1537
16317TIP3    H170366   5.324   4.105  11.063  0.8061  0.5723 -0.8213
16317TIP3    H270367   5.372   4.055  10.928 -0.7868 -0.5480 -1.0020
16318TIP3   OH270368   4.461   0.606  14.248 -0.3070  0.1778 -0.2386
16318TIP3    H170369   4.404   0.659  14.303 -0.6543  1.1537 -1.4829
16318TIP3    H270370   4.417   0.521  14.243 -0.8880  0.4606  0.0252
16319TIP3   OH270371   1.770   4.106   0.951  0.8506 -0.2164 -0.5689
16319TIP3    H170372   1.680   4.120   0.977  0.4892 -1.2778 -1.1576
16319TIP3    H270373   1.805   4.193   0.933 -0.6353  0.0995 -2.1724
16320TIP3   OH270374   4.405   4.336  13.044 -0.6130  0.1547  0.0507
16320TIP3    H170375   4.493   4.353  13.077 -0.5344  0.1163 -0.1370
16320TIP3    H270376   4.352   4.323  13.123 -0.9452  2.4557  0.2705
16321TIP3   OH270377   2.784   1.949  15.425 -0.0107  0.3513  0.3616
16321TIP3    H170378   2.860   1.965  15.370  0.2757  0.1202  0.6863
16321TIP3    H270379   2.709   1.955  15.365  0.3650 -0.8874 -0.2482
16322TIP3   OH270380   4.794   5.104   0.736  0.2757 -0.1359  0.3078
16322TIP3    H170381   4.851   5.077   0.809 -0.3605 -1.5855  0.3014
16322TIP3    H270382   4.839   5.073   0.658  0.5058  0.5979  0.1486
16323TIP3   OH270383   4.316   4.898   1.166 -0.1190  0.0386  0.6397
16323TIP3    H170384   4.279   4.982   1.139  0.6444  0.1213 -0.1688
16323TIP3    H270385   4.394   4.922   1.217 -0.7950 -0.1536  1.8075
16324TIP3   OH270386   6.562   0.176   2.322  0.3735  0.1545 -0.3572
16324TIP3    H170387   6.481   0.195   2.275 -0.0929 -1.9482 -0.5059
16324TIP3    H270388   6.533   0.133   2.402  1.2829 -4.3177 -2.1512
16325TIP3   OH270389   4.781   0.461   3.923 -0.0314 -0.6009  0.5191
16325TIP3    H170390   4.857   0.470   3.981  0.7624 -1.8209 -0.2971
16325TIP3    H270391   4.705   0.468   3.981  0.7236 -0.7342  1.5452
16326TIP3   OH270392   1.358   2.242   6.744  0.3474 -0.2858 -0.1609
16326TIP3    H170393   1.429   2.230   6.680 -0.0353  1.6597 -1.0361
16326TIP3    H270394   1.394   2.300   6.810 -0.4222  0.8461 -0.6909
16327TIP3   OH270395   6.010   3.250  16.716  1.1610 -0.2673 -0.0883
16327TIP3    H170396   6.023   3.343  16.695  0.5030 -0.7761 -3.2249
16327TIP3    H270397   5.933   3.249  16.772  1.4852  1.0926  0.4264
16328TIP3   OH270398   3.187   5.745   1.322 -0.2977 -0.2128 -0.1052
16328TIP3    H170399   3.198   5.725   1.415 -0.6948 -0.0109 -0.0160
16328TIP3    H270400   3.244   5.820   1.307  1.4417 -1.5359 -0.5078
16329TIP3   OH270401   2.021   3.854   5.377 -0.7836 -0.5322  0.5439
16329TIP3    H170402   2.063   3.905   5.308  0.8484  0.6874  2.3439
16329TIP3    H270403   1.993   3.773   5.333  0.2391  0.1479 -1.5090
16330TIP3   OH270404   6.772   1.246   2.528  0.4351 -0.2512  0.1624
16330TIP3    H170405   6.690   1.223   2.571  0.6985  2.1774  2.1851
16330TIP3    H270406   6.754   1.232   2.435 -1.6577 -1.4564  0.6728
16331TIP3   OH270407   4.088   4.936  15.931 -0.1675  0.3466  0.0270
16331TIP3    H170408   4.115   4.855  15.886  0.3741  0.7118 -0.3194
16331TIP3    H270409   3.998   4.950  15.903  0.1774  0.5957 -1.0048
16332TIP3   OH270410   2.819   4.986   3.110 -0.3697 -0.1934 -0.3273
16332TIP3    H170411   2.783   4.990   3.199  0.1469 -0.8247 -0.0825
16332TIP3    H270412   2.905   4.945   3.120 -0.8426 -1.4940 -1.2659
16333TIP3   OH270413   6.193   2.603   4.941 -0.4708 -0.0947  0.7277
16333TIP3    H170414   6.112   2.647   4.916 -0.6673 -0.8764 -0.0594
16333TIP3    H270415   6.246   2.672   4.983 -0.9303  0.7764 -0.0927
16334TIP3   OH270416   5.342   5.933   3.268  0.5458 -0.3457 -0.0065
16334TIP3    H170417   5.250   5.908   3.255 -0.4005  2.1917  1.2056
16334TIP3    H270418   5.363   5.985   3.190  0.1998  0.9511  0.7439
16335TIP3   OH270419   5.624   1.129   2.949 -0.6042  1.1691 -0.2103
16335TIP3    H170420   5.660   1.185   3.018  2.1042 -0.5164 -0.1068
16335TIP3    H270421   5.666   1.159   2.869 -0.9278  0.8009 -0.5243
16336TIP3   OH270422   4.693   6.403   4.209 -0.4471 -0.1143  0.1933
16336TIP3    H170423   4.636   6.454   4.267  0.9321  0.8074  0.8149
16336TIP3    H270424   4.742   6.469   4.161  0.1365 -0.8791 -0.2747
16337TIP3   OH270425   5.433   5.489  10.758 -0.0710  0.4878 -0.2444
16337TIP3    H170426   5.447   5.553  10.688  1.0887  0.0025 -0.4862
16337TIP3    H270427   5.438   5.405  10.714  0.3967  0.1851  0.3737
16338TIP3   OH270428   5.668   2.310   4.636 -1.0599 -0.6048  0.0842
16338TIP3    H170429   5.699   2.322   4.725  1.3985 -0.3835 -0.7396
16338TIP3    H270430   5.604   2.380   4.623 -0.0007  0.5659  1.0469
16339TIP3   OH270431   4.866   5.066  16.717  0.2775 -0.1684 -0.2629
16339TIP3    H170432   4.788   5.077  16.772  1.2376 -0.7717  1.2761
16339TIP3    H270433   4.831   5.061  16.627 -1.4298 -0.2648  0.3626
16340TIP3   OH270434   0.302   3.540  13.994  0.4141 -0.6196 -0.1135
16340TIP3    H170435   0.216   3.581  14.000  0.4104 -0.6625  0.1371
16340TIP3    H270436   0.284   3.451  13.964  0.4641 -0.2862 -1.1675
16341TIP3   OH270437   0.159   2.002   4.032 -0.1147 -0.1304  1.0195
16341TIP3    H170438   0.115   1.979   3.950  0.6552  1.4185  0.1302
16341TIP3    H270439   0.231   1.940   4.039  0.5605  0.5084 -0.1331
16342TIP3   OH270440   0.218   0.331   1.347  0.1491 -0.8325  0.3726
16342TIP3    H170441   0.303   0.289   1.336  0.3701 -0.2899 -0.0265
16342TIP3    H270442   0.170   0.309   1.268 -0.0438 -1.0520  0.5512
16343TIP3   OH270443   3.727   3.188   3.039 -0.4471 -0.3632  0.3125
16343TIP3    H170444   3.706   3.278   3.013  0.7259 -0.5570 -1.4584
16343TIP3    H270445   3.728   3.190   3.135 -1.3769  1.2767  0.3196
16344TIP3   OH270446   3.568   2.220   5.952  0.1478 -0.0579 -0.2080
16344TIP3    H170447   3.489   2.263   5.986 -0.1585 -0.8397  0.0897
16344TIP3    H270448   3.622   2.206   6.029 -1.2401 -3.3100  0.3524
16345TIP3   OH270449   3.998   1.291   1.430 -0.7339  0.0086 -0.2803
16345TIP3    H170450   3.992   1.385   1.443  0.5554  0.1510 -0.4821
16345TIP3    H270451   3.978   1.252   1.515  0.4145  0.5667  0.2720
16346TIP3   OH270452   2.925   5.846  16.494  0.2463  0.5052  0.0464
16346TIP3    H170453   2.965   5.767  16.531 -0.6350  0.5425  1.1017
16346TIP3    H270454   2.947   5.842  16.400 -0.3384 -1.3286 -0.0379
16347TIP3   OH270455   3.638   5.161   5.456  0.0558  0.0735  0.2779
16347TIP3    H170456   3.723   5.195   5.487  0.8352 -1.8487  0.4071
16347TIP3    H270457   3.621   5.086   5.513 -0.1554 -1.4947 -1.7553
16348TIP3   OH270458   1.750   4.651  10.997 -0.5877 -0.5151 -0.1151
16348TIP3    H170459   1.816   4.683  10.935  0.1997 -0.4296  0.7404
16348TIP3    H270460   1.709   4.730  11.032  0.7849 -0.4290  1.3870
16349TIP3   OH270461   3.341   1.591  13.056  0.1619  0.4974  0.6818
16349TIP3    H170462   3.296   1.622  12.977 -0.2063  0.9749  1.0755
16349TIP3    H270463   3.325   1.496  13.056  1.1009  0.3261 -0.4020
16350TIP3   OH270464   4.344   2.433   0.887  0.3984 -0.5254 -0.3375
16350TIP3    H170465   4.317   2.509   0.940  2.0924  0.0368 -0.2451
16350TIP3    H270466   4.322   2.458   0.797 -2.8900 -1.6536  0.0231
16351TIP3   OH270467   3.311   2.315   4.638 -0.7512  0.3477  0.2950
16351TIP3    H170468   3.275   2.352   4.557  2.5005 -0.1689 -1.5656
16351TIP3    H270469   3.339   2.391   4.689  0.8820  0.6749 -1.0043
16352TIP3   OH270470   3.759   3.430  14.681 -0.3101 -0.2474 -0.4562
16352TIP3    H170471   3.790   3.367  14.615  1.0040  0.4739 -0.5785
16352TIP3    H270472   3.800   3.401  14.762  1.2395  1.0447 -0.7274
16353TIP3   OH270473   5.768   3.570  16.797  0.7754 -0.3354  0.2509
16353TIP3    H170474   5.683   3.611  16.813  1.4210  0.4832  1.7504
16353TIP3    H270475   5.757   3.524  16.713 -1.4730 -1.1849  0.9516
16354TIP3   OH270476   6.193   6.744   4.624 -0.3724 -0.1051  0.2531
16354TIP3    H170477   6.164   6.806   4.691 -1.9577 -1.4202  0.8735
16354TIP3    H270478   6.177   6.658   4.663 -0.5215 -0.9142 -1.4931
16355TIP3   OH270479   6.036   0.778  11.322  0.2721  0.2873  0.7463
16355TIP3    H170480   6.015   0.863  11.282  0.2881 -0.7446 -1.6092
16355TIP3    H270481   6.125   0.758  11.290 -0.3688 -1.3476 -0.1331
16356TIP3   OH270482   3.976   2.311   3.510  0.3283 -0.6600 -0.1604
16356TIP3    H170483   3.881   2.295   3.507  0.4102 -1.4294  0.7993
16356TIP3    H270484   3.983   2.406   3.522 -0.2656 -0.3660 -1.8909
16357TIP3   OH270485   3.192   1.855   2.322 -0.2343  0.6176 -0.1538
16357TIP3    H170486   3.237   1.938   2.337  0.4575  0.1967  0.1387
16357TIP3    H270487   3.262   1.792   2.304 -0.5850 -0.3099  1.4943
16358TIP3   OH270488   5.562   1.133  14.999  0.1771  0.5501  0.4094
16358TIP3    H170489   5.493   1.157  14.937  0.8352 -0.5722 -0.8330
16358TIP3    H270490   5.527   1.058  15.046  0.4506  0.0899 -0.0995
16359TIP3   OH270491   6.131   2.221  17.012  0.2305 -0.1069 -0.5922
16359TIP3    H170492   6.036   2.224  17.027  0.4817 -0.5117  1.4493
16359TIP3    H270493   6.140   2.196  16.921 -1.6276  0.9506 -1.1259
16360TIP3   OH270494   2.239   5.155  14.098  0.0537 -0.0430  0.2800
16360TIP3    H170495   2.177   5.178  14.029  1.8153  0.0379 -1.3497
16360TIP3    H270496   2.325   5.168  14.059  1.1366 -0.1363  2.4629
16361TIP3   OH270497   6.374   3.364   3.796 -0.8035 -0.1053  0.2641
16361TIP3    H170498   6.434   3.383   3.868  0.0967  0.3928 -0.5893
16361TIP3    H270499   6.373   3.268   3.790  1.3755 -0.1323 -0.8386
16362TIP3   OH270500   6.598   3.863   3.989 -0.3563  0.1053  0.2607
16362TIP3    H170501   6.542   3.786   3.998  0.6311 -0.5757  0.6725
16362TIP3    H270502   6.645   3.849   3.906  0.8949 -0.4624  1.0423
16363TIP3   OH270503   0.253   6.428  12.645 -0.1032 -0.2064 -0.1029
16363TIP3    H170504   0.301   6.368  12.702  0.3491  0.6499  0.4383
16363TIP3    H270505   0.165   6.432  12.682 -0.1458 -0.5601 -0.1645
16364TIP3   OH270506   2.657   0.031   3.246 -0.5502 -0.4277 -0.1102
16364TIP3    H170507   2.606  -0.037   3.203  0.8674 -1.8492  0.3357
16364TIP3    H270508   2.602   0.061   3.318 -1.5330 -0.4873 -0.8154
16365TIP3   OH270509   3.240   5.471   1.305 -0.1255 -0.2603 -0.1874
16365TIP3    H170510   3.220   5.560   1.276 -0.4200 -0.6412 -1.2079
16365TIP3    H270511   3.155   5.434   1.331 -0.0671 -0.3721 -0.1542
16366TIP3   OH270512   1.370   2.542  14.694  0.1595  0.7002 -0.4217
16366TIP3    H170513   1.279   2.532  14.720  0.0670  0.7100 -0.7409
16366TIP3    H270514   1.405   2.453  14.697 -0.6826  0.1698 -3.3161
16367TIP3   OH270515   2.644   1.131   6.002 -0.4508 -0.3351 -0.4435
16367TIP3    H170516   2.734   1.127   5.969 -0.5562  0.6189 -0.8865
16367TIP3    H270517   2.650   1.103   6.093  0.8167  2.6490  0.4976
16368TIP3   OH270518   5.498   0.940   3.698  0.2124 -0.0979  0.1180
16368TIP3    H170519   5.529   0.979   3.780  1.4748  0.7876 -0.7514
16368TIP3    H270520   5.497   0.846   3.715  0.6124  0.0618  1.1000
16369TIP3   OH270521   5.152   3.332  11.212 -0.2267  0.3551  0.7732
16369TIP3    H170522   5.118   3.397  11.151  0.4646 -1.4552 -1.6952
16369TIP3    H270523   5.075   3.285  11.244 -0.4702 -0.3992 -0.8264
16370TIP3   OH270524   2.189   2.413   2.591  0.4125 -0.2183 -0.0843
16370TIP3    H170525   2.173   2.323   2.620  0.3970 -0.0777  0.3510
16370TIP3    H270526   2.242   2.403   2.512 -0.1802 -0.6309 -0.4365
16371TIP3   OH270527   6.434   4.909   2.010  0.4324 -0.1038 -0.2714
16371TIP3    H170528   6.379   4.973   2.056  0.2565 -1.5237  1.5833
16371TIP3    H270529   6.375   4.866   1.949  0.8960  2.5571 -2.8736
16372TIP3   OH270530   2.063   0.423   3.088 -0.1725 -0.2965 -0.4585
16372TIP3    H170531   2.012   0.492   3.129  0.7512  0.1701 -0.0767
16372TIP3    H270532   2.039   0.343   3.135  2.0728  0.4402  2.2137
16373TIP3   OH270533   2.960   6.086   4.373  0.0109  0.8100  0.2158
16373TIP3    H170534   2.937   6.019   4.309 -0.0197  1.3327 -0.3319
16373TIP3    H270535   2.904   6.161   4.351  0.4381  1.2070  0.4584
16374TIP3   OH270536   2.175   0.599  15.660 -0.2375  0.0019 -0.2999
16374TIP3    H170537   2.170   0.672  15.722  0.6945  1.1578 -1.5482
16374TIP3    H270538   2.084   0.583  15.634 -0.3933  1.1659 -0.5140
16375TIP3   OH270539   4.079   5.119  13.817 -0.4494  0.7983  0.1967
16375TIP3    H170540   4.087   5.210  13.788  0.9715  0.2788 -1.2337
16375TIP3    H270541   4.122   5.117  13.902 -0.3937  1.4499  0.1885
16376TIP3   OH270542   0.880   6.550  16.192  0.0395  0.1150 -0.1125
16376TIP3    H170543   0.888   6.529  16.099  1.0671  2.2102 -0.5610
16376TIP3    H270544   0.871   6.645  16.194  0.6488  0.1757  1.9628
16377TIP3   OH270545   1.215   3.408  17.018 -0.5295 -0.2929 -0.1060
16377TIP3    H170546   1.267   3.329  17.025  1.0188  0.8078  2.4966
16377TIP3    H270547   1.277   3.477  16.996 -1.8416  0.2811 -2.3366
16378TIP3   OH270548   5.937   2.696   5.407  0.2565 -0.2027 -0.3027
16378TIP3    H170549   5.999   2.768   5.400 -0.4032  0.2834 -1.1700
16378TIP3    H270550   5.979   2.624   5.359  0.7239 -0.2835  0.2126
16379TIP3   OH270551   3.167   2.860  15.502 -0.6530 -0.2291 -0.2321
16379TIP3    H170552   3.216   2.826  15.577 -0.7393  0.3642  0.1045
16379TIP3    H270553   3.234   2.881  15.437 -0.1862  2.5899  1.0164
16380TIP3   OH270554   5.218   3.749  16.739  0.7770 -0.0814  0.2890
16380TIP3    H170555   5.229   3.752  16.834 -0.9374 -2.3656  0.6474
16380TIP3    H270556   5.199   3.839  16.714 -0.0926  0.3436  2.3232
16381TIP3   OH270557   3.920   4.175  14.789 -0.3608 -0.4094  0.0495
16381TIP3    H170558   3.932   4.242  14.723 -1.5802  1.0689  1.2620
16381TIP3    H270559   3.992   4.189  14.851 -0.9692  0.2288  0.6337
16382TIP3   OH270560   4.114   2.088   1.545  0.6070 -0.0484 -0.1935
16382TIP3    H170561   4.098   2.051   1.632  1.0308 -0.5356 -0.3167
16382TIP3    H270562   4.138   2.012   1.491  4.1464  0.6669  0.1422
16383TIP3   OH270563   6.764   3.264   1.403  0.5334  0.6061 -0.4647
16383TIP3    H170564   6.700   3.328   1.435  1.4646  1.2433  0.1500
16383TIP3    H270565   6.771   3.282   1.309 -1.3087 -0.4855 -0.8832
16384TIP3   OH270566   5.741   6.710  15.018  0.1385  0.0426 -0.2719
16384TIP3    H170567   5.813   6.747  15.069 -0.8711  0.2134  1.0725
16384TIP3    H270568   5.770   6.716  14.927  1.9632 -0.2146  0.2607
16385TIP3   OH270569   2.338   5.695  14.096  0.6734  0.1510  0.4289
16385TIP3    H170570   2.328   5.789  14.114 -0.7298  0.2872 -0.8758
16385TIP3    H270571   2.259   5.671  14.048  0.1813 -2.1049  2.1843
16386TIP3   OH270572   4.650   4.394  12.624 -0.4318  0.4038 -0.2080
16386TIP3    H170573   4.602   4.446  12.689 -2.2319 -0.6239 -0.6709
16386TIP3    H270574   4.597   4.398  12.545 -0.0939 -1.3062 -0.5610
16387TIP3   OH270575   5.140   2.457   6.440 -0.0706  0.7169  0.6023
16387TIP3    H170576   5.111   2.416   6.522  0.0837  1.9494  1.3085
16387TIP3    H270577   5.229   2.487   6.459  0.4651 -0.1606 -0.4719
16388TIP3   OH270578   4.118   4.122   5.490  0.3052 -0.3044  0.3966
16388TIP3    H170579   4.129   4.032   5.462  0.5970 -0.1874  0.1266
16388TIP3    H270580   4.073   4.165   5.417  0.5468 -0.1352  0.3439
16389TIP3   OH270581   2.311   1.141   2.575  0.4019 -0.2613  0.2958
16389TIP3    H170582   2.386   1.087   2.601  0.4686 -0.3803 -0.1262
16389TIP3    H270583   2.305   1.129   2.480  0.0824  0.0487  0.2734
16390TIP3   OH270584   0.163   3.880   3.035 -0.0885  0.0029  0.2704
16390TIP3    H170585   0.132   3.911   2.950 -1.9519  0.0098  0.9258
16390TIP3    H270586   0.239   3.826   3.014 -2.2881 -2.5747 -1.7451
16391TIP3   OH270587   3.349   6.067   3.308 -0.4900  0.1000  0.0033
16391TIP3    H170588   3.338   6.026   3.394  0.7533  1.8251  1.0513
16391TIP3    H270589   3.404   6.144   3.325  0.1683  0.2425 -2.4148
16392TIP3   OH270590   2.390   3.222  16.056 -0.4520 -0.6312  0.1961
16392TIP3    H170591   2.355   3.263  15.977  0.8055 -0.3499 -0.2359
16392TIP3    H270592   2.477   3.192  16.031 -0.1450 -0.7941  1.3942
16393TIP3   OH270593   1.320   6.054   4.429  0.1182 -0.2121 -0.0722
16393TIP3    H170594   1.265   6.122   4.468  0.1703  0.0369 -0.4230
16393TIP3    H270595   1.268   5.975   4.433  0.7576 -0.5853  2.0464
16394TIP3   OH270596   0.618   1.266  16.079 -0.2517  0.1568 -0.2455
16394TIP3    H170597   0.690   1.213  16.113  0.0187  0.9061  0.3826
16394TIP3    H270598   0.541   1.233  16.125 -0.2176 -0.2446 -0.4729
16395TIP3   OH270599   1.480   6.197   1.764  0.2531 -0.0264  0.3370
16395TIP3    H170600   1.521   6.117   1.731 -1.4675 -0.1999 -1.5562
16395TIP3    H270601   1.509   6.265   1.704 -1.5221 -0.0087 -0.5443
16396TIP3   OH270602   3.297   5.285   5.204 -0.1226 -0.0086 -0.0004
16396TIP3    H170603   3.222   5.342   5.193  1.2199  1.8613  0.0234
16396TIP3    H270604   3.276   5.231   5.280 -0.6912  1.7647  1.1554
16397TIP3   OH270605   6.457   4.399   2.898  0.1928  0.9543  0.2386
16397TIP3    H170606   6.509   4.452   2.958  1.0568 -1.5359  1.8182
16397TIP3    H270607   6.384   4.367   2.951 -0.5505  0.8674 -0.8027
16398TIP3   OH270608   4.940   1.371  16.556 -0.1678 -0.4942 -0.3110
16398TIP3    H170609   4.972   1.292  16.599  0.0464 -0.2694 -0.0580
16398TIP3    H270610   4.939   1.437  16.624 -0.6336 -0.3532 -0.4525
16399TIP3   OH270611   4.038   6.612  12.725  0.2684  0.2432  0.2147
16399TIP3    H170612   4.121   6.564  12.730  0.1078  0.0473  1.0502
16399TIP3    H270613   4.061   6.696  12.687  0.6261 -0.3217 -0.8784
16400TIP3   OH270614   4.763   3.164  15.123  0.2923  0.3128  0.2048
16400TIP3    H170615   4.676   3.204  15.115 -0.8833 -1.8441  1.1808
16400TIP3    H270616   4.809   3.189  15.043 -1.4752  0.9570 -0.6641
16401TIP3   OH270617   6.518   2.379  12.618 -0.1742  0.8301  0.1432
16401TIP3    H170618   6.486   2.373  12.528 -1.0946 -0.2132  0.5224
16401TIP3    H270619   6.589   2.315  12.622 -1.4688 -0.6105  0.6878
16402TIP3   OH270620   0.913   3.541   6.474  0.4296  0.5319  0.7350
16402TIP3    H170621   0.885   3.452   6.450  1.8055  0.2241  0.1605
16402TIP3    H270622   0.990   3.528   6.530  0.9060  1.3533  0.2978
16403TIP3   OH270623   1.519   3.803  12.367  0.2644 -0.3637  0.1580
16403TIP3    H170624   1.465   3.875  12.334 -0.2948 -0.3483  1.0833
16403TIP3    H270625   1.467   3.725  12.352  0.9542 -0.6306 -1.0297
16404TIP3   OH270626   6.220   1.367  14.689 -0.2281  0.0979 -0.3254
16404TIP3    H170627   6.209   1.273  14.700 -2.7142  0.2208 -1.1227
16404TIP3    H270628   6.205   1.403  14.777  1.3866 -0.2426  0.1224
16405TIP3   OH270629   0.727   3.937  12.144  0.5165 -0.8464  0.3522
16405TIP3    H170630   0.797   3.893  12.194  0.8574 -0.3130  0.3593
16405TIP3    H270631   0.762   4.025  12.128  1.4490 -1.6604 -2.8695
16406TIP3   OH270632   6.071   1.532  12.928 -0.0750  0.0620 -0.3318
16406TIP3    H170633   6.089   1.497  13.015  0.0666  1.9979  0.4724
16406TIP3    H270634   5.976   1.549  12.928 -0.3059 -1.0940 -1.0441
16407TIP3   OH270635   3.237   6.449  10.588  0.1369  0.2877 -0.3353
16407TIP3    H170636   3.264   6.540  10.594  0.9078  0.2088 -1.9372
16407TIP3    H270637   3.156   6.451  10.536 -1.5045  0.2720  2.0802
16408TIP3   OH270638   1.374   1.675  11.894 -0.0202  0.2939  0.1212
16408TIP3    H170639   1.333   1.755  11.861 -0.3433 -0.3253 -1.0355
16408TIP3    H270640   1.468   1.689  11.880 -0.0452  0.6206  0.2704
16409TIP3   OH270641   1.036   4.168  12.995  0.0054  0.3665 -0.3254
16409TIP3    H170642   0.941   4.180  12.990 -0.0188 -0.1503 -1.4762
16409TIP3    H270643   1.055   4.106  12.925  0.8216 -1.9405  1.8110
16410TIP3   OH270644   6.593   2.235   3.034 -0.4887 -0.0687 -0.0696
16410TIP3    H170645   6.681   2.197   3.035 -0.7275 -0.9598 -3.0756
16410TIP3    H270646   6.595   2.301   3.103  2.6679  0.1914 -0.2583
16411TIP3   OH270647   5.866   2.765  14.737 -0.0970  0.1442 -0.2668
16411TIP3    H170648   5.938   2.705  14.715  1.8377  1.9590  0.8311
16411TIP3    H270649   5.790   2.727  14.692  1.5142 -1.8280 -1.5404
16412TIP3   OH270650   5.791   6.723  17.084 -0.1956 -0.5530  0.7039
16412TIP3    H170651   5.799   6.720  17.180 -2.8130  1.4844  1.1025
16412TIP3    H270652   5.703   6.690  17.067 -0.6175  1.2047 -0.7584
16413TIP3   OH270653   1.704   2.907  14.080 -0.0326  1.1672  0.1473
16413TIP3    H170654   1.742   2.970  14.141  0.8244  0.5027  0.3367
16413TIP3    H270655   1.649   2.850  14.134 -1.1169  1.9717 -0.0865
16414TIP3   OH270656   4.109   0.481   2.528  0.0796  0.2567 -0.7236
16414TIP3    H170657   4.178   0.418   2.550 -1.1611 -0.2522  2.3098
16414TIP3    H270658   4.056   0.486   2.608 -1.9276  2.5250 -2.0752
16415TIP3   OH270659   5.980   4.374  16.099 -0.3012  0.0885 -0.5497
16415TIP3    H170660   5.976   4.470  16.102  1.2179  0.1859 -1.0561
16415TIP3    H270661   5.998   4.349  16.190  1.7789  0.4618 -0.8108
16416TIP3   OH270662   4.161   1.705  16.901 -0.1847  0.7948  0.0186
16416TIP3    H170663   4.251   1.687  16.873 -0.0807 -0.2378  0.9462
16416TIP3    H270664   4.169   1.731  16.993 -0.8507  0.4319  0.1874
16417TIP3   OH270665   6.178   6.149   5.097 -0.2329 -0.4852 -0.7021
16417TIP3    H170666   6.093   6.193   5.094  1.5466  3.4129  0.1264
16417TIP3    H270667   6.172   6.090   5.171 -2.0673  0.0651 -0.3562
16418TIP3   OH270668   0.875   0.667  12.149  0.0721  0.0778 -0.2141
16418TIP3    H170669   0.843   0.754  12.126  0.4795  0.3429  0.1991
16418TIP3    H270670   0.839   0.610  12.082 -0.6629  0.4777 -0.1721
16419TIP3   OH270671   5.976   4.297   0.808  0.4511 -0.3566  0.3033
16419TIP3    H170672   5.972   4.388   0.834 -1.8963  0.0742 -1.2086
16419TIP3    H270673   5.927   4.250   0.876 -0.0260 -0.1959  0.0724
16420TIP3   OH270674   2.518   1.919  11.452 -0.5808 -0.4026  0.5593
16420TIP3    H170675   2.505   1.999  11.503 -1.1675 -0.9596  1.3009
16420TIP3    H270676   2.463   1.853  11.495 -1.2421 -0.8449 -0.9243
16421TIP3   OH270677   4.644   5.122   4.471 -0.8651 -0.1313  0.4635
16421TIP3    H170678   4.580   5.185   4.505 -2.0716 -0.3401 -1.2959
16421TIP3    H270679   4.642   5.049   4.534 -1.4828  0.3822  1.0516
16422TIP3   OH270680   3.002   4.086   1.864 -0.1390 -0.2959 -0.0659
16422TIP3    H170681   2.956   4.128   1.936  0.0941  1.5713 -0.9493
16422TIP3    H270682   3.063   4.025   1.906 -0.8495 -0.1248  1.2471
16423TIP3   OH270683   1.574   3.047   2.216 -0.4094  0.1439 -0.5051
16423TIP3    H170684   1.514   2.972   2.208  0.8122 -0.8002 -1.1377
16423TIP3    H270685   1.633   3.038   2.141  0.5817  1.0013  0.1587
16424TIP3   OH270686   6.317   0.821   5.838  0.0620  0.3818 -0.5283
16424TIP3    H170687   6.292   0.913   5.839 -1.7211  0.1595 -4.1513
16424TIP3    H270688   6.248   0.779   5.786  1.1656 -2.8812  0.4128
16425TIP3   OH270689   1.762   5.564   2.216  0.3373  0.5674  0.1298
16425TIP3    H170690   1.721   5.625   2.153  2.9087 -0.1790 -2.4964
16425TIP3    H270691   1.833   5.615   2.255  1.1110 -0.0619 -0.4322
16426TIP3   OH270692   1.458   0.834  16.377  0.0498 -0.2701 -0.1809
16426TIP3    H170693   1.553   0.834  16.391  0.1974  0.4721 -1.1192
16426TIP3    H270694   1.447   0.803  16.287 -0.7370 -2.3658  0.5718
16427TIP3   OH270695   6.077   1.185  14.996 -0.4303 -0.6944 -0.0957
16427TIP3    H170696   5.989   1.160  15.026 -0.0111 -2.4559 -0.2262
16427TIP3    H270697   6.086   1.141  14.911  0.2048  0.3070 -0.5623
16428TIP3   OH270698   6.272   0.177  13.535  0.0396 -0.3055  0.3031
16428TIP3    H170699   6.210   0.250  13.542  0.3792  0.3596 -2.3452
16428TIP3    H270700   6.348   0.204  13.586  0.0207  1.0761 -0.3662
16429TIP3   OH270701   0.612   3.958   3.873  0.0610  0.8921  0.1367
16429TIP3    H170702   0.539   4.021   3.877  0.0259  0.9985 -1.3489
16429TIP3    H270703   0.574   3.881   3.831 -0.1891 -0.6221  2.9221
16430TIP3   OH270704   6.414   6.703   3.087  0.5248 -0.2039  0.0003
16430TIP3    H170705   6.348   6.644   3.123 -1.5514  1.6425 -0.5895
16430TIP3    H270706   6.464   6.732   3.164 -0.4679 -0.3284  0.7116
16431TIP3   OH270707   4.475   0.665   4.273 -0.6058  0.1117 -0.0508
16431TIP3    H170708   4.437   0.724   4.208 -0.7130  0.6788  0.5193
16431TIP3    H270709   4.521   0.723   4.334  1.4033 -0.5487 -0.8360
16432TIP3   OH270710   1.145   2.915   0.345 -0.4669 -0.5906 -0.3857
16432TIP3    H170711   1.135   2.954   0.258 -0.0705  1.2159  0.3226
16432TIP3    H270712   1.235   2.936   0.370 -0.5539 -1.1392  0.4241
16433TIP3   OH270713   4.242   5.197   5.019 -0.5818 -0.1939 -0.3055
16433TIP3    H170714   4.219   5.266   5.082 -1.0654  1.3847 -2.1414
16433TIP3    H270715   4.197   5.119   5.053  0.4404  0.1777  2.1336
16434TIP3   OH270716   3.623   2.457  13.979 -0.1375 -0.1178 -0.5040
16434TIP3    H170717   3.716   2.446  13.959  0.3652  0.6359  1.2569
16434TIP3    H270718   3.617   2.544  14.018 -1.4164 -0.5378  0.2873
16435TIP3   OH270719   4.387   3.500   2.819 -0.3621 -0.3681  0.4190
16435TIP3    H170720   4.337   3.460   2.890 -1.3801 -1.6721 -0.9729
16435TIP3    H270721   4.405   3.589   2.850  0.1600 -1.1867  2.7331
16436TIP3   OH270722   4.379   6.367   2.636  0.3695 -0.0632  0.1564
16436TIP3    H170723   4.291   6.335   2.657  0.5495 -1.1681 -0.6706
16436TIP3    H270724   4.366   6.456   2.606 -0.0658  1.1327  3.4304
16437TIP3   OH270725   4.677   5.750   0.198 -0.2598 -0.0562 -0.0549
16437TIP3    H170726   4.716   5.829   0.235  0.8807 -0.3086 -0.6710
16437TIP3    H270727   4.594   5.779   0.160 -1.0366  0.3745  1.8386
16438TIP3   OH270728   5.511   3.977  16.459 -0.5331  0.0265 -0.2788
16438TIP3    H170729   5.601   3.965  16.489 -0.0048 -0.9464 -2.0853
16438TIP3    H270730   5.477   3.888  16.450 -0.6624  0.2358 -2.3650
16439TIP3   OH270731   1.303   0.040   1.056  0.1029  0.4756 -0.3536
16439TIP3    H170732   1.343  -0.032   1.008  0.0702 -0.0069  0.3381
16439TIP3    H270733   1.327   0.025   1.148 -2.0213 -0.0801  0.1614
16440TIP3   OH270734   1.168   3.514   6.550  0.5113  0.1156 -0.2466
16440TIP3    H170735   1.202   3.468   6.626 -0.2223 -1.2915 -0.7427
16440TIP3    H270736   1.244   3.559   6.513  1.3337 -1.0222  0.0314
16441TIP3   OH270737   2.331   0.647   2.591  0.4985 -0.2748  0.4808
16441TIP3    H170738   2.255   0.703   2.581  0.0583 -0.6434  1.5700
16441TIP3    H270739   2.391   0.674   2.522 -0.5952  0.0497 -0.3603
16442TIP3   OH270740   5.037   1.830   6.811 -0.2752 -0.0949 -0.6486
16442TIP3    H170741   5.004   1.770   6.745  0.9491 -1.0832 -0.4031
16442TIP3    H270742   5.027   1.784   6.894 -2.0556  1.2487 -0.0716
16443TIP3   OH270743   2.155   5.427   6.359 -0.1852  0.1083  0.0938
16443TIP3    H170744   2.203   5.509   6.371  0.6215 -0.0553 -1.6520
16443TIP3    H270745   2.077   5.436   6.414  0.0841  1.8756  0.2390
16444TIP3   OH270746   5.845   5.203  13.374  0.5636  0.3678 -0.3652
16444TIP3    H170747   5.854   5.126  13.431  0.5281 -0.1596 -1.0597
16444TIP3    H270748   5.772   5.252  13.412  1.3656  0.6971  0.7966
16445TIP3   OH270749   0.571   1.794   2.865 -0.2593 -0.1986 -0.0654
16445TIP3    H170750   0.479   1.770   2.874  0.0707 -1.9712 -0.9511
16445TIP3    H270751   0.590   1.847   2.943 -2.2785  1.1542 -0.4223
16446TIP3   OH270752   0.345   5.168  13.778 -0.0784 -0.0243  0.1893
16446TIP3    H170753   0.389   5.252  13.764  0.7246 -0.5117 -0.3092
16446TIP3    H270754   0.260   5.178  13.735 -0.2136  0.7197  0.6170
16447TIP3   OH270755   3.116   1.906   3.440 -0.0252  0.5289 -0.4333
16447TIP3    H170756   3.100   1.999   3.425 -2.0542  0.9428  3.2445
16447TIP3    H270757   3.190   1.904   3.501 -0.0999 -0.2387 -0.3574
16448TIP3   OH270758   1.943   5.289   2.124 -0.5824 -0.2068 -0.5447
16448TIP3    H170759   1.876   5.351   2.096 -0.5227  0.2862  0.3793
16448TIP3    H270760   2.023   5.319   2.081 -0.6594  0.0557 -0.5047
16449TIP3   OH270761   2.514   1.955   5.262  0.2514 -0.1289 -0.0663
16449TIP3    H170762   2.495   2.009   5.338  0.6215  0.5961 -0.4837
16449TIP3    H270763   2.499   2.013   5.187 -0.1127 -0.8309 -0.5515
16450TIP3   OH270764   2.913   4.104   2.309 -0.7737  0.5625 -0.5021
16450TIP3    H170765   2.938   4.018   2.343 -1.5323  0.0137 -1.2958
16450TIP3    H270766   2.902   4.159   2.387 -0.9469 -0.2336  0.0406
16451TIP3   OH270767   3.139   5.774  13.867  0.2818  0.8817  0.2187
16451TIP3    H170768   3.208   5.717  13.903  0.4632  1.4477  0.8008
16451TIP3    H270769   3.187   5.837  13.812 -0.0788 -0.5022 -1.7657
16452TIP3   OH270770   1.248   1.550  14.108  0.0847 -0.8924 -0.7506
16452TIP3    H170771   1.161   1.589  14.106  0.3088 -0.3056  0.4452
16452TIP3    H270772   1.237   1.466  14.063 -1.4134 -1.4611  0.5788
16453TIP3   OH270773   6.746   3.960   0.901 -0.0148 -0.1049  0.1716
16453TIP3    H170774   6.762   3.968   0.807 -1.2339 -0.6858 -0.0998
16453TIP3    H270775   6.825   3.996   0.941  1.3836 -1.5989 -1.0817
16454TIP3   OH270776   6.022   4.703  11.638  0.6464  0.1168 -0.5037
16454TIP3    H170777   6.016   4.797  11.655  0.6128  0.0609 -0.2068
16454TIP3    H270778   5.967   4.663  11.705  1.5986 -0.1900  0.1210
16455TIP3   OH270779   3.201   5.670   0.137  0.0699 -0.5543  0.0709
16455TIP3    H170780   3.293   5.652   0.119  0.2073 -0.2933  0.5137
16455TIP3    H270781   3.200   5.757   0.177 -0.4731 -0.0918 -0.9001
16456TIP3   OH270782   4.366   6.332  12.403 -0.5129 -0.2952  0.4529
16456TIP3    H170783   4.440   6.278  12.432 -0.4579  0.1147  1.0977
16456TIP3    H270784   4.405   6.392  12.340 -0.2789 -0.0583  0.8155
16457TIP3   OH270785   1.850   0.382   1.150  0.2867 -0.2294  0.4597
16457TIP3    H170786   1.937   0.403   1.119 -0.4429  0.7296 -1.0451
16457TIP3    H270787   1.799   0.462   1.137 -0.5019 -0.2863  2.6720
16458TIP3   OH270788   0.337   3.670  16.513 -0.1559 -0.0803  0.4600
16458TIP3    H170789   0.429   3.654  16.490  0.2568  2.6270 -0.1442
16458TIP3    H270790   0.335   3.670  16.608  0.9159  1.6621  0.5242
16459TIP3   OH270791   1.072   1.440  10.888 -0.2282  0.1885 -0.1572
16459TIP3    H170792   1.087   1.534  10.896 -0.7269  0.4586 -1.9882
16459TIP3    H270793   0.977   1.429  10.895 -0.2706 -0.0429 -0.9614
16460TIP3   OH270794   0.503   0.999  14.416  0.2529  0.2455 -0.1028
16460TIP3    H170795   0.477   0.990  14.508  2.4414  1.5189  0.7269
16460TIP3    H270796   0.493   1.093  14.398  2.6820  0.5546 -0.1568
16461TIP3   OH270797   4.619   0.532  14.825 -0.2414  0.4492  0.7180
16461TIP3    H170798   4.682   0.482  14.877 -0.1966 -0.3118 -0.0395
16461TIP3    H270799   4.669   0.562  14.749 -0.7518 -0.0799  0.1574
16462TIP3   OH270800   1.315   6.710  12.926  0.1201  0.6001 -0.1271
16462TIP3    H170801   1.411   6.715  12.930  0.1400  1.7403 -1.4724
16462TIP3    H270802   1.297   6.674  12.839 -0.6752 -1.5485  0.8385
16463TIP3   OH270803   6.584   6.546   1.369  0.2061  0.7190 -0.6665
16463TIP3    H170804   6.627   6.574   1.449 -0.8715 -0.0186  0.1934
16463TIP3    H270805   6.538   6.465   1.393 -0.3538  0.6293 -1.9475
16464TIP3   OH270806   5.356   5.144  12.203  0.0538  0.3175 -0.4578
16464TIP3    H170807   5.384   5.054  12.189  0.4836 -0.3078  3.3910
16464TIP3    H270808   5.262   5.144  12.187 -0.0980 -1.0707  0.3180
16465TIP3   OH270809   0.752   0.306   5.175 -0.4889 -0.3422 -0.1942
16465TIP3    H170810   0.697   0.252   5.232 -0.5207  1.3700  1.5203
16465TIP3    H270811   0.695   0.379   5.150  0.7781  1.2114  1.2289
16466TIP3   OH270812   0.974   3.530   2.610  0.3432 -0.1450  0.3345
16466TIP3    H170813   1.043   3.514   2.546 -2.0352  0.2271 -2.5273
16466TIP3    H270814   0.954   3.623   2.603 -1.0086 -0.3975  0.4403
16467TIP3   OH270815   6.051   0.180  15.609  0.0530 -0.2768  0.3967
16467TIP3    H170816   6.014   0.136  15.685 -0.3721  0.0576  0.3860
16467TIP3    H270817   5.975   0.214  15.561  0.3352 -0.1891  0.0074
16468TIP3   OH270818   3.917   2.959  10.482  0.0080  0.2528 -0.0122
16468TIP3    H170819   3.918   2.907  10.563  0.7895  2.3499  1.3965
16468TIP3    H270820   3.828   2.995  10.479  0.1012  0.5031  0.1575
16469TIP3   OH270821   2.330   6.354  10.631 -0.4531 -0.0480 -0.3815
16469TIP3    H170822   2.361   6.443  10.616 -0.2653  0.2248  1.4261
16469TIP3    H270823   2.400   6.311  10.679 -0.8622 -0.9388 -0.5570
16470TIP3   OH270824   2.593   1.515  15.714 -0.1088 -0.1114  0.0235
16470TIP3    H170825   2.679   1.517  15.671 -0.6370 -1.3238 -1.1404
16470TIP3    H270826   2.530   1.523  15.642 -1.0167 -2.1572  0.5287
16471TIP3   OH270827   2.255   5.134   1.079  0.5410  0.5373 -0.1316
16471TIP3    H170828   2.236   5.203   1.142 -0.0485  1.8900 -1.7098
16471TIP3    H270829   2.348   5.144   1.060  0.2981  1.4074 -0.9090
16472TIP3   OH270830   0.002   4.162  17.017 -0.5553  0.1667  0.9084
16472TIP3    H170831  -0.053   4.101  17.065 -0.2717 -0.2980  0.6466
16472TIP3    H270832  -0.039   4.168  16.930 -0.5758  0.3380  0.9297
16473TIP3   OH270833   3.603   5.589  13.832 -0.0294 -0.1021 -0.3951
16473TIP3    H170834   3.681   5.584  13.887 -0.1554  3.3176  0.3082
16473TIP3    H270835   3.548   5.517  13.863  1.8331 -1.1279  0.7401
16474TIP3   OH270836   1.145   0.070   0.620 -0.0162  0.8779 -0.3830
16474TIP3    H170837   1.149   0.043   0.528 -0.8167 -0.2054 -0.1209
16474TIP3    H270838   1.171   0.162   0.619  1.5277  0.4746 -1.4881
16475TIP3   OH270839   6.004   1.700   1.570  0.1093 -0.0873 -0.2095
16475TIP3    H170840   6.075   1.637   1.562  1.0958  0.8680  0.5960
16475TIP3    H270841   5.961   1.700   1.485  0.1827 -1.7138 -0.2647
16476TIP3   OH270842   1.704   0.393  11.306  0.1208 -0.1113 -0.1104
16476TIP3    H170843   1.744   0.346  11.379 -0.3808 -0.5964 -0.1474
16476TIP3    H270844   1.744   0.480  11.310  1.0749 -0.5331 -0.0565
16477TIP3   OH270845   2.369   6.643  13.385  0.4494  0.2600 -0.0418
16477TIP3    H170846   2.292   6.696  13.364  0.4090  0.5002  0.6888
16477TIP3    H270847   2.443   6.697  13.357  0.3486 -0.6364 -2.2642
16478TIP3   OH270848   4.865   0.051   2.563 -0.0819  0.1091  0.3904
16478TIP3    H170849   4.935  -0.015   2.562  0.5034  0.6821  1.3812
16478TIP3    H270850   4.855   0.077   2.472 -0.3841 -1.3913 -0.0343
16479TIP3   OH270851   3.943   5.512   1.760  0.3244 -0.2269 -0.0506
16479TIP3    H170852   3.982   5.559   1.834  0.2408 -0.5769  0.2185
16479TIP3    H270853   4.010   5.516   1.692 -0.7608  2.8142 -1.1164
16480TIP3   OH270854   0.468   4.437   0.398 -0.0308  0.0273  0.1122
16480TIP3    H170855   0.387   4.489   0.394  0.6377  1.2947  1.6051
16480TIP3    H270856   0.534   4.493   0.357  0.0564 -1.1797 -1.4877
16481TIP3   OH270857   5.950   3.703   1.175 -0.3005  0.1945 -0.6174
16481TIP3    H170858   6.044   3.709   1.191 -0.5915 -0.6354  1.8668
16481TIP3    H270859   5.931   3.609   1.179 -1.5893  0.4809  1.9019
16482TIP3   OH270860   3.879   3.079   4.652 -0.0353 -0.3917 -0.5199
16482TIP3    H170861   3.887   3.011   4.585 -1.3196 -0.9701 -0.1081
16482TIP3    H270862   3.882   3.032   4.735 -0.0829  0.1563 -0.2025
16483TIP3   OH270863   4.586   6.084   2.741 -0.1956 -0.1053 -0.2813
16483TIP3    H170864   4.573   6.074   2.647 -0.3608 -0.2216 -0.2468
16483TIP3    H270865   4.541   6.166   2.763 -1.2050 -0.6896 -0.1007
16484TIP3   OH270866   2.040   6.660   5.457  0.1097 -0.0289  0.1943
16484TIP3    H170867   2.066   6.699   5.373  0.0798  0.5795  0.4639
16484TIP3    H270868   2.025   6.568   5.436  0.4785  0.0338 -0.3916
16485TIP3   OH270869   3.671   3.460  11.350  0.3378  0.1926 -0.5141
16485TIP3    H170870   3.691   3.481  11.441 -1.3060  1.8012 -0.4784
16485TIP3    H270871   3.614   3.531  11.321  0.2238 -0.6872 -2.5846
16486TIP3   OH270872   4.432   2.538  11.053  0.0039 -0.2048  0.4064
16486TIP3    H170873   4.512   2.522  11.001 -1.1252 -2.0128 -0.9046
16486TIP3    H270874   4.403   2.625  11.026  0.3270 -0.4542 -0.8089
16487TIP3   OH270875   4.016   4.509   1.179 -0.1209 -0.0846  0.0804
16487TIP3    H170876   4.055   4.596   1.166 -1.0906  0.5729  1.3632
16487TIP3    H270877   4.075   4.466   1.242  1.0058 -0.8377 -1.4233
16488TIP3   OH270878   5.139   4.465   5.242 -0.0363  0.1281 -0.0158
16488TIP3    H170879   5.211   4.503   5.292 -0.2896  1.7097 -0.7881
16488TIP3    H270880   5.168   4.375   5.223  1.3244  0.4376  0.4515
16489TIP3   OH270881   5.161   5.377   4.917  0.5313 -0.6687 -0.0880
16489TIP3    H170882   5.161   5.464   4.877  0.8219 -1.0039 -0.8219
16489TIP3    H270883   5.069   5.362   4.940  0.4378 -0.2805 -0.1867
16490TIP3   OH270884   2.033   4.562  11.863 -0.0414 -0.1908 -0.1329
16490TIP3    H170885   1.997   4.498  11.802 -0.5369  0.8222 -0.9372
16490TIP3    H270886   2.112   4.594  11.819 -0.6145  0.8299 -0.4441
16491TIP3   OH270887   5.889   5.871  15.887  0.3357 -0.2453 -0.0934
16491TIP3    H170888   5.802   5.912  15.892  1.0914  1.2833  1.3479
16491TIP3    H270889   5.915   5.859  15.978  2.7138  1.7570 -0.4253
16492TIP3   OH270890   2.324   1.982  11.827  0.3299 -0.1301  0.8152
16492TIP3    H170891   2.395   1.918  11.829  0.1965 -0.2967  0.2691
16492TIP3    H270892   2.246   1.931  11.847 -0.1545 -0.6639 -2.0204
16493TIP3   OH270893   0.485   1.744  11.524  0.1375  0.4083 -0.9498
16493TIP3    H170894   0.507   1.652  11.517  0.4740  0.3407  0.6468
16493TIP3    H270895   0.515   1.783  11.442 -0.1492 -0.9180 -1.6937
16494TIP3   OH270896   5.049   0.419  13.523  0.2572  0.2976 -0.1040
16494TIP3    H170897   5.130   0.368  13.521  0.4308  0.5899 -0.8818
16494TIP3    H270898   4.990   0.372  13.464 -0.0949  0.1657  0.3494
16495TIP3   OH270899   0.618   4.062   6.298  0.3767  0.0405 -0.4790
16495TIP3    H170900   0.686   4.003   6.331 -0.7481 -0.8186  0.3333
16495TIP3    H270901   0.556   4.071   6.369 -0.8225  0.1280 -1.5025
16496TIP3   OH270902   6.660   3.534   3.943 -0.7613 -0.1303  0.1059
16496TIP3    H170903   6.747   3.557   3.977 -0.8127  1.1210 -0.5650
16496TIP3    H270904   6.599   3.570   4.007 -0.8067 -1.1093  0.6365
16497TIP3   OH270905   0.032   6.418  12.848 -0.2382  0.6246  0.1133
16497TIP3    H170906  -0.055   6.416  12.888 -0.4822 -0.2288 -0.4329
16497TIP3    H270907   0.084   6.356  12.900 -0.3177  0.1665 -0.3489
16498TIP3   OH270908   3.265   2.540   3.458 -0.2804 -0.2406  0.2959
16498TIP3    H170909   3.284   2.600   3.530  0.2710 -0.0016 -0.0441
16498TIP3    H270910   3.231   2.461   3.501  0.4804 -0.2765  0.8546
16499TIP3   OH270911   2.439   3.851   2.474  0.1962  0.1542  0.1157
16499TIP3    H170912   2.344   3.863   2.480  0.0958 -0.6618  0.2057
16499TIP3    H270913   2.451   3.766   2.432  0.8948  0.5359 -0.4784
16500TIP3   OH270914   3.533   2.976   3.611  0.1211 -0.0358  0.0726
16500TIP3    H170915   3.517   3.019   3.695  0.5516  0.5415 -0.1315
16500TIP3    H270916   3.480   3.026   3.549 -1.2349 -1.2737  0.1938
16501TIP3   OH270917   5.754   0.234  10.948 -0.1607  0.2518  0.5332
16501TIP3    H170918   5.666   0.271  10.937 -0.6760  0.4159  3.9170
16501TIP3    H270919   5.739   0.150  10.992  1.3537 -0.2699  0.0968
16502TIP3   OH270920   2.593   5.515   2.754  0.5598 -0.2803 -0.0901
16502TIP3    H170921   2.514   5.479   2.714 -0.2134 -0.9839  1.9538
16502TIP3    H270922   2.562   5.589   2.807  1.1411 -0.9284  1.2048
16503TIP3   OH270923   5.440   1.000  14.121 -0.8399  0.1469 -0.4058
16503TIP3    H170924   5.521   1.012  14.072 -0.3747  2.7021  0.8461
16503TIP3    H270925   5.372   1.037  14.065 -0.4997  1.8202  0.2329
16504TIP3   OH270926   3.890   5.805  13.985 -0.1942 -0.2462  0.7961
16504TIP3    H170927   3.822   5.845  13.931 -0.6788  2.3242  3.1055
16504TIP3    H270928   3.972   5.835  13.946 -0.5135  0.8259  0.9278
16505TIP3   OH270929   0.160   4.156  13.648  0.0993  0.3735 -0.1556
16505TIP3    H170930   0.105   4.226  13.613  1.0450  0.4004 -1.6880
16505TIP3    H270931   0.234   4.202  13.689  0.0193  0.2984  0.0729
16506TIP3   OH270932   4.655   6.037  13.854  0.5768 -1.2401 -0.3697
16506TIP3    H170933   4.614   6.077  13.931 -0.8124 -2.8664 -0.1892
16506TIP3    H270934   4.702   6.109  13.812 -0.0373  0.0745  1.0677
16507TIP3   OH270935   1.124   0.768  11.691  0.2155 -0.4841 -0.4422
16507TIP3    H170936   1.090   0.802  11.774  1.7406 -0.0966  0.0599
16507TIP3    H270937   1.215   0.747  11.709  0.6360 -0.2264 -2.0697
16508TIP3   OH270938   0.733   5.687  11.341 -0.1592 -0.4152  0.1057
16508TIP3    H170939   0.763   5.596  11.334  0.6791 -0.1987  0.7026
16508TIP3    H270940   0.694   5.693  11.428 -0.0292 -0.1523  0.1477
16509TIP3   OH270941   4.349   5.888   4.252  0.0068  0.1940  0.2131
16509TIP3    H170942   4.443   5.902   4.241  0.2819 -0.2013  1.7887
16509TIP3    H270943   4.321   5.843   4.172  1.2270 -0.0314 -0.1016
16510TIP3   OH270944   6.789   6.543   4.808  0.1294  0.5835  0.4153
16510TIP3    H170945   6.725   6.525   4.739  1.0780 -1.8887  0.0610
16510TIP3    H270946   6.833   6.623   4.780 -0.8560  0.7243 -0.8071
16511TIP3   OH270947   6.019   2.944   4.616  0.5226 -0.3568 -0.1087
16511TIP3    H170948   6.045   3.025   4.658 -0.7577  0.0464 -0.0324
16511TIP3    H270949   5.948   2.970   4.556 -0.8428 -1.5803  0.9023
16512TIP3   OH270950   1.402   1.210  12.105  0.0953 -0.1366  0.2848
16512TIP3    H170951   1.432   1.301  12.097  0.2099 -0.2207 -0.3551
16512TIP3    H270952   1.452   1.163  12.038 -0.8055 -0.4515 -0.1859
16513TIP3   OH270953   6.255   2.430   3.024  0.4113 -0.2821  0.1897
16513TIP3    H170954   6.178   2.480   3.053  0.7018  0.5872 -0.5003
16513TIP3    H270955   6.326   2.463   3.078  0.4151 -0.6512  0.4082
16514TIP3   OH270956   5.084   4.149   3.959  0.3822 -0.5385  0.2114
16514TIP3    H170957   5.086   4.226   3.902  0.2457 -1.2005 -0.7208
16514TIP3    H270958   5.169   4.107   3.947  1.6945  1.0764  3.0802
16515TIP3   OH270959   3.078   2.342   4.103  0.2609  0.5038  0.2422
16515TIP3    H170960   3.009   2.395   4.143  1.4998  1.1506  1.6278
16515TIP3    H270961   3.158   2.369   4.148  1.4884  0.0436 -1.5742
16516TIP3   OH270962   5.113   0.307   6.144  0.3332 -0.4280 -0.0371
16516TIP3    H170963   5.100   0.386   6.196 -0.1302 -0.1636 -0.5454
16516TIP3    H270964   5.040   0.307   6.081  1.0865 -0.5351 -0.9384
16517TIP3   OH270965   2.167   2.947   1.198  0.7102  0.2454 -0.3092
16517TIP3    H170966   2.168   2.885   1.125 -0.5173  0.0048 -0.1422
16517TIP3    H270967   2.168   3.033   1.156 -2.4786  0.1734 -0.8060
16518TIP3   OH270968   6.131   3.710   0.821 -0.2815  0.4991  0.7144
16518TIP3    H170969   6.071   3.755   0.761 -0.6153 -0.3737  0.3810
16518TIP3    H270970   6.160   3.633   0.772  1.7731  1.3162  0.5389
16519TIP3   OH270971   1.938   3.386  16.305 -0.6992 -0.1632  0.6662
16519TIP3    H170972   1.936   3.302  16.351 -2.6372  0.1770  1.3030
16519TIP3    H270973   1.896   3.447  16.366 -2.1631  0.5893 -1.0279
16520TIP3   OH270974   6.770   3.365  12.581 -0.5490 -0.6888  0.1129
16520TIP3    H170975   6.713   3.427  12.628 -2.2002 -1.3867 -0.8694
16520TIP3    H270976   6.854   3.410  12.575 -2.3289  2.7661 -2.9253
16521TIP3   OH270977   2.720   3.978  11.895  0.1337  0.0139  0.0975
16521TIP3    H170978   2.739   3.998  11.803  2.2824 -0.3490  0.4013
16521TIP3    H270979   2.788   4.024  11.944  1.1268 -2.4371  1.2353
16522TIP3   OH270980   5.348   0.315  16.277  0.1498  0.0884  0.4971
16522TIP3    H170981   5.384   0.305  16.365  1.6776  0.7146 -0.0349
16522TIP3    H270982   5.349   0.227  16.239  1.4230  0.1286  0.3962
16523TIP3   OH270983   2.547   2.367  15.535  0.3240  0.4035  0.3774
16523TIP3    H170984   2.481   2.299  15.520  1.3034 -0.2770 -1.0052
16523TIP3    H270985   2.623   2.319  15.569  0.7569  0.9257  0.1563
16524TIP3   OH270986   4.333   4.094   5.273 -0.5776 -0.0594  0.3421
16524TIP3    H170987   4.273   4.164   5.301 -1.4089  0.5360 -2.5191
16524TIP3    H270988   4.390   4.137   5.209 -0.5331 -1.8036 -0.8331
16525TIP3   OH270989   6.518   4.434   3.475  0.0907  0.4768 -0.2963
16525TIP3    H170990   6.562   4.364   3.523 -0.1466  0.3596 -0.2473
16525TIP3    H270991   6.526   4.510   3.532  0.0384  0.4019 -0.1879
16526TIP3   OH270992   3.834   5.641   1.095 -0.3168  0.4333  0.3394
16526TIP3    H170993   3.808   5.550   1.087 -1.7893  0.7788  0.8820
16526TIP3    H270994   3.774   5.678   1.160  2.2263  1.0537  2.5362
16527TIP3   OH270995   3.633   5.581   2.149  0.1976 -0.1519 -0.6896
16527TIP3    H170996   3.542   5.562   2.127 -0.1398  1.1688 -0.5071
16527TIP3    H270997   3.663   5.642   2.082  1.0108 -0.6875 -0.8368
16528TIP3   OH270998   2.429   2.039  12.982  0.2269  0.1255 -0.2521
16528TIP3    H170999   2.402   1.976  12.916 -0.6020 -1.4519  1.5220
16528TIP3    H271000   2.455   2.117  12.931 -2.4448 -0.1960 -2.3127
16529TIP3   OH271001   3.969   2.556   1.821  0.1621 -0.2144  0.1286
16529TIP3    H171002   3.879   2.537   1.849 -0.5161  2.1182 -0.2980
16529TIP3    H271003   3.972   2.525   1.730 -0.5294  0.5086 -0.1590
16530TIP3   OH271004   1.239   1.066  13.846 -0.2233 -0.1355  0.4268
16530TIP3    H171005   1.263   0.997  13.783 -1.1719  0.5755 -0.7713
16530TIP3    H271006   1.176   1.120  13.798 -1.5801 -0.0020  2.2786
16531TIP3   OH271007   3.766   3.399   4.561 -0.3663  0.1869  0.2464
16531TIP3    H171008   3.776   3.424   4.653 -1.0001 -0.1400  0.4127
16531TIP3    H271009   3.743   3.480   4.516 -2.0325  0.0268  0.7171
16532TIP3   OH271010   3.127   1.833   3.155  0.0141  0.1131 -0.5511
16532TIP3    H171011   3.209   1.788   3.134  0.4776  0.0042  1.3134
16532TIP3    H271012   3.130   1.845   3.250 -1.8573  0.6690 -0.5245
16533TIP3   OH271013   0.737   4.268  15.677  0.0449 -0.2574 -0.0039
16533TIP3    H171014   0.668   4.205  15.699 -0.1836 -0.1814 -0.5032
16533TIP3    H271015   0.753   4.314  15.760  0.9217 -1.6426  0.6262
16534TIP3   OH271016   2.744   4.629  12.135  0.0621  0.3887 -0.3258
16534TIP3    H171017   2.791   4.546  12.127  1.4763  0.8575  1.9782
16534TIP3    H271018   2.782   4.685  12.067  0.1813 -0.3961 -0.9102
16535TIP3   OH271019   1.230   1.952  10.638 -0.4171 -0.0934  0.3137
16535TIP3    H171020   1.152   2.002  10.660 -1.5479 -1.1759 -1.0157
16535TIP3    H271021   1.272   2.001  10.568 -1.6557 -1.0359 -1.1579
16536TIP3   OH271022   3.638   5.614  13.577  0.3810 -0.0563  0.0675
16536TIP3    H171023   3.623   5.613  13.672  1.4710  0.1563  0.2542
16536TIP3    H271024   3.653   5.707  13.556 -1.6098  0.1632 -0.6295
16537TIP3   OH271025   2.003   1.537  13.125 -0.6084 -0.4851 -0.4928
16537TIP3    H171026   2.066   1.587  13.073 -1.1962  1.2536  0.3973
16537TIP3    H271027   2.056   1.491  13.190 -0.2558  1.7359  0.8864
16538TIP3   OH271028   1.432   6.227  10.800  0.2349 -0.0966  0.2339
16538TIP3    H171029   1.423   6.155  10.862 -1.1438 -2.5143 -2.4807
16538TIP3    H271030   1.347   6.271  10.802 -0.6859 -1.6314 -1.3922
16539TIP3   OH271031   4.954   0.459   4.708  0.7233  0.2441 -0.0406
16539TIP3    H171032   4.920   0.435   4.794  0.0759 -1.0692 -0.6342
16539TIP3    H271033   5.049   0.460   4.719  0.6544 -0.1323  0.6307
16540TIP3   OH271034   5.923   1.142   2.800  0.4316 -0.7520 -0.2379
16540TIP3    H171035   5.945   1.162   2.891  0.3321  0.5274 -0.4748
16540TIP3    H271036   5.978   1.201   2.748 -2.0185  1.1016 -0.8984
16541TIP3   OH271037   1.819   6.714  13.676 -0.5746 -0.1259  0.4360
16541TIP3    H171038   1.822   6.631  13.722  2.6711 -2.8259 -3.9056
16541TIP3    H271039   1.728   6.724  13.649 -0.6551 -3.8365 -1.1473
16542TIP3   OH271040   3.688   3.706  12.304  0.1956 -0.0471  0.4714
16542TIP3    H171041   3.640   3.642  12.357 -0.1520 -1.2905 -1.2619
16542TIP3    H271042   3.621   3.750  12.252  0.7114 -0.4734 -0.5920
16543TIP3   OH271043   3.400   4.705  10.337  0.3363  0.4037  0.4010
16543TIP3    H171044   3.432   4.650  10.265 -1.0851 -0.9281  0.7209
16543TIP3    H271045   3.359   4.643  10.397 -1.0997  1.7947  0.9159
16544TIP3   OH271046   2.084   5.562  10.769  0.6805  1.0077 -0.2745
16544TIP3    H171047   2.011   5.509  10.738  1.6899 -0.8526  0.3614
16544TIP3    H271048   2.080   5.557  10.864  1.4760  1.1021 -0.2267
16545TIP3   OH271049   5.076   2.012  14.300 -0.1321 -0.2960 -0.5196
16545TIP3    H171050   4.984   1.992  14.313  0.1248 -0.3121  1.6519
16545TIP3    H271051   5.091   2.092  14.351  1.5813 -1.7508  1.4417
16546TIP3   OH271052   0.753   1.318  13.217  0.3353 -0.2358 -0.2172
16546TIP3    H171053   0.675   1.370  13.238  0.6108  0.0192  0.1898
16546TIP3    H271054   0.737   1.234  13.260  0.7850  0.1999  0.8598
16547TIP3   OH271055   5.839   0.843  12.928  0.2755  0.4211  0.1196
16547TIP3    H171056   5.929   0.845  12.962 -0.2252  0.8484  1.5132
16547TIP3    H271057   5.824   0.932  12.897  0.8653 -0.0669 -1.6908
16548TIP3   OH271058   1.854   4.128  11.387  0.5785 -0.5308  0.3653
16548TIP3    H171059   1.764   4.141  11.415  0.7387  0.8889  0.3073
16548TIP3    H271060   1.848   4.067  11.313 -0.1509 -1.7270  1.3670
16549TIP3   OH271061   2.925   5.309   0.875 -0.1971  0.0728 -0.6814
16549TIP3    H171062   2.875   5.263   0.943 -0.7621  1.2854 -0.2585
16549TIP3    H271063   2.895   5.271   0.793 -0.6960 -0.2695 -0.3462
16550TIP3   OH271064   3.967   3.905  14.713  0.1672 -0.1963  0.2238
16550TIP3    H171065   3.956   3.999  14.727  1.6633 -0.2508  2.0917
16550TIP3    H271066   4.059   3.895  14.690 -0.5801 -0.9715 -2.7958
16551TIP3   OH271067   1.255   1.204   1.254 -0.3407 -0.1760 -0.0275
16551TIP3    H171068   1.195   1.185   1.326  0.5047 -0.8018  0.5265
16551TIP3    H271069   1.240   1.133   1.191  0.4266 -0.8307  0.5120
16552TIP3   OH271070   5.134   6.070   4.189  0.1787  0.0476  0.1699
16552TIP3    H171071   5.073   6.038   4.123 -0.5288  1.0971  0.2987
16552TIP3    H271072   5.202   6.115   4.138 -1.3371  2.5212  0.1644
16553TIP3   OH271073   4.588   3.930  12.766  0.1988 -0.1224  0.1120
16553TIP3    H171074   4.645   3.895  12.834  1.0845  1.9989  0.5509
16553TIP3    H271075   4.630   4.012  12.739  0.2024 -1.1205 -3.4310
16554TIP3   OH271076   2.369   2.071   3.150 -0.2977 -0.3481  0.4431
16554TIP3    H171077   2.306   2.114   3.207  1.6824  1.1217  1.6592
16554TIP3    H271078   2.317   2.041   3.075 -2.6302 -0.4911  2.0075
16555TIP3   OH271079   5.335   5.950  12.583 -0.0370  0.8108 -0.0047
16555TIP3    H171080   5.313   5.943  12.490 -1.7969 -0.5400  0.4592
16555TIP3    H271081   5.413   5.896  12.594 -0.1791  0.4842 -0.5867
16556TIP3   OH271082   5.624   5.870   0.493 -0.0728 -0.1072  0.5179
16556TIP3    H171083   5.686   5.799   0.510 -0.2843 -0.1706  1.0633
16556TIP3    H271084   5.553   5.855   0.556 -2.1550 -1.7464 -1.9819
16557TIP3   OH271085   2.293   1.162  12.211 -0.1675 -0.0897  0.5023
16557TIP3    H171086   2.297   1.070  12.185  2.2874 -0.3754  1.6805
16557TIP3    H271087   2.271   1.209  12.130  1.1844 -1.4853 -0.7366
16558TIP3   OH271088   5.565   3.909   3.038 -0.4433  0.4520  0.5970
16558TIP3    H171089   5.589   3.977   2.975 -0.0732  0.3352  0.6089
16558TIP3    H271090   5.514   3.846   2.987 -0.8333  0.7669  0.5983
16559TIP3   OH271091   1.954   3.242   0.669  0.8841  0.5031 -0.2398
16559TIP3    H171092   1.926   3.174   0.608  1.1149 -0.0482  0.2553
16559TIP3    H271093   1.879   3.254   0.727  0.2704  1.7715 -1.2384
16560TIP3   OH271094   1.302   1.161  11.047 -0.1770  0.4135 -0.4695
16560TIP3    H171095   1.332   1.080  11.007  0.6452  0.4098  0.1374
16560TIP3    H271096   1.247   1.134  11.120 -2.3619  0.4131 -2.0047
16561TIP3   OH271097   1.240   0.197   2.102 -0.3605  0.1381  0.0186
16561TIP3    H171098   1.280   0.237   2.025 -1.8287  0.4471 -0.6228
16561TIP3    H271099   1.292   0.230   2.175  1.3986 -0.5880 -0.8527
16562TIP3   OH271100   2.811   4.415   5.706  0.2713 -0.0891 -0.1431
16562TIP3    H171101   2.762   4.349   5.756  1.5222 -2.5274 -1.9383
16562TIP3    H271102   2.766   4.418   5.622  1.7415 -0.5665 -0.9649
16563TIP3   OH271103   0.360   5.519  13.355  0.2999 -0.0460  0.1160
16563TIP3    H171104   0.453   5.505  13.336  0.6260  3.1690 -1.2140
16563TIP3    H271105   0.347   5.481  13.442  2.5452 -1.5755 -0.1422
16564TIP3   OH271106   1.845   0.606   5.901  0.1273  0.4665 -0.0035
16564TIP3    H171107   1.805   0.532   5.855  0.1490  1.2033 -1.2575
16564TIP3    H271108   1.915   0.567   5.953  1.1180 -0.2476 -1.7921
16565TIP3   OH271109   4.284   0.903   3.184 -0.2904  0.2703  0.0382
16565TIP3    H171110   4.198   0.941   3.203 -0.7754 -0.9051  0.2821
16565TIP3    H271111   4.281   0.881   3.091 -0.3226  0.0665  0.0866
16566TIP3   OH271112   1.639   5.155   5.154  0.6799 -0.4302  0.1467
16566TIP3    H171113   1.662   5.247   5.164 -0.2343 -0.1102 -0.5667
16566TIP3    H271114   1.667   5.132   5.066 -0.9672 -0.2290 -0.4694
16567TIP3   OH271115   6.656   3.917   0.616 -0.3070  0.1545 -0.0609
16567TIP3    H171116   6.640   3.958   0.531 -1.5674 -0.5754 -0.1925
16567TIP3    H271117   6.576   3.868   0.635  1.0845 -2.2386  0.0944
16568TIP3   OH271118   4.001   3.210  15.901 -0.1501  0.0541  0.6122
16568TIP3    H171119   4.067   3.225  15.968 -0.7172  1.3945  0.9053
16568TIP3    H271120   4.024   3.270  15.830  0.4108 -1.3073 -0.3979
16569TIP3   OH271121   1.236   4.396  14.739  0.4837 -0.1102  0.1153
16569TIP3    H171122   1.304   4.360  14.797 -1.8765 -2.5995  1.6203
16569TIP3    H271123   1.271   4.387  14.651  2.5978 -0.0324  0.9039
16570TIP3   OH271124   5.269   1.836  14.368  0.0161 -0.2951 -0.5905
16570TIP3    H171125   5.202   1.902  14.349 -0.2907 -0.7484 -1.1261
16570TIP3    H271126   5.288   1.847  14.461  0.9016  1.4071 -0.9470
16571TIP3   OH271127   6.093   6.323  15.635 -0.3708 -0.6453 -0.8589
16571TIP3    H171128   6.060   6.233  15.637  0.5446 -0.9881 -0.5410
16571TIP3    H271129   6.159   6.322  15.566  0.5387 -0.5547 -0.0121
16572TIP3   OH271130   5.911   6.351  12.104 -0.1191  0.1468 -0.1522
16572TIP3    H171131   5.838   6.327  12.161  1.0178 -0.6392  1.0398
16572TIP3    H271132   5.961   6.414  12.156  0.4668  0.0762 -0.6242
16573TIP3   OH271133   1.838   3.000  14.662  0.8430 -0.0526 -0.4080
16573TIP3    H171134   1.781   2.982  14.587  1.1452 -0.1037 -0.6281
16573TIP3    H271135   1.804   3.080  14.700 -0.4802 -1.0253  0.5371
16574TIP3   OH271136   1.795   0.571   2.776  0.3487  0.0115 -1.0530
16574TIP3    H171137   1.890   0.570   2.792 -0.0356  0.5715  1.8392
16574TIP3    H271138   1.760   0.506   2.837 -1.1862  0.3396 -1.5580
16575TIP3   OH271139   5.779   3.318  11.454  0.0649 -0.0793 -0.2427
16575TIP3    H171140   5.689   3.312  11.422 -1.1532  0.5499  2.8195
16575TIP3    H271141   5.825   3.368  11.386 -1.9417 -0.0658 -1.6805
16576TIP3   OH271142   3.435   4.018   5.653  0.2975  0.1592 -0.2148
16576TIP3    H171143   3.364   4.049   5.709 -0.4534 -1.7097 -0.0572
16576TIP3    H271144   3.410   4.046   5.565  0.0740  0.6919  0.0136
16577TIP3   OH271145   1.256   3.131  11.112 -0.0078  0.5669 -0.6334
16577TIP3    H171146   1.237   3.106  11.203  0.9659  2.1807  0.0602
16577TIP3    H271147   1.337   3.183  11.118  0.2557  0.4367 -2.4754
16578TIP3   OH271148   0.989   6.204  11.659 -0.1802 -0.1725 -0.4974
16578TIP3    H171149   0.964   6.112  11.663  1.1203 -0.4999  1.1529
16578TIP3    H271150   0.927   6.249  11.717  0.9700 -0.4991  1.0479
16579TIP3   OH271151   4.288   5.110   5.497 -0.7288 -0.2968  0.5197
16579TIP3    H171152   4.269   5.191   5.545  0.8577  0.0235  0.6586
16579TIP3    H271153   4.374   5.125   5.458 -0.8056 -1.5934 -0.1901
16580TIP3   OH271154   6.737   1.040   3.493 -0.1575  0.1814 -0.8308
16580TIP3    H171155   6.744   1.004   3.405  1.5909  0.8548 -0.9982
16580TIP3    H271156   6.645   1.027   3.516 -0.8460  0.6422 -3.0303
16581TIP3   OH271157   2.939   1.701   5.385 -0.0006  0.0843 -0.1734
16581TIP3    H171158   2.844   1.708   5.390  0.0114  0.9263 -0.8714
16581TIP3    H271159   2.962   1.747   5.305  0.9737 -0.3993 -0.1870
16582TIP3   OH271160   2.113   1.421   4.877 -0.2024  0.1701  0.1837
16582TIP3    H171161   2.023   1.394   4.859 -0.1169  0.3078 -0.5023
16582TIP3    H271162   2.143   1.460   4.795 -0.0767  1.6716  0.9103
16583TIP3   OH271163   4.233   6.442   0.251 -0.4157  0.2742 -0.3245
16583TIP3    H171164   4.152   6.457   0.300 -0.3258  3.1472 -0.8485
16583TIP3    H271165   4.207   6.450   0.159  0.4344  1.3232 -0.4918
16584TIP3   OH271166   3.029   5.690   3.485  0.4986  0.3796 -0.2057
16584TIP3    H171167   3.079   5.711   3.564  0.8742  0.6668 -0.5193
16584TIP3    H271168   2.958   5.633   3.516 -0.2100  1.6350  0.5793
16585TIP3   OH271169   2.365   6.128  14.700 -0.4111 -0.5290 -0.3543
16585TIP3    H171170   2.300   6.058  14.713 -0.5234 -0.3908 -0.1608
16585TIP3    H271171   2.387   6.156  14.789  0.8177 -1.4005 -0.3648
16586TIP3   OH271172   5.680   4.582   1.819 -0.1696  0.5814 -0.7519
16586TIP3    H171173   5.699   4.496   1.780  0.2753  1.7470 -3.3322
16586TIP3    H271174   5.640   4.632   1.748 -0.8501  2.3943  0.8191
16587TIP3   OH271175   6.216   4.290  11.799 -0.2046  0.3097 -0.4065
16587TIP3    H171176   6.161   4.257  11.728 -0.0559  0.0392 -0.4012
16587TIP3    H271177   6.269   4.358  11.759  0.6446 -0.5720 -0.8324
16588TIP3   OH271178   4.882   3.537   5.481 -0.0592 -0.5868 -0.3044
16588TIP3    H171179   4.861   3.618   5.528 -0.2387 -1.9225  2.0884
16588TIP3    H271180   4.973   3.548   5.454 -0.1509  0.4837 -0.2202
16589TIP3   OH271181   3.143   3.003  14.326  0.3092 -0.0318  0.7127
16589TIP3    H171182   3.199   3.010  14.249  1.3949 -0.3471  1.4618
16589TIP3    H271183   3.055   2.987  14.290  0.3992  1.8957 -0.5365
16590TIP3   OH271184   4.995   2.219  14.086 -0.1132 -0.3347  0.5088
16590TIP3    H171185   4.987   2.131  14.050  1.0291 -0.9079  1.5715
16590TIP3    H271186   4.914   2.231  14.137 -0.1043 -0.9262  0.6728
16591TIP3   OH271187   4.617   1.734  12.429  0.1969  0.2233 -0.1184
16591TIP3    H171188   4.610   1.645  12.396 -0.7728  0.4582 -0.5779
16591TIP3    H271189   4.560   1.736  12.507 -0.4800  0.6537 -0.6071
16592TIP3   OH271190   6.757   0.901   3.260  0.7511  0.0523 -0.5079
16592TIP3    H171191   6.672   0.879   3.221 -0.5221  3.5990 -0.1313
16592TIP3    H271192   6.820   0.888   3.188 -0.2281 -1.6128 -1.1182
16593TIP3   OH271193   3.763   3.313  17.005  0.3088 -0.6407 -0.0240
16593TIP3    H171194   3.803   3.321  17.092  1.0256 -0.6272 -0.3504
16593TIP3    H271195   3.701   3.241  17.015 -0.5954  0.2225  0.8553
16594TIP3   OH271196   5.172   2.929   2.655  0.0139 -0.2973 -0.3180
16594TIP3    H171197   5.190   2.997   2.590 -0.0882  2.8441  2.6528
16594TIP3    H271198   5.244   2.938   2.719  0.9359 -4.2205 -0.5712
16595TIP3   OH271199   4.111   3.671   0.868  0.0615 -0.2346  0.2890
16595TIP3    H171200   4.138   3.671   0.776 -0.2093 -2.4021  0.1660
16595TIP3    H271201   4.187   3.705   0.915  0.9320 -0.9115 -0.5825
16596TIP3   OH271202   2.520   4.424   1.742 -0.1034 -0.4798 -0.2331
16596TIP3    H171203   2.580   4.477   1.690  0.4834 -0.1414  0.7683
16596TIP3    H271204   2.502   4.477   1.820 -0.1664 -1.3907  0.3906
16597TIP3   OH271205   2.928   4.216   0.299 -0.1856 -0.4581 -0.1007
16597TIP3    H171206   2.943   4.161   0.376  0.5481 -0.3854 -0.1856
16597TIP3    H271207   2.838   4.197   0.274  0.1034 -1.7833 -0.2318
16598TIP3   OH271208   3.968   1.774  14.609  0.2582  0.0739 -0.1002
16598TIP3    H171209   4.005   1.861  14.598  0.3818  0.1549  0.8964
16598TIP3    H271210   3.994   1.747  14.697 -0.5024 -0.6232 -0.0744
16599TIP3   OH271211   5.146   4.608  13.599 -0.1882  0.2912  0.0803
16599TIP3    H171212   5.067   4.660  13.587 -1.4049 -1.0415  1.7688
16599TIP3    H271213   5.218   4.671  13.599 -1.2363  1.5334 -1.4191
16600TIP3   OH271214   3.523   3.124  12.073 -0.5944 -0.2777  0.4906
16600TIP3    H171215   3.579   3.192  12.111  0.1060 -0.3233 -0.4056
16600TIP3    H271216   3.575   3.044  12.079 -0.7441 -0.4102  0.0381
16601TIP3   OH271217   1.862   1.723   0.731  0.0277 -0.2404  0.2312
16601TIP3    H171218   1.822   1.744   0.815  1.2987 -0.4833  0.9180
16601TIP3    H271219   1.835   1.794   0.672 -1.5692 -0.5155  0.6011
16602TIP3   OH271220   3.438   0.375   2.564  0.5044 -0.2018  0.0644
16602TIP3    H171221   3.507   0.318   2.530  2.4261  1.0405  1.6675
16602TIP3    H271222   3.479   0.422   2.636 -2.0959  0.5109  1.2018
16603TIP3   OH271223   2.197   4.490  12.858  0.1842 -0.0913 -0.8248
16603TIP3    H171224   2.194   4.585  12.863 -0.9972 -0.0481 -1.7312
16603TIP3    H271225   2.249   4.472  12.779 -1.1502 -0.1136 -1.7434
16604TIP3   OH271226   3.512   6.730  12.890 -0.4799  0.3011 -0.2327
16604TIP3    H171227   3.552   6.671  12.953 -0.8234 -0.3819 -0.6418
16604TIP3    H271228   3.538   6.817  12.919  0.1538 -0.0539  0.2936
16605TIP3   OH271229   3.075   5.475   5.216 -0.0625 -0.1209  0.5957
16605TIP3    H171230   2.981   5.488   5.202  0.0342 -1.4187 -1.6591
16605TIP3    H271231   3.082   5.451   5.308 -1.9218  0.1578  0.8500
16606TIP3   OH271232   1.431   0.914   2.805 -0.1176 -0.0303  0.3120
16606TIP3    H171233   1.418   0.933   2.712 -0.6612  0.2716  0.4503
16606TIP3    H271234   1.366   0.967   2.851  0.6537  0.4180  0.9193
16607TIP3   OH271235   5.957   5.215  15.498 -0.4577  0.1230 -0.4010
16607TIP3    H171236   5.872   5.252  15.522 -1.3064  0.3252 -3.4041
16607TIP3    H271237   5.953   5.124  15.529 -1.1971  0.4962  0.6505
16608TIP3   OH271238   1.232   1.275  14.006 -0.0758  0.3214 -0.3505
16608TIP3    H171239   1.245   1.236  13.920  0.6319  0.1039 -0.1512
16608TIP3    H271240   1.155   1.230  14.041 -1.9156  2.1044 -1.8176
16609TIP3   OH271241   3.722   2.193   1.597  0.2712  0.2294 -0.3979
16609TIP3    H171242   3.723   2.144   1.515  0.1824 -0.5208  0.0326
16609TIP3    H271243   3.761   2.133   1.661  1.2885  1.1871 -0.0969
16610TIP3   OH271244   5.951   5.388  14.936  0.1514  0.1737  0.0440
16610TIP3    H171245   5.980   5.297  14.929  1.8068  0.6520  0.2760
16610TIP3    H271246   6.023   5.433  14.978 -1.8031  1.0660  2.6767
16611TIP3   OH271247   3.464   2.433   5.761 -0.7830 -0.1461 -0.3301
16611TIP3    H171248   3.550   2.393   5.773  0.3724  2.7216  2.0033
16611TIP3    H271249   3.407   2.360   5.738  2.3975 -2.0293 -3.1678
16612TIP3   OH271250   3.981   1.501  16.822  0.0559 -0.0306  0.1614
16612TIP3    H171251   4.026   1.584  16.837  0.4412 -0.0238 -0.9453
16612TIP3    H271252   4.046   1.434  16.842 -0.2091 -0.0839  0.9068
16613TIP3   OH271253   3.398   2.705   5.719  0.0446 -0.0324  0.3257
16613TIP3    H171254   3.340   2.742   5.784 -0.2917 -1.0699  0.6349
16613TIP3    H271255   3.407   2.613   5.744  0.5555 -0.2576 -0.6222
16614TIP3   OH271256   5.461   6.393   2.569  0.2127  0.5354 -0.1930
16614TIP3    H171257   5.396   6.451   2.530  0.3018  0.0531 -1.0900
16614TIP3    H271258   5.540   6.406   2.517 -0.0752 -1.1667 -1.1416
16615TIP3   OH271259   4.985   0.805  16.259  0.1522 -0.0656  0.0392
16615TIP3    H171260   4.936   0.723  16.272  0.7229 -0.7086 -1.6452
16615TIP3    H271261   5.072   0.776  16.234  0.2791  1.0658 -0.8489
16616TIP3   OH271262   0.408   2.595   6.487  0.1756 -0.1778  0.6977
16616TIP3    H171263   0.347   2.646   6.433  0.1197 -1.6881 -0.7399
16616TIP3    H271264   0.452   2.660   6.542 -0.0169  1.3907 -0.9250
16617TIP3   OH271265   4.041   3.972   0.757 -0.0538 -0.1701 -1.0409
16617TIP3    H171266   4.131   3.950   0.731  0.8869  1.7326  0.3115
16617TIP3    H271267   4.031   3.931   0.843 -0.3951 -0.1420 -1.0677
16618TIP3   OH271268   2.473   5.866   1.792  0.0094 -0.2111 -0.0329
16618TIP3    H171269   2.382   5.847   1.815  0.0551 -1.8502 -1.0280
16618TIP3    H271270   2.489   5.813   1.714  1.8947 -0.1121  0.2507
16619TIP3   OH271271   6.150   0.239   5.510  0.3379  0.1133 -0.5202
16619TIP3    H171272   6.165   0.294   5.434 -0.2158  0.7304 -0.1945
16619TIP3    H271273   6.064   0.201   5.496  0.1818  0.3246 -0.1480
16620TIP3   OH271274   6.139   2.455  12.838  0.2738 -0.4433  0.8539
16620TIP3    H171275   6.121   2.543  12.871  2.0555  0.4585 -0.4277
16620TIP3    H271276   6.066   2.436  12.779 -1.7255 -1.1385  3.3386
16621TIP3   OH271277   0.940   3.566   4.837  0.2408  0.7241  0.0546
16621TIP3    H171278   0.979   3.629   4.776 -1.5136  1.7342 -0.1167
16621TIP3    H271279   0.992   3.575   4.917  1.3629  0.8043 -0.6617
16622TIP3   OH271280   0.196   1.777  13.608  0.1593  0.7309  0.1604
16622TIP3    H171281   0.149   1.721  13.547 -0.6837  1.5626  0.0113
16622TIP3    H271282   0.159   1.864  13.593 -0.8967  0.7836  2.6327
16623TIP3   OH271283   6.116   1.251   0.111 -0.3371 -0.1426  0.1353
16623TIP3    H171284   6.155   1.252   0.024  1.5896 -0.8372  0.9240
16623TIP3    H271285   6.135   1.338   0.147  2.7363 -1.1634  1.3507
16624TIP3   OH271286   3.877   0.779   0.424 -0.4031  0.3887  0.1545
16624TIP3    H171287   3.887   0.760   0.331  0.5315 -1.3953  0.5674
16624TIP3    H271288   3.785   0.758   0.443 -0.0021 -1.7250  0.0822
16625TIP3   OH271289   1.471   6.339   0.284 -0.0727 -0.0868 -0.1695
16625TIP3    H171290   1.425   6.258   0.263  0.9608 -1.0639  1.1722
16625TIP3    H271291   1.536   6.314   0.349  1.6995  1.4201 -1.2516
16626TIP3   OH271292   4.923   1.903  14.988 -0.1960 -0.5846  0.0895
16626TIP3    H171293   4.879   1.903  14.903 -0.2484 -1.2896  0.1167
16626TIP3    H271294   5.014   1.926  14.967 -0.5061  0.6703  0.0110
16627TIP3   OH271295   5.160   2.473  14.966  0.6129 -0.0873  1.0011
16627TIP3    H171296   5.128   2.455  15.055  1.9822  1.1786  1.7870
16627TIP3    H271297   5.251   2.444  14.967  0.2704 -1.3017 -0.4288
16628TIP3   OH271298   3.408   2.748  15.591 -0.1678 -0.6544 -0.0484
16628TIP3    H171299   3.444   2.687  15.655  2.0971  0.9580  0.3046
16628TIP3    H271300   3.444   2.718  15.507  1.5199  0.4936  0.2090
16629TIP3   OH271301   6.404   5.703  10.998  0.3087  0.2963  0.4339
16629TIP3    H171302   6.419   5.760  11.073 -1.6396 -0.2528  1.3106
16629TIP3    H271303   6.310   5.708  10.982  0.6331  0.2601 -1.8953
16630TIP3   OH271304   1.742   3.061   3.489 -0.3025 -0.1078  0.1090
16630TIP3    H171305   1.703   3.054   3.577 -1.5525 -0.3545 -0.4399
16630TIP3    H271306   1.807   3.130   3.498 -0.1519 -0.3723  1.3248
16631TIP3   OH271307   3.798   3.839   1.842  0.2914 -0.0380  0.6391
16631TIP3    H171308   3.718   3.788   1.851  1.1648 -1.5890  0.1701
16631TIP3    H271309   3.831   3.817   1.754  0.4601  1.7650  0.2027
16632TIP3   OH271310   3.691   2.498   1.358 -0.0011 -0.3742  0.1445
16632TIP3    H171311   3.786   2.509   1.358 -0.0321 -0.0149 -0.6333
16632TIP3    H271312   3.666   2.512   1.267 -0.9215  0.5306  0.5272
16633TIP3   OH271313   4.927   0.629  11.513  0.0862  0.0506  0.3557
16633TIP3    H171314   4.848   0.582  11.537  1.0659 -1.1277  1.3828
16633TIP3    H271315   4.992   0.603  11.578  1.6917 -0.0208 -1.2012
16634TIP3   OH271316   6.674   2.492  16.099  0.0524 -0.0972 -0.5464
16634TIP3    H171317   6.630   2.576  16.106  0.1545  0.0395 -1.4208
16634TIP3    H271318   6.681   2.476  16.005 -0.8846 -1.5775 -0.3909
16635TIP3   OH271319   0.146   2.140  15.262 -0.0964 -0.4214 -0.2837
16635TIP3    H171320   0.143   2.046  15.243  0.7079 -0.8776  1.5611
16635TIP3    H271321   0.225   2.171  15.218  0.8006 -1.0792  0.8071
16636TIP3   OH271322   6.627   4.342   5.055  0.0286 -0.0736  0.0569
16636TIP3    H171323   6.635   4.254   5.019 -2.3389 -0.8929  1.3884
16636TIP3    H271324   6.535   4.351   5.079  0.0196  3.0299 -0.6212
16637TIP3   OH271325   3.368   6.597   4.987  0.1948  0.4160  0.5955
16637TIP3    H171326   3.424   6.630   4.917  0.9863  1.8632  1.8619
16637TIP3    H271327   3.335   6.513   4.954  4.0675 -1.1667  0.2378
16638TIP3   OH271328   3.247   5.377  16.117 -0.1961  0.1914  0.0978
16638TIP3    H171329   3.227   5.288  16.145  0.7021 -0.1881 -0.4550
16638TIP3    H271330   3.237   5.429  16.197  1.6184 -0.7645  1.0209
16639TIP3   OH271331   1.693   2.108  17.068 -0.0443  0.2804 -0.0710
16639TIP3    H171332   1.616   2.108  17.010 -0.6472  0.6622  0.7080
16639TIP3    H271333   1.757   2.052  17.023 -1.2755 -1.1916 -0.0694
16640TIP3   OH271334   4.936   4.656   0.036 -0.2485 -0.7594 -0.0521
16640TIP3    H171335   5.023   4.649   0.077 -0.6272 -0.4127  0.8360
16640TIP3    H271336   4.881   4.599   0.089 -0.5371 -1.0837 -0.7007
16641TIP3   OH271337   1.939   5.856   4.813 -0.3421 -0.2471 -0.3046
16641TIP3    H171338   1.914   5.812   4.894 -1.0912 -2.0956 -1.4728
16641TIP3    H271339   1.896   5.941   4.818 -0.9600 -0.6041  0.9206
16642TIP3   OH271340   0.502   4.365  17.131  0.1822 -0.3176 -0.6164
16642TIP3    H171341   0.443   4.300  17.093 -0.1941 -0.2916 -0.0871
16642TIP3    H271342   0.571   4.314  17.172  0.5748 -0.3472 -1.2986
16643TIP3   OH271343   0.247   0.665   1.904 -0.4247 -0.2040 -0.1434
16643TIP3    H171344   0.271   0.758   1.909  0.5102 -0.3061 -1.9242
16643TIP3    H271345   0.159   0.665   1.865 -1.4849 -0.0120  2.1201
16644TIP3   OH271346   4.014   0.114  11.317  0.0680 -0.0748 -0.6968
16644TIP3    H171347   3.969   0.159  11.245 -2.0551 -1.3292 -0.2271
16644TIP3    H271348   4.087   0.069  11.275 -0.3242  0.3137 -1.8321
16645TIP3   OH271349   3.784   1.954   1.061  0.6116 -0.6234  0.0011
16645TIP3    H171350   3.867   1.940   1.016  0.7883 -0.2547  0.2004
16645TIP3    H271351   3.803   2.023   1.125 -0.0668  0.1312 -0.5793
16646TIP3   OH271352   3.819   1.516  11.523  0.1268 -0.5742 -0.7784
16646TIP3    H171353   3.905   1.479  11.502  0.2776 -2.0067  1.9432
16646TIP3    H271354   3.834   1.610  11.529  1.2909 -0.7056 -1.2460
16647TIP3   OH271355   5.136   2.151  12.478 -0.2878 -0.1526  0.5452
16647TIP3    H171356   5.184   2.234  12.476  0.8204 -0.7731 -1.4626
16647TIP3    H271357   5.202   2.084  12.460 -1.2579 -1.4366  1.5396
16648TIP3   OH271358   3.629   0.466   0.651  0.0873 -0.0605 -0.1664
16648TIP3    H171359   3.686   0.444   0.577 -1.0242  1.1293 -1.4240
16648TIP3    H271360   3.689   0.483   0.723  1.2895  0.2013 -1.1965
16649TIP3   OH271361   5.438   3.566  13.617  0.4318  0.2098 -0.6702
16649TIP3    H171362   5.508   3.630  13.610  0.0604  0.6337 -0.5524
16649TIP3    H271363   5.423   3.557  13.712  0.2024  0.2562 -0.7025
16650TIP3   OH271364   2.717   5.974  13.440  0.1444  0.1064 -0.4748
16650TIP3    H171365   2.749   6.060  13.413  1.5229 -0.2622 -0.0645
16650TIP3    H271366   2.754   5.959  13.526  1.5959 -1.7232 -1.3369
16651TIP3   OH271367   4.766   4.270   3.360  0.1684 -0.4991 -0.3467
16651TIP3    H171368   4.812   4.328   3.300  0.2771 -0.5058 -0.2692
16651TIP3    H271369   4.729   4.202   3.303 -3.4747  1.7714 -1.0663
16652TIP3   OH271370   1.599   0.571  12.646 -0.2349  0.3227 -0.4557
16652TIP3    H171371   1.692   0.559  12.662 -0.3896 -1.0932 -0.4457
16652TIP3    H271372   1.575   0.649  12.696  0.5294 -0.5308  1.3161
16653TIP3   OH271373   0.466   3.383   3.308  0.6236 -0.4984 -0.0315
16653TIP3    H171374   0.502   3.331   3.380 -0.5133 -1.4731 -0.1200
16653TIP3    H271375   0.426   3.459   3.350  1.5073 -0.1482  0.1895
16654TIP3   OH271376   6.731   0.471   5.771 -0.6157 -0.1008 -0.4051
16654TIP3    H171377   6.658   0.519   5.733  0.5731  1.3052 -1.0203
16654TIP3    H271378   6.743   0.396   5.712 -0.1605  0.8837 -1.6010
16655TIP3   OH271379   2.538   6.456  14.047 -0.6341 -0.2632  0.0054
16655TIP3    H171380   2.452   6.489  14.020 -0.2527  1.1926  0.4746
16655TIP3    H271381   2.601   6.511  14.001  0.0991 -1.9290 -1.0810
16656TIP3   OH271382   4.417   1.707   6.269  0.3006  0.5650 -0.1768
16656TIP3    H171383   4.446   1.628   6.313 -0.2275  0.3633 -0.1859
16656TIP3    H271384   4.412   1.773   6.338  2.2114  1.0135 -0.4147
16657TIP3   OH271385   6.395   2.374  12.882 -0.1567 -0.6370  0.8626
16657TIP3    H171386   6.305   2.406  12.878  0.0376  0.2377  2.6860
16657TIP3    H271387   6.418   2.356  12.790 -1.2195  1.8007  0.0270
16658TIP3   OH271388   2.157   6.259   3.587 -0.3166 -0.8090  0.2995
16658TIP3    H171389   2.133   6.294   3.672  1.6909 -0.9094  0.9548
16658TIP3    H271390   2.248   6.286   3.574 -0.2097 -1.7754 -1.2899
16659TIP3   OH271391   3.842   2.357  15.532 -0.6943  0.2593 -0.2819
16659TIP3    H171392   3.841   2.326  15.441 -0.9710  0.2476 -0.2753
16659TIP3    H271393   3.923   2.321  15.569 -0.9009 -0.2737 -0.3380
16660TIP3   OH271394   1.432   4.870  14.827  0.1788 -0.3544 -0.1026
16660TIP3    H171395   1.514   4.830  14.799 -0.2277  0.1845 -2.2668
16660TIP3    H271396   1.440   4.962  14.803 -1.2975 -0.4359 -1.0930
16661TIP3   OH271397   1.313   5.159   3.896 -0.1957  0.5553  0.4310
16661TIP3    H171398   1.357   5.134   3.978  1.2138 -0.8337 -0.6964
16661TIP3    H271399   1.251   5.227   3.923  0.1418  0.0743  2.6700
16662TIP3   OH271400   6.393   2.860  12.903  0.2470  0.7020  0.4972
16662TIP3    H171401   6.434   2.828  12.822 -1.0825 -0.3085  0.1932
16662TIP3    H271402   6.467   2.882  12.959  1.2487 -1.1165 -0.0063
16663TIP3   OH271403   2.061   4.102  15.707 -0.7300  0.4132 -0.2655
16663TIP3    H171404   2.049   4.018  15.662  0.2172 -0.2494  0.6543
16663TIP3    H271405   2.018   4.090  15.792 -0.0789  0.6265  0.1086
16664TIP3   OH271406   1.566   2.106   3.456  0.2814  0.7528 -0.1805
16664TIP3    H171407   1.534   2.084   3.368 -1.2716 -0.7991  0.7250
16664TIP3    H271408   1.487   2.126   3.506  1.2266  2.8128  0.6088
16665TIP3   OH271409   6.382   3.713  13.697 -0.7027 -0.1505 -0.6196
16665TIP3    H171410   6.324   3.655  13.747  0.1711  0.8847  1.7504
16665TIP3    H271411   6.470   3.676  13.710  0.0118  2.0838  1.7615
16666TIP3   OH271412   6.791   4.668  10.877  0.0612 -0.0723  0.5020
16666TIP3    H171413   6.736   4.740  10.845  0.3432 -0.4267 -0.8195
16666TIP3    H271414   6.846   4.644  10.803 -0.4714 -2.0854  0.6798
16667TIP3   OH271415   6.206   3.938  12.429  0.0202 -0.4249  0.0472
16667TIP3    H171416   6.240   3.885  12.501 -2.2419 -1.6233  0.3462
16667TIP3    H271417   6.197   3.876  12.356 -0.3281  0.1177 -0.3745
16668TIP3   OH271418   5.553   4.128  11.479 -0.1271  0.4204  0.3199
16668TIP3    H171419   5.613   4.202  11.482 -0.5224  0.8101 -0.7624
16668TIP3    H271420   5.466   4.168  11.472 -0.2994 -0.1077 -0.9646
16669TIP3   OH271421   0.846   6.468   6.543 -0.5055  0.8143  0.1949
16669TIP3    H171422   0.855   6.388   6.492 -0.3483  2.0732 -1.9032
16669TIP3    H271423   0.760   6.502   6.518 -0.4393  1.4547  0.8169
16670TIP3   OH271424   5.984   2.445   1.454 -0.1840 -0.2797 -0.5992
16670TIP3    H171425   5.988   2.431   1.359 -0.8975 -1.1638 -0.5085
16670TIP3    H271426   5.914   2.388   1.484 -0.2671  0.3302  0.4112
16671TIP3   OH271427   4.130   3.421  16.048  1.3444 -0.0500  0.2049
16671TIP3    H171428   4.200   3.363  16.019 -0.0694 -2.4419  1.2517
16671TIP3    H271429   4.109   3.473  15.970  1.4713 -2.2433 -1.4029
16672TIP3   OH271430   1.833   3.493   0.559 -0.3296  0.0539  0.3740
16672TIP3    H171431   1.817   3.473   0.466 -0.4948  1.7754 -0.0003
16672TIP3    H271432   1.790   3.422   0.606 -1.5857 -0.0331 -0.8329
16673TIP3   OH271433   3.938   0.064   1.578  0.0006 -0.1559 -0.0792
16673TIP3    H171434   3.890   0.073   1.495 -1.6569 -0.4594  0.8112
16673TIP3    H271435   3.926  -0.027   1.603 -1.7824  0.5063  1.7671
16674TIP3   OH271436   1.146   0.154  11.697  0.0309 -0.2607 -0.1726
16674TIP3    H171437   1.134   0.184  11.607 -0.4892 -0.0565 -0.0380
16674TIP3    H271438   1.215   0.088  11.692  0.1562 -0.0899 -0.6873
16675TIP3   OH271439   2.320   3.222   2.883 -0.4927  0.6282 -0.6598
16675TIP3    H171440   2.257   3.293   2.892 -0.7028  0.6537 -2.0474
16675TIP3    H271441   2.303   3.186   2.795 -0.2826 -1.0215 -0.0684
16676TIP3   OH271442   3.786   4.645  17.153  0.5357  0.0501  0.1161
16676TIP3    H171443   3.700   4.634  17.194  0.7633  1.1816  0.9369
16676TIP3    H271444   3.842   4.580  17.196  0.2194 -0.3462 -0.0643
16677TIP3   OH271445   3.264   0.762  16.631  0.0487  0.3144 -0.0570
16677TIP3    H171446   3.237   0.697  16.566  0.7353 -0.8340  0.7720
16677TIP3    H271447   3.354   0.739  16.653 -0.4266  0.1202  1.9241
16678TIP3   OH271448   3.703   1.876  12.623 -0.2114  0.6363  0.0179
16678TIP3    H171449   3.794   1.850  12.636 -0.8681 -1.1990  1.4660
16678TIP3    H271450   3.681   1.846  12.535  0.1760 -0.2155  0.2092
16679TIP3   OH271451   3.028   0.803  15.848 -0.0121 -0.4421  0.3856
16679TIP3    H171452   3.065   0.786  15.762  3.3127  1.6183  1.2054
16679TIP3    H271453   2.975   0.882  15.836  0.2846 -0.2719  0.1885
16680TIP3   OH271454   0.590   2.363   2.894  0.0088 -0.4631  0.1879
16680TIP3    H171455   0.599   2.294   2.828  1.8773  0.4956 -0.6259
16680TIP3    H271456   0.679   2.378   2.926 -0.9499 -1.8346  4.0485
16681TIP3   OH271457   4.973   1.829   2.751  0.1344  0.5182  0.3940
16681TIP3    H171458   4.896   1.834   2.694 -0.3480 -0.3122  0.9450
16681TIP3    H271459   5.041   1.877   2.704  0.4702 -2.0983 -2.0709
16682TIP3   OH271460   2.941   1.548   6.146  0.3422  0.0706  0.2553
16682TIP3    H171461   2.879   1.558   6.218 -0.3599  0.0776 -0.3393
16682TIP3    H271462   2.895   1.582   6.069  0.3790 -1.6369 -0.5614
16683TIP3   OH271463   6.655   4.041   1.505  0.2803 -0.5512  0.1339
16683TIP3    H171464   6.640   4.120   1.557  1.4606 -2.0227  2.9567
16683TIP3    H271465   6.569   3.997   1.504  0.4025 -0.8795  1.6277
16684TIP3   OH271466   3.132   1.719  14.045  0.2150  0.4261 -0.1708
16684TIP3    H171467   3.047   1.684  14.070  0.2998  1.0935  1.0996
16684TIP3    H271468   3.126   1.813  14.061  0.9350  0.6047 -0.8297
16685TIP3   OH271469   2.347   0.173   4.274 -0.6145 -0.0765  0.2302
16685TIP3    H171470   2.377   0.195   4.362 -0.6191  0.0516  0.1997
16685TIP3    H271471   2.418   0.122   4.236 -1.0533 -1.0548  0.6931
16686TIP3   OH271472   5.967   6.103   0.092 -0.1988  0.4982  0.0326
16686TIP3    H171473   5.996   6.191   0.116 -2.1301  1.9093 -2.3001
16686TIP3    H271474   6.047   6.051   0.090  1.3106  2.6983 -0.4828
16687TIP3   OH271475   4.426   1.987  15.389  0.7532 -0.5113  0.1384
16687TIP3    H171476   4.500   1.942  15.349  1.1382 -1.2675  1.6437
16687TIP3    H271477   4.464   2.061  15.436  0.3230  0.2580 -0.6826
16688TIP3   OH271478   4.377   3.978   1.226  0.3026  0.3853 -0.2115
16688TIP3    H171479   4.335   4.044   1.281  0.8618  0.8526 -0.3360
16688TIP3    H271480   4.379   3.899   1.281 -0.2018  0.5132  0.0028
16689TIP3   OH271481   5.378   0.082   2.473 -0.1895  0.2925 -0.9790
16689TIP3    H171482   5.335   0.153   2.521 -2.2390 -0.5235 -1.4842
16689TIP3    H271483   5.441   0.126   2.416  0.9939  1.4113  1.0852
16690TIP3   OH271484   3.055   5.282  11.188  0.0899  0.0013  0.2581
16690TIP3    H171485   3.091   5.294  11.100  0.5951 -0.3806  0.4107
16690TIP3    H271486   3.094   5.200  11.219  0.0376  0.2157  0.8989
16691TIP3   OH271487   3.992   5.150  11.661  0.3867 -0.2349 -0.4008
16691TIP3    H171488   4.003   5.244  11.677 -1.2262 -0.0463 -0.1696
16691TIP3    H271489   4.079   5.113  11.672  1.0647  1.2410 -0.5529
16692TIP3   OH271490   4.845   2.102  15.782  0.0876 -0.2058 -0.4802
16692TIP3    H171491   4.897   2.142  15.851 -2.1427  0.0963  1.1397
16692TIP3    H271492   4.790   2.173  15.749 -1.6098 -1.1710  0.1740
16693TIP3   OH271493   4.505   3.318   4.045  0.2205  0.2453 -0.5023
16693TIP3    H171494   4.490   3.305   4.138 -0.5308  0.3038 -0.6056
16693TIP3    H271495   4.493   3.232   4.006 -1.4412  0.5628 -0.7745
16694TIP3   OH271496   3.803   0.534  12.055  0.3913 -0.5711  0.3370
16694TIP3    H171497   3.845   0.535  11.969  0.8692 -0.0203  0.5715
16694TIP3    H271498   3.717   0.572  12.040  0.7416  0.2150  0.2232
16695TIP3   OH271499   5.253   5.682  14.105  0.5101  0.3810 -0.0222
16695TIP3    H171500   5.219   5.745  14.042  1.5819 -0.9771 -2.1049
16695TIP3    H271501   5.176   5.633  14.134 -0.3052  2.4726  1.5153
16696TIP3   OH271502   5.569   6.004   1.839  0.2107  0.3109 -0.8740
16696TIP3    H171503   5.538   5.926   1.792 -2.9865  0.6820  0.3858
16696TIP3    H271504   5.550   5.985   1.931 -1.0830  2.7297 -0.5822
16697TIP3   OH271505   0.689   2.449  16.211 -0.2118 -0.0067 -0.4240
16697TIP3    H171506   0.751   2.523  16.213 -1.2961  0.9104 -0.0008
16697TIP3    H271507   0.718   2.397  16.136  0.1528  1.2293 -1.1816
16698TIP3   OH271508   6.245   5.944   2.606 -0.1081 -0.0585  0.0071
16698TIP3    H171509   6.292   5.912   2.684  0.0470 -0.4027 -0.2271
16698TIP3    H271510   6.297   6.018   2.575 -0.1679  0.0775  0.2280
16699TIP3   OH271511   2.777   3.774   5.505  0.1066 -0.0723  0.2998
16699TIP3    H171512   2.767   3.856   5.553 -1.0469 -0.2578  0.4001
16699TIP3    H271513   2.779   3.801   5.413  1.3038  0.1922  0.3874
16700TIP3   OH271514   0.731   3.712   0.697 -0.2813  0.5126 -0.2470
16700TIP3    H171515   0.673   3.782   0.664 -0.1674  0.2453 -1.0441
16700TIP3    H271516   0.786   3.756   0.762 -1.2990  0.7943  0.4548
16701TIP3   OH271517   0.705   0.876  11.645  0.5585  0.2233  0.2577
16701TIP3    H171518   0.625   0.876  11.696  1.1072  1.8010  1.1680
16701TIP3    H271519   0.680   0.913  11.560  0.0588 -0.6249  0.0130
16702TIP3   OH271520   4.007   3.103  11.805 -0.4450  0.8929 -0.2722
16702TIP3    H171521   3.943   3.159  11.762 -0.6957  0.0900 -0.9470
16702TIP3    H271522   3.976   3.014  11.791 -0.1306  0.5692  0.9303
16703TIP3   OH271523   2.943   5.157   5.136  0.1161  0.0661 -0.0811
16703TIP3    H171524   3.004   5.086   5.116 -0.8126 -0.9284  0.4815
16703TIP3    H271525   2.858   5.114   5.144 -0.8945  1.5410 -1.9290
16704TIP3   OH271526   0.327   6.230  14.389 -0.3543 -0.7028  0.0341
16704TIP3    H171527   0.260   6.165  14.367  1.9675 -3.2171 -0.0876
16704TIP3    H271528   0.361   6.203  14.474  1.5616 -0.4534 -0.6037
16705TIP3   OH271529   3.727   5.225   3.410 -0.1510  0.0888  0.1629
16705TIP3    H171530   3.722   5.224   3.506 -3.3670 -3.4979  0.2191
16705TIP3    H271531   3.649   5.275   3.383 -0.8384 -1.2657 -0.4540
16706TIP3   OH271532   1.213   6.794   1.904  0.0098 -0.0508 -0.1494
16706TIP3    H171533   1.213   6.842   1.987  1.4520 -1.0245  0.4522
16706TIP3    H271534   1.194   6.703   1.928 -1.0502 -0.1073 -1.0847
16707TIP3   OH271535   3.965   2.508  15.917 -0.2285  0.9018  0.8538
16707TIP3    H171536   3.884   2.469  15.884 -0.0315  1.9379 -0.9732
16707TIP3    H271537   4.025   2.435  15.928 -0.9528  0.2924  0.8359
16708TIP3   OH271538   4.510   4.490   4.800 -0.3876  0.3673  0.5060
16708TIP3    H171539   4.438   4.442   4.760  0.7145 -1.1377  0.2236
16708TIP3    H271540   4.588   4.440   4.776  0.6761  1.5226  1.4261
16709TIP3   OH271541   0.229   2.565  14.272  0.1901  0.1212 -0.1510
16709TIP3    H171542   0.318   2.599  14.274  1.0318 -1.8750 -0.9357
16709TIP3    H271543   0.234   2.489  14.214 -0.7392 -3.4459  3.9104
16710TIP3   OH271544   3.503   6.563   3.713  0.1328  0.8236  0.0181
16710TIP3    H171545   3.414   6.593   3.694 -0.2567  0.4299  1.1597
16710TIP3    H271546   3.496   6.467   3.713  0.7331  0.7705 -0.6512
16711TIP3   OH271547   3.499   4.524  11.101  0.5930 -0.0242 -0.4537
16711TIP3    H171548   3.546   4.452  11.142  0.7834 -0.4898 -1.4724
16711TIP3    H271549   3.526   4.602  11.150 -0.1407 -0.7055  1.1052
16712TIP3   OH271550   6.246   0.027   4.356 -0.0073 -0.2656  0.1179
16712TIP3    H171551   6.292  -0.033   4.297 -0.0508 -2.3314  2.0299
16712TIP3    H271552   6.209  -0.030   4.423 -0.9683  1.8501  1.4886
16713TIP3   OH271553   1.628   3.218   4.108 -0.1415  0.6280  0.3374
16713TIP3    H171554   1.686   3.156   4.064  0.7185  1.7026 -0.1041
16713TIP3    H271555   1.542   3.177   4.104 -0.0528  0.5205 -2.0958
16714TIP3   OH271556   4.837   6.014  14.579 -0.1279 -0.2239  0.0033
16714TIP3    H171557   4.792   6.025  14.663  1.4518 -2.0156  1.1725
16714TIP3    H271558   4.770   6.032  14.513 -2.0272 -0.9124  1.6329
16715TIP3   OH271559   6.485   3.379  17.161  0.3230  0.4010 -0.3710
16715TIP3    H171560   6.447   3.314  17.102  2.5284 -2.5847  1.2322
16715TIP3    H271561   6.560   3.414  17.113  0.9283 -0.5327 -0.1223
16716TIP3   OH271562   3.200   1.041  13.057 -0.0820 -0.8916 -0.3373
16716TIP3    H171563   3.149   0.998  12.988 -1.7054  1.5593 -0.7846
16716TIP3    H271564   3.149   1.026  13.137 -0.3082 -0.3722 -0.3820
16717TIP3   OH271565   6.408   0.118   2.534 -0.0483 -0.1439  0.5876
16717TIP3    H171566   6.380   0.198   2.578  1.2094  0.8657 -0.3728
16717TIP3    H271567   6.328   0.083   2.494 -0.5602  0.7724  0.7912
16718TIP3   OH271568   3.521   2.584  15.774 -0.5210 -0.4740  0.2391
16718TIP3    H171569   3.599   2.538  15.743  0.1452  0.8889 -0.2419
16718TIP3    H271570   3.520   2.569  15.869  0.3149 -0.5372  0.2440
16719TIP3   OH271571   6.576   1.561   3.304 -0.4146  0.1791 -0.1239
16719TIP3    H171572   6.578   1.550   3.400  1.1655 -0.9188 -0.2567
16719TIP3    H271573   6.497   1.515   3.277  0.0206 -0.9656  0.5059
16720TIP3   OH271574   0.400   6.684   6.529  0.3873  0.3681 -0.1982
16720TIP3    H171575   0.324   6.675   6.588  1.0527 -0.5581  0.5437
16720TIP3    H271576   0.465   6.624   6.565  0.2162 -1.5592 -2.8709
16721TIP3   OH271577   3.971   6.190   1.981  0.1266  0.3527 -0.1066
16721TIP3    H171578   3.942   6.187   2.072 -0.0669  0.1409 -0.1739
16721TIP3    H271579   4.067   6.189   1.986  0.1147  0.2529  0.0937
16722TIP3   OH271580   4.089   5.014  16.841 -0.0474 -0.0507  0.6066
16722TIP3    H171581   4.023   5.070  16.799 -0.3044 -0.1222  0.9126
16722TIP3    H271582   4.105   5.056  16.926 -0.4374 -0.5912  0.9489
16723TIP3   OH271583   6.696   1.412  14.246  0.2590  0.1082 -0.7366
16723TIP3    H171584   6.677   1.447  14.159 -2.8992 -4.2411 -2.1495
16723TIP3    H271585   6.763   1.345  14.230 -0.2560 -0.6406  0.2019
16724TIP3   OH271586   0.727   4.318  13.215  0.0133 -0.3881  0.0959
16724TIP3    H171587   0.678   4.351  13.290 -1.3515 -1.7968 -0.1421
16724TIP3    H271588   0.665   4.264  13.166  1.9933 -3.0703  0.2844
16725TIP3   OH271589   6.304   1.780   2.392  0.4447  0.1851 -0.7517
16725TIP3    H171590   6.248   1.787   2.470  1.8339 -2.7636  0.6615
16725TIP3    H271591   6.258   1.718   2.335 -0.7679  2.6207 -2.6587
16726TIP3   OH271592   4.096   5.421   1.322  0.2483 -0.1808 -0.3572
16726TIP3    H171593   4.007   5.412   1.356  1.0172 -1.0309  1.5524
16726TIP3    H271594   4.095   5.505   1.276 -1.8928 -0.8043 -1.6442
16727TIP3   OH271595   3.059   5.217  12.104  0.0029 -0.0314 -0.1715
16727TIP3    H171596   3.132   5.279  12.107 -0.0001  0.0011 -0.6233
16727TIP3    H271597   2.985   5.268  12.070  0.2685 -0.5134 -1.5806
16728TIP3   OH271598   4.821   1.514   1.958  0.6878 -0.3867 -0.3587
16728TIP3    H171599   4.789   1.441   1.905 -2.5936  0.0487  0.7905
16728TIP3    H271600   4.792   1.495   2.047 -1.4900  2.7929 -0.2176
16729TIP3   OH271601   3.728   3.663   0.931 -0.3703 -0.8049 -0.6167
16729TIP3    H171602   3.725   3.582   0.981 -0.9111  1.0746  2.6780
16729TIP3    H271603   3.645   3.666   0.885  0.3725 -2.8587 -2.2830
16730TIP3   OH271604   0.059   3.577   0.607 -0.1833 -0.0169 -0.1896
16730TIP3    H171605   0.040   3.576   0.701 -0.1499  0.6575 -0.1704
16730TIP3    H271606  -0.007   3.520   0.568 -0.7719  0.4290  0.1441
16731TIP3   OH271607   0.541   4.582   2.888 -0.2140  0.0964 -0.2525
16731TIP3    H171608   0.524   4.672   2.916  2.0052  0.4201  0.1991
16731TIP3    H271609   0.631   4.565   2.914 -0.1143 -1.7757 -1.6204
16732TIP3   OH271610   0.039   0.314  12.737 -0.2734 -0.2382 -0.2305
16732TIP3    H171611  -0.016   0.275  12.805 -1.5058  1.6860 -0.0487
16732TIP3    H271612  -0.015   0.311  12.658 -0.5271  1.3350 -0.1378
16733TIP3   OH271613   5.648   3.185  14.741 -0.2016  0.7613  0.0753
16733TIP3    H171614   5.581   3.128  14.779 -0.7079  0.7660 -0.7872
16733TIP3    H271615   5.714   3.125  14.706 -0.3875  0.7151 -0.2024
16734TIP3   OH271616   5.618   2.975   0.683  0.2437 -0.6822 -0.3616
16734TIP3    H171617   5.572   3.027   0.618  1.8749  0.2603 -0.8149
16734TIP3    H271618   5.674   2.917   0.632  0.1037 -1.3171  0.1849
16735TIP3   OH271619   2.792   2.981  11.801 -0.1381 -0.2243  0.2451
16735TIP3    H171620   2.829   2.907  11.849  2.0172  1.4792  1.4195
16735TIP3    H271621   2.856   2.999  11.732 -0.3274  0.8918  0.3419
16736TIP3   OH271622   5.608   5.348   2.723 -0.1527 -0.4390 -0.3177
16736TIP3    H171623   5.570   5.369   2.638  0.9996  1.3524 -0.4725
16736TIP3    H271624   5.651   5.264   2.710  1.8373  0.7501 -2.2249
16737TIP3   OH271625   0.434   3.635   0.057 -0.1785 -0.6205  0.1274
16737TIP3    H171626   0.379   3.593  -0.009 -1.2693 -1.6827  1.6318
16737TIP3    H271627   0.451   3.566   0.122  1.6536  0.1225  0.4851
16738TIP3   OH271628   0.600   4.448   0.660 -0.0853  0.4836  0.0959
16738TIP3    H171629   0.587   4.525   0.716 -0.3530  2.0079 -1.9550
16738TIP3    H271630   0.578   4.478   0.572  2.1102 -1.2760 -1.1706
16739TIP3   OH271631   2.060   1.265   2.383 -0.7320 -0.0632  0.5032
16739TIP3    H171632   2.076   1.264   2.478 -0.5003  2.1881  0.5230
16739TIP3    H271633   2.058   1.357   2.360 -1.0184 -0.5750 -1.6746
16740TIP3   OH271634   4.479   1.429  11.625  0.4798  0.0164  0.1935
16740TIP3    H171635   4.564   1.447  11.584  0.7530 -1.3339  0.0970
16740TIP3    H271636   4.415   1.474  11.571  0.8373 -1.6441 -1.7349
16741TIP3   OH271637   5.383   0.637  16.899  0.4642  0.2873 -0.5497
16741TIP3    H171638   5.373   0.646  16.994 -2.4617  0.2695 -0.7546
16741TIP3    H271639   5.475   0.657  16.882  0.8732  1.1041  2.1859
16742TIP3   OH271640   5.321   2.414  15.877 -0.1022 -0.1335  0.4461
16742TIP3    H171641   5.319   2.500  15.918 -1.8273  0.4473 -0.7636
16742TIP3    H271642   5.371   2.426  15.796 -0.9674 -0.0759 -0.0894
16743TIP3   OH271643   4.976   0.736   3.604  0.4337 -0.0459  0.7229
16743TIP3    H171644   5.023   0.812   3.637  0.8790 -0.4301  0.9893
16743TIP3    H271645   4.912   0.716   3.673  0.0679  0.3090  0.4865
16744TIP3   OH271646   1.406   3.540   5.069  0.2985 -0.1789  0.5958
16744TIP3    H171647   1.483   3.508   5.022 -0.2879  1.9459 -2.0352
16744TIP3    H271648   1.442   3.594   5.139  1.3742  2.5560 -1.8674
16745TIP3   OH271649   4.517   4.102  12.366  0.1450  0.3856  0.3229
16745TIP3    H171650   4.609   4.127  12.352  0.3196 -0.3258  0.1618
16745TIP3    H271651   4.502   4.031  12.304 -0.2427 -0.1322  0.9986
16746TIP3   OH271652   4.793   5.471  10.428  0.4140 -0.4502 -0.0612
16746TIP3    H171653   4.743   5.391  10.411 -1.1702  0.2785  0.9500
16746TIP3    H271654   4.821   5.464  10.519 -1.2003  0.8554  0.5842
16747TIP3   OH271655   0.644   3.737   4.619 -0.4929 -0.1268 -0.1766
16747TIP3    H171656   0.657   3.666   4.682 -2.2650  0.6701  1.1807
16747TIP3    H271657   0.724   3.789   4.626 -0.5206 -0.2154  1.2678
16748TIP3   OH271658   6.593   4.657  11.369 -0.1977  0.2693  0.3051
16748TIP3    H171659   6.670   4.676  11.315 -0.5372 -1.6552 -0.9644
16748TIP3    H271660   6.518   4.683  11.315 -0.4979 -0.2751  0.4483
16749TIP3   OH271661   5.959   0.430  15.767  0.7520 -0.1920 -0.1995
16749TIP3    H171662   6.028   0.398  15.825 -0.5296 -0.7719  1.0691
16749TIP3    H271663   6.005   0.462  15.690  2.6241  1.6589  1.5759
16750TIP3   OH271664   1.236   2.545  11.558 -0.6815  0.0738  0.0528
16750TIP3    H171665   1.237   2.451  11.543 -1.7710 -0.1763  1.3522
16750TIP3    H271666   1.142   2.567  11.561 -0.4391  1.1423  0.0796
16751TIP3   OH271667   0.999   1.319  16.007  0.0320  0.2356  0.0727
16751TIP3    H171668   1.087   1.343  16.035  0.3195 -1.6435  0.8978
16751TIP3    H271669   1.008   1.300  15.914  1.0456 -2.1141  0.5814
16752TIP3   OH271670   2.604   3.078   1.455 -0.7137  0.5416  0.8808
16752TIP3    H171671   2.596   3.008   1.520 -1.7534  0.5984  0.8330
16752TIP3    H271672   2.659   3.041   1.387 -0.8484 -0.0619  1.0888
16753TIP3   OH271673   6.706   5.401   4.419  0.0558  0.4376 -0.0720
16753TIP3    H171674   6.723   5.475   4.477  0.4523 -0.6627  1.2457
16753TIP3    H271675   6.691   5.442   4.333  0.9407  1.9956  0.4706
16754TIP3   OH271676   1.104   0.503   1.473 -0.0119 -0.4519  0.6044
16754TIP3    H171677   1.050   0.477   1.399 -0.0722  3.1359 -0.8133
16754TIP3    H271678   1.191   0.469   1.454 -0.2454 -0.3803 -0.6255
16755TIP3   OH271679   4.834   3.904  17.164  0.5961 -0.1633  0.5941
16755TIP3    H171680   4.754   3.852  17.166 -0.1565  0.9436  0.2675
16755TIP3    H271681   4.840   3.943  17.252  0.6599 -0.0843  0.5549
16756TIP3   OH271682   1.580   2.134  15.031 -0.2200  0.0684  0.1135
16756TIP3    H171683   1.487   2.125  15.009 -0.4782  1.6396  0.4326
16756TIP3    H271684   1.604   2.048  15.066 -1.6058 -0.3091  0.2255
16757TIP3   OH271685   6.589   5.649  11.911  0.7748 -0.2361 -0.1446
16757TIP3    H171686   6.510   5.608  11.876  1.1368 -0.5709 -0.5866
16757TIP3    H271687   6.661   5.605  11.866  1.3352 -1.5104  1.9111
16758TIP3   OH271688   4.479   2.336   5.144 -0.3398  0.1827  0.3985
16758TIP3    H171689   4.488   2.422   5.103  1.0301 -0.4037 -0.6347
16758TIP3    H271690   4.563   2.293   5.126 -0.9183 -1.2823  1.0828
16759TIP3   OH271691   1.020   6.346  16.294 -0.0821 -0.0518 -0.3630
16759TIP3    H171692   1.103   6.344  16.246  1.6046  0.9709  2.3089
16759TIP3    H271693   0.969   6.413  16.249  1.0958  0.3277 -1.2080
16760TIP3   OH271694   2.419   1.900   4.826  1.0361 -0.1531  0.2474
16760TIP3    H171695   2.331   1.898   4.788  0.7984  0.7969  0.7196
16760TIP3    H271696   2.462   1.973   4.782  1.6580 -0.7332 -0.1141
16761TIP3   OH271697   5.926   4.273  16.347  0.3315 -0.3910 -0.5050
16761TIP3    H171698   5.833   4.249  16.348  0.1997 -0.1812 -2.8150
16761TIP3    H271699   5.972   4.189  16.349  0.1073 -0.4974  0.5960
16762TIP3   OH271700   3.797   3.569   6.135 -0.4726  0.0017 -0.0484
16762TIP3    H171701   3.821   3.511   6.063  1.1645 -0.5909  0.8919
16762TIP3    H271702   3.723   3.525   6.177 -0.3862 -0.4938 -0.4006
16763TIP3   OH271703   1.219   0.540  12.544 -0.0450 -0.0552 -0.0434
16763TIP3    H171704   1.149   0.555  12.481 -0.0493  1.1647  0.2336
16763TIP3    H271705   1.187   0.578  12.626  0.7103  0.0198  0.2316
16764TIP3   OH271706   6.645   3.520   1.433  0.1126  0.4283  0.2175
16764TIP3    H171707   6.656   3.562   1.518  0.8344 -1.2482  0.9822
16764TIP3    H271708   6.569   3.564   1.394 -1.5046 -0.1059  2.5687
16765TIP3   OH271709   0.410   5.068  16.196  0.2314  0.2287 -0.5749
16765TIP3    H171710   0.445   5.063  16.107  1.4542  1.4666 -0.1973
16765TIP3    H271711   0.401   4.976  16.223  1.5891 -0.1512 -1.3148
16766TIP3   OH271712   6.421   1.122   3.315 -0.0827  1.0463 -0.1211
16766TIP3    H171713   6.358   1.187   3.344 -0.4064  1.4412 -1.6027
16766TIP3    H271714   6.417   1.053   3.381 -3.4009  0.2135 -1.0036
16767TIP3   OH271715   5.005   2.638  13.994  0.0021 -0.0552 -0.3907
16767TIP3    H171716   5.037   2.725  14.017  1.9925 -0.6977 -0.5670
16767TIP3    H271717   5.020   2.586  14.073 -1.0027 -0.3109 -0.3517
16768TIP3   OH271718   6.457   4.791  15.092 -0.0409 -0.3300  0.1557
16768TIP3    H171719   6.530   4.734  15.070 -0.5265 -1.8722  2.2335
16768TIP3    H271720   6.489   4.879  15.076  1.5809 -1.0605 -0.8094
16769TIP3   OH271721   4.341   2.189  15.723  0.3889  0.0316 -0.5372
16769TIP3    H171722   4.383   2.167  15.640  0.1412 -0.0435 -0.6437
16769TIP3    H271723   4.402   2.159  15.790  0.7293  0.3633 -0.6931
16770TIP3   OH271724   2.872   1.632  12.721  0.1146  0.2426  0.5862
16770TIP3    H171725   2.791   1.631  12.772  0.4355  1.7432  1.1786
16770TIP3    H271726   2.843   1.638  12.630 -0.4619  0.9584  0.8048
16771TIP3   OH271727   2.505   0.808   3.689 -0.3409  0.1244 -0.0730
16771TIP3    H171728   2.523   0.741   3.755 -0.7384 -0.5856 -0.6656
16771TIP3    H271729   2.536   0.770   3.607 -0.4494  0.7239 -0.3988
16772TIP3   OH271730   3.740   2.940  10.907  0.2897  0.1415  0.1833
16772TIP3    H171731   3.674   2.991  10.954  0.0946  0.4461 -0.4118
16772TIP3    H271732   3.694   2.860  10.881  0.2711  0.1658  0.1406
16773TIP3   OH271733   6.601   2.743  13.374 -0.3057  0.1368 -0.4824
16773TIP3    H171734   6.678   2.761  13.320 -0.5889  1.9328 -0.3474
16773TIP3    H271735   6.613   2.797  13.452  0.3763 -2.8096  1.6401
16774TIP3   OH271736   1.582   5.548   3.023  0.3065  0.5965  0.0473
16774TIP3    H171737   1.594   5.619   2.960  1.1026  2.0215  1.7020
16774TIP3    H271738   1.659   5.492   3.012 -0.9217 -0.8189 -2.1251
16775TIP3   OH271739   5.246   0.962  11.674 -0.3619  0.1436  0.8081
16775TIP3    H171740   5.208   0.935  11.590 -1.6729 -0.7672  1.6486
16775TIP3    H271741   5.195   0.913  11.740  0.7554  0.6886  2.1225
16776TIP3   OH271742   6.201   6.269   3.986  0.3942  0.4563 -0.2190
16776TIP3    H171743   6.121   6.278   4.038  1.2090 -0.2439  1.1933
16776TIP3    H271744   6.195   6.340   3.922 -0.9104  0.9831  0.4410
16777TIP3   OH271745   2.550   0.789  13.058  0.4476  0.3586  0.4386
16777TIP3    H171746   2.629   0.766  13.010  0.3032  0.8430 -0.0415
16777TIP3    H271747   2.481   0.791  12.992 -0.1940 -1.1229  1.0189
16778TIP3   OH271748   3.820   1.652  13.565  0.5910  0.2532 -0.7292
16778TIP3    H171749   3.790   1.564  13.545  0.7560  0.1693 -0.6088
16778TIP3    H271750   3.853   1.685  13.481  0.3613  0.2686 -0.8138
16779TIP3   OH271751   1.408   1.737  10.611  0.6148  0.0676 -0.4190
16779TIP3    H171752   1.381   1.829  10.614 -0.4283 -0.1423 -2.0164
16779TIP3    H271753   1.449   1.727  10.525 -2.5184 -1.7272 -1.8553
16780TIP3   OH271754   0.286   2.793  15.408 -0.0300 -0.2074 -0.1128
16780TIP3    H171755   0.217   2.751  15.357 -2.3016  1.9847  0.9278
16780TIP3    H271756   0.285   2.885  15.379  1.4452  0.1972  0.9748
16781TIP3   OH271757   6.033   2.662  13.022 -0.2077  0.4256  0.4566
16781TIP3    H171758   5.995   2.740  12.984 -2.2665 -0.9323 -0.4344
16781TIP3    H271759   5.961   2.618  13.067  0.6239 -1.4363  0.1049
16782TIP3   OH271760   4.690   0.174  16.065 -0.2517  0.6763  0.0906
16782TIP3    H171761   4.706   0.140  15.978  0.4205 -1.7879  1.0906
16782TIP3    H271762   4.762   0.235  16.081 -0.4152  1.1904 -1.0624
16783TIP3   OH271763   4.894   1.650  16.395 -0.1851 -0.2826  0.3306
16783TIP3    H171764   4.986   1.669  16.376  0.3861 -1.6475  1.5136
16783TIP3    H271765   4.865   1.721  16.451 -0.9081  1.9708 -2.6325
16784TIP3   OH271766   5.953   1.637  16.899  0.0506 -0.5089  0.1081
16784TIP3    H171767   5.942   1.617  16.992 -1.2979 -1.2662 -0.1939
16784TIP3    H271768   5.883   1.590  16.855  0.6548 -0.1512 -1.3112
16785TIP3   OH271769   4.520   4.560  10.468  0.3691  0.1929 -0.0076
16785TIP3    H171770   4.580   4.573  10.395  1.7786 -0.4749  0.9951
16785TIP3    H271771   4.533   4.636  10.524  1.9236 -0.9725  1.2957
16786TIP3   OH271772   4.681   3.866   4.074 -0.2581  0.4127  0.6898
16786TIP3    H171773   4.684   3.774   4.047  0.7544  0.4460  0.6585
16786TIP3    H271774   4.596   3.897   4.044 -0.4386 -0.4000  0.3352
16787TIP3   OH271775   4.181   2.481  16.253  0.6615  0.2460 -0.0180
16787TIP3    H171776   4.211   2.416  16.190 -0.0107 -0.4956  0.4048
16787TIP3    H271777   4.159   2.557  16.201 -2.7018 -1.2899 -1.1413
16788TIP3   OH271778   6.147   2.925   1.074 -0.5046  0.2740 -0.2832
16788TIP3    H171779   6.122   2.976   1.151 -1.5971 -0.4481 -0.1266
16788TIP3    H271780   6.205   2.857   1.107 -0.3597  0.4265 -0.2233
16789TIP3   OH271781   5.155   6.498  16.328  0.0757  0.1518  0.6363
16789TIP3    H171782   5.145   6.591  16.348  2.9662  0.6010  0.4899
16789TIP3    H271783   5.205   6.462  16.402  0.1151 -0.9818  0.0886
16790TIP3   OH271784   4.203   1.625   4.995 -0.3790  0.1299  0.1068
16790TIP3    H171785   4.288   1.652   4.960  0.0519  1.0348  1.7381
16790TIP3    H271786   4.224   1.556   5.059 -0.7998  0.6405  0.8200
16791TIP3   OH271787   2.586   5.656   1.305 -0.3681 -0.3384  0.5033
16791TIP3    H171788   2.657   5.669   1.368  0.7481 -3.6660  0.1450
16791TIP3    H271789   2.530   5.590   1.346  0.9987 -3.4812 -2.2361
16792TIP3   OH271790   0.595   4.112  12.576  0.3257  0.4577  0.0470
16792TIP3    H171791   0.682   4.144  12.550  1.0730 -1.5792 -0.1639
16792TIP3    H271792   0.608   4.080  12.666 -0.6998  1.8229  0.7057
16793TIP3   OH271793   0.746   1.783  12.312  0.1584 -0.1175  0.8170
16793TIP3    H171794   0.764   1.817  12.225  0.9214 -1.9742  0.1864
16793TIP3    H271795   0.832   1.780  12.355 -0.0621 -0.1554  1.2613
16794TIP3   OH271796   4.128   2.066  12.294 -0.3507 -0.2131  0.5803
16794TIP3    H171797   4.089   2.148  12.326 -1.5434 -0.8554  0.8331
16794TIP3    H271798   4.112   2.003  12.363  0.9134 -0.5854  0.5539
16795TIP3   OH271799   3.351   4.804   5.271 -0.1074 -0.0177 -0.2489
16795TIP3    H171800   3.330   4.889   5.308 -0.2740  0.2582 -0.9517
16795TIP3    H271801   3.434   4.779   5.312 -0.3059  0.2527  0.3204
16796TIP3   OH271802   2.581   2.482   2.127  0.4601  0.8454 -0.3349
16796TIP3    H171803   2.660   2.517   2.168 -0.2315 -0.6555  2.5557
16796TIP3    H271804   2.573   2.393   2.162 -1.7093  0.4266 -1.7027
16797TIP3   OH271805   3.442   2.133   6.335  0.1355  0.0654  0.8120
16797TIP3    H171806   3.465   2.041   6.349  1.6939  0.1234 -0.9178
16797TIP3    H271807   3.515   2.168   6.283  0.2387  2.6403  2.5383
16798TIP3   OH271808   1.620   2.817  10.690  0.5205  0.6231  0.0528
16798TIP3    H171809   1.710   2.847  10.701  0.0268  2.3826 -0.4659
16798TIP3    H271810   1.628   2.729  10.653  2.0273 -0.0043  1.7617
16799TIP3   OH271811   5.938   0.604   4.048 -0.2257 -0.2593  0.5090
16799TIP3    H171812   5.856   0.576   4.090  0.4861 -0.8329  1.5532
16799TIP3    H271813   5.910   0.637   3.963 -1.6155  0.0825  1.0593
16800TIP3   OH271814   3.043   2.938  13.585 -0.0786  0.3222 -0.2275
16800TIP3    H171815   3.078   3.026  13.574 -0.2162  0.1725 -2.2950
16800TIP3    H271816   3.119   2.880  13.575 -0.1887  0.1589 -0.1366
16801TIP3   OH271817   3.481   1.978   1.143 -0.4322 -0.3306 -0.3900
16801TIP3    H171818   3.447   2.009   1.059  1.8316  2.3763 -0.4273
16801TIP3    H271819   3.575   1.967   1.129 -0.1777 -0.9408  1.4896
16802TIP3   OH271820   3.909   3.124   2.743 -0.4071 -0.0025 -0.1274
16802TIP3    H171821   3.980   3.080   2.696  0.7258 -0.6528  2.0894
16802TIP3    H271822   3.953   3.169   2.816 -2.1522  0.5163  0.6426
16803TIP3   OH271823   4.624   2.646  11.422 -0.1804  0.1817 -0.2647
16803TIP3    H171824   4.536   2.608  11.425 -1.2567  2.2837 -1.9570
16803TIP3    H271825   4.671   2.592  11.358 -0.5997 -0.2982 -0.1729
16804TIP3   OH271826   0.781   2.148   0.271 -0.4018  0.3878  0.6076
16804TIP3    H171827   0.779   2.104   0.186  1.8749  0.2450  0.5641
16804TIP3    H271828   0.691   2.143   0.303 -0.4668 -3.7968  0.3251
16805TIP3   OH271829   4.651   4.615   2.859  0.0876 -0.4330  0.3561
16805TIP3    H171830   4.631   4.645   2.770 -0.8623 -0.4323  0.5650
16805TIP3    H271831   4.630   4.522   2.858  1.2110 -0.7051  0.2571
16806TIP3   OH271832   4.067   6.775   0.845  0.4796 -0.2771  0.0895
16806TIP3    H171833   4.160   6.754   0.834  0.6984  0.5188  0.3391
16806TIP3    H271834   4.059   6.807   0.935 -0.0897 -0.5935  0.1593
16807TIP3   OH271835   4.984   5.750   4.485  0.3411 -0.1617 -0.0150
16807TIP3    H171836   4.934   5.814   4.434  0.9816 -1.1752 -2.0166
16807TIP3    H271837   5.018   5.800   4.559 -2.0451  0.9747  0.4108
16808TIP3   OH271838   6.681   0.689  15.788  0.7856  0.0996  0.0155
16808TIP3    H171839   6.650   0.608  15.747 -1.5159  1.4756 -1.1102
16808TIP3    H271840   6.672   0.756  15.721  4.0021  1.1486  0.4418
16809TIP3   OH271841   5.823   2.554  13.242  0.0618 -0.4528 -0.5163
16809TIP3    H171842   5.732   2.529  13.255  0.5138 -2.3237 -0.7818
16809TIP3    H271843   5.870   2.511  13.313  0.7366  0.7019 -0.2311
16810TIP3   OH271844   1.379   5.415  15.138 -0.2875  0.2786 -0.2274
16810TIP3    H171845   1.449   5.428  15.203  0.0241 -1.9840 -0.0415
16810TIP3    H271846   1.426   5.394  15.057 -0.7306 -0.8242 -0.2068
16811TIP3   OH271847   5.940   4.239  12.758  0.1300 -0.4661 -0.5814
16811TIP3    H171848   5.962   4.309  12.696  0.0946 -1.4143 -1.6874
16811TIP3    H271849   5.918   4.286  12.838  0.0168  0.8089 -1.3169
16812TIP3   OH271850   1.924   0.688   3.668 -0.5886  0.5349  0.6232
16812TIP3    H171851   1.964   0.769   3.636  2.8406 -1.0381  0.5214
16812TIP3    H271852   1.941   0.689   3.763  1.4246 -0.9618  0.3320
16813TIP3   OH271853   6.642   6.646   1.127  0.3916 -0.2487 -0.1963
16813TIP3    H171854   6.552   6.653   1.098  0.4163 -0.9589 -0.4810
16813TIP3    H271855   6.637   6.610   1.216  0.3404  1.3206  0.4587
16814TIP3   OH271856   0.086   6.697   3.806 -0.2877  0.2796 -0.2921
16814TIP3    H171857   0.043   6.742   3.878 -0.0849  0.1601 -0.0939
16814TIP3    H271858   0.015   6.673   3.746 -0.6608 -0.9789  0.6126
16815TIP3   OH271859   1.399   4.848   5.751 -0.1206  0.3006 -0.0766
16815TIP3    H171860   1.331   4.907   5.783  0.5038  1.0387 -0.0868
16815TIP3    H271861   1.454   4.903   5.695  0.2632 -0.3778 -0.3726
16816TIP3   OH271862   3.087   1.933   1.333  0.4205 -0.2589  0.0207
16816TIP3    H171863   3.090   2.028   1.345  1.4742 -0.3800  0.9383
16816TIP3    H271864   3.034   1.901   1.406  0.9254 -0.4381  0.3198
16817TIP3   OH271865   1.510   5.090   4.892 -0.1661  0.2977  0.0500
16817TIP3    H171866   1.604   5.075   4.902  0.4829  1.5997 -2.9701
16817TIP3    H271867   1.503   5.184   4.874 -2.1191  0.2836  0.4988
16818TIP3   OH271868   1.354   3.990   5.508  0.4544  0.0942  0.0372
16818TIP3    H171869   1.400   3.943   5.577  1.1361  0.8269  0.1026
16818TIP3    H271870   1.327   4.072   5.550 -1.7591 -0.6850  0.2775
16819TIP3   OH271871   1.028   3.268   1.302  0.5440  0.4045 -0.4514
16819TIP3    H171872   1.005   3.354   1.269 -0.1652  0.4110  0.0332
16819TIP3    H271873   1.057   3.284   1.392 -0.5564  0.0277 -0.0186
16820TIP3   OH271874   4.050   3.274   2.919 -0.1617 -0.0248  0.1155
16820TIP3    H171875   4.061   3.345   2.855 -0.2168 -0.6342 -0.5888
16820TIP3    H271876   4.039   3.318   3.003 -2.9001  0.9316 -0.6321
16821TIP3   OH271877   5.764   2.186   4.907  0.6600  0.6419 -0.1697
16821TIP3    H171878   5.757   2.273   4.867  0.4550  0.1738 -1.1981
16821TIP3    H271879   5.806   2.133   4.840  0.8862 -0.0306  0.4953
16822TIP3   OH271880   0.143   3.930  13.781 -0.6497  0.2231 -0.1034
16822TIP3    H171881   0.231   3.892  13.778 -1.0411 -0.6941 -0.0924
16822TIP3    H271882   0.149   4.008  13.725  0.2501  0.3581  0.1641
16823TIP3   OH271883   1.651   3.804   5.458 -0.3547  0.6397  0.1557
16823TIP3    H171884   1.716   3.733   5.457 -1.9124 -0.8566 -0.3421
16823TIP3    H271885   1.641   3.826   5.551  2.1799  2.2533  0.1442
16824TIP3   OH271886   6.133   5.636   3.558  0.1393  0.4479 -0.0432
16824TIP3    H171887   6.120   5.674   3.644  2.4971 -0.9627  1.0495
16824TIP3    H271888   6.066   5.567   3.551  0.7945 -0.3552  1.2887
16825TIP3   OH271889   3.291   6.146  16.838  0.7937 -0.1279  0.3883
16825TIP3    H171890   3.298   6.091  16.761  1.1455  0.0185  0.3138
16825TIP3    H271891   3.198   6.164  16.846  0.9742  2.8363 -2.1438
16826TIP3   OH271892   3.470   5.825  13.757 -0.0486  0.2639 -0.9358
16826TIP3    H171893   3.417   5.902  13.734  0.8903  0.8132 -1.2890
16826TIP3    H271894   3.554   5.861  13.785 -0.2143 -0.5386  0.7248
16827TIP3   OH271895   4.007   1.381   5.245 -0.1307  0.1140 -0.0179
16827TIP3    H171896   4.072   1.405   5.311 -0.1114 -0.2056  0.0814
16827TIP3    H271897   3.927   1.362   5.295  0.0772 -0.8171 -0.0153
16828TIP3   OH271898   6.388   1.631   6.436 -0.5629 -0.4272  0.1012
16828TIP3    H171899   6.307   1.582   6.449 -0.0498 -2.1911 -2.5457
16828TIP3    H271900   6.368   1.692   6.365  0.3751 -0.8493 -0.5479
16829TIP3   OH271901   3.018   1.675   5.662 -0.1040  0.3157 -0.3865
16829TIP3    H171902   3.036   1.635   5.577 -0.7353  1.2218 -0.9626
16829TIP3    H271903   3.016   1.769   5.644  1.3209  0.6361  0.9233
16830TIP3   OH271904   3.662   0.264   5.478  0.0090 -0.2304  0.6677
16830TIP3    H171905   3.713   0.344   5.467 -0.8124  0.1432 -0.5714
16830TIP3    H271906   3.572   0.294   5.493 -0.3195 -0.9212  0.1268
16831TIP3   OH271907   3.448   0.195  14.570  0.1211  0.6840 -0.2046
16831TIP3    H171908   3.425   0.232  14.485 -1.0750  0.1830 -0.1177
16831TIP3    H271909   3.384   0.125  14.584  1.7094 -0.7943  0.0650
16832TIP3   OH271910   1.351   6.481   3.221  0.1320 -0.3850 -0.1949
16832TIP3    H171911   1.282   6.479   3.288  1.2747 -0.0461  1.0206
16832TIP3    H271912   1.321   6.547   3.159 -0.3912  0.1556  0.6110
16833TIP3   OH271913   5.541   1.498   4.072  0.3972 -0.3697 -0.1909
16833TIP3    H171914   5.467   1.436   4.074  1.1256 -1.2804 -0.6579
16833TIP3    H271915   5.607   1.458   4.128 -0.0085  1.2021  1.5069
16834TIP3   OH271916   0.490   1.514   2.964  0.7772 -0.2480  0.2336
16834TIP3    H171917   0.412   1.459   2.978 -0.4411  1.1852 -0.5836
16834TIP3    H271918   0.454   1.599   2.938  2.5769  1.1030  1.9234
16835TIP3   OH271919   4.031   3.386  11.110 -0.0193 -0.1461 -0.3810
16835TIP3    H171920   4.001   3.295  11.121  0.2269 -0.6050 -2.8086
16835TIP3    H271921   3.951   3.438  11.121  0.1402 -0.3923  2.8637
16836TIP3   OH271922   0.440   6.183   1.758 -0.6376  0.0259 -0.0229
16836TIP3    H171923   0.454   6.154   1.848 -1.1065 -0.8759 -0.2322
16836TIP3    H271924   0.391   6.265   1.766 -0.1354  0.2793  0.5533
16837TIP3   OH271925   4.552   1.192  16.832  0.0081  0.0492 -0.4228
16837TIP3    H171926   4.500   1.229  16.761 -1.3858 -0.5838  0.2262
16837TIP3    H271927   4.631   1.246  16.834 -0.4032  0.7440 -1.7489
16838TIP3   OH271928   3.939   2.890   6.556  0.7105  0.2426 -0.1923
16838TIP3    H171929   3.990   2.826   6.605 -1.3111 -2.0637 -0.8855
16838TIP3    H271930   3.960   2.873   6.464 -1.7110 -1.3149 -0.5563
16839TIP3   OH271931   4.528   3.697   0.819 -0.2071 -0.0292 -0.1693
16839TIP3    H171932   4.618   3.681   0.847  0.5627  0.5038 -2.1679
16839TIP3    H271933   4.509   3.625   0.759 -0.5814  0.6605 -0.8963
16840TIP3   OH271934   0.374   1.000  14.694  0.1210 -0.3296 -0.4004
16840TIP3    H171935   0.330   1.018  14.777  0.8256 -0.7549  0.0729
16840TIP3    H271936   0.333   0.920  14.662  0.7294 -0.8833  0.1794
16841TIP3   OH271937   0.854   1.415  14.262 -0.0924  0.0860 -0.1308
16841TIP3    H171938   0.851   1.431  14.167 -0.5384  1.4786  0.0941
16841TIP3    H271939   0.820   1.496  14.301  0.9997 -0.0834  1.2544
16842TIP3   OH271940   3.598   2.414   2.133 -0.4012 -0.6291 -0.3342
16842TIP3    H171941   3.653   2.337   2.121 -1.1938 -1.3405  0.4650
16842TIP3    H271942   3.569   2.408   2.224  1.1973  1.7281  0.4313
16843TIP3   OH271943   6.151   0.108  16.528 -0.6141 -0.5256 -0.1050
16843TIP3    H171944   6.210   0.038  16.500  1.9255  2.1746 -2.1142
16843TIP3    H271945   6.099   0.129  16.450  0.6028  1.5549 -0.4186
16844TIP3   OH271946   3.540   2.485   3.002 -0.3463 -0.2740  0.1891
16844TIP3    H171947   3.520   2.446   2.917  0.2347 -1.1204  0.4277
16844TIP3    H271948   3.550   2.411   3.061 -1.9163  0.3226  1.2875
16845TIP3   OH271949   0.850   3.161  13.427  0.5529  0.3206 -0.5766
16845TIP3    H171950   0.848   3.235  13.488  2.8418 -0.4936  0.6127
16845TIP3    H271951   0.898   3.194  13.351 -0.2527  0.6422 -0.9578
16846TIP3   OH271952   2.303   4.919  11.667 -0.1976  0.0604  0.5297
16846TIP3    H171953   2.308   4.868  11.748 -0.0807  1.1163  1.1956
16846TIP3    H271954   2.345   4.863  11.602 -1.6479 -1.4574  0.8381
16847TIP3   OH271955   3.126   1.690   1.946  0.6923 -0.1678 -0.8447
16847TIP3    H171956   3.061   1.689   2.016  1.6679 -0.2177  0.0861
16847TIP3    H271957   3.117   1.776   1.905 -1.2738 -0.8613 -2.0317
16848TIP3   OH271958   6.014   5.572   1.691  0.3322  0.2097  0.3676
16848TIP3    H171959   6.012   5.522   1.773  1.5418 -0.2342  0.1398
16848TIP3    H271960   6.105   5.568   1.662  0.6283  3.0320  0.6345
16849TIP3   OH271961   1.418   6.245  15.654 -0.5332 -0.6517  0.2850
16849TIP3    H171962   1.323   6.230  15.662 -0.4361 -1.0040  0.7976
16849TIP3    H271963   1.443   6.195  15.576 -0.6181 -1.2670  0.6474
16850TIP3   OH271964   0.090   5.578   5.502  0.4347  0.5909 -0.1178
16850TIP3    H171965   0.101   5.566   5.408  0.6005  0.5355 -0.0918
16850TIP3    H271966   0.033   5.654   5.511  1.5114  1.4249 -0.2412
16851TIP3   OH271967   5.353   2.747  11.562  0.3350  0.4532 -0.5124
16851TIP3    H171968   5.347   2.827  11.613 -1.1738  0.1450 -0.1588
16851TIP3    H271969   5.432   2.758  11.508  0.9985  1.5018  0.6319
16852TIP3   OH271970   5.279   2.254  14.200 -0.2065 -0.3368 -0.0094
16852TIP3    H171971   5.338   2.235  14.127 -0.6339 -1.1065 -0.1619
16852TIP3    H271972   5.192   2.252  14.161 -0.5107 -1.7316  0.6962
16853TIP3   OH271973   1.448   4.085   1.672 -0.4663 -0.6672 -0.7448
16853TIP3    H171974   1.489   4.038   1.745 -1.3862  0.1238  0.3334
16853TIP3    H271975   1.519   4.101   1.610  1.1212  1.3935  1.4276
16854TIP3   OH271976   2.963   1.448   0.255 -0.0196 -0.2301 -0.6819
16854TIP3    H171977   2.880   1.424   0.214 -0.5083  0.3167 -0.0573
16854TIP3    H271978   3.013   1.491   0.186 -0.7272  0.4649 -0.7788
16855TIP3   OH271979   3.458   5.679   1.892 -0.6910  0.1928 -0.4881
16855TIP3    H171980   3.550   5.708   1.897 -0.5071 -0.0473 -1.8771
16855TIP3    H271981   3.462   5.597   1.844 -1.5682 -0.2644  0.1973
16856TIP3   OH271982   5.722   6.195   1.442  0.3603 -0.0166  0.1791
16856TIP3    H171983   5.756   6.188   1.531 -1.8757 -0.1731  1.1025
16856TIP3    H271984   5.681   6.281   1.439 -1.7040 -0.9336  0.1791
16857TIP3   OH271985   4.651   0.119  11.531 -0.1981 -0.0509 -0.4041
16857TIP3    H171986   4.597   0.101  11.608 -1.5945 -0.1719 -1.3631
16857TIP3    H271987   4.613   0.064  11.462  0.0572  1.1355 -1.5470
16858TIP3   OH271988   2.982   0.550  15.409 -0.1723 -0.0971  0.4250
16858TIP3    H171989   2.948   0.513  15.327 -2.0475 -3.4179  2.4863
16858TIP3    H271990   2.917   0.616  15.434 -0.3526 -0.0989 -0.0269
16859TIP3   OH271991   5.492   5.694  12.205  0.0072  0.9886  0.4399
16859TIP3    H171992   5.551   5.702  12.280  0.0256  0.7156  0.4560
16859TIP3    H271993   5.517   5.766  12.147  1.4278 -0.0475 -0.2903
16860TIP3   OH271994   0.960   6.291   3.204 -0.1137 -0.3326 -0.5344
16860TIP3    H171995   0.880   6.320   3.159  0.5556  0.4790 -1.2424
16860TIP3    H271996   1.031   6.330   3.153  0.7717 -1.6927 -0.3923
16861TIP3   OH271997   1.786   6.104   4.771  0.7976  0.0943 -0.5283
16861TIP3    H171998   1.737   6.087   4.690  0.1274 -1.2818  0.1443
16861TIP3    H271999   1.783   6.200   4.780  0.5743  0.2457 -1.9277
16862TIP3   OH272000   4.621   1.547  14.424  0.3045  0.3046 -0.5623
16862TIP3    H172001   4.706   1.529  14.385  1.0800  0.0149  1.1604
16862TIP3    H272002   4.628   1.514  14.513 -1.3722  0.9433 -0.1499
16863TIP3   OH272003   0.384   0.334  13.202 -0.7935  0.0187  0.2483
16863TIP3    H172004   0.461   0.312  13.148 -0.9912 -0.8195  0.2948
16863TIP3    H272005   0.309   0.310  13.147 -1.0011 -0.4038  0.7046
16864TIP3   OH272006   0.265   3.305  16.929  0.3001  0.2238  0.2964
16864TIP3    H172007   0.351   3.316  16.888  0.3423  0.2610  0.3936
16864TIP3    H272008   0.212   3.262  16.863  1.0749 -2.0810  1.0564
16865TIP3   OH272009   5.178   3.805  15.295  0.2865 -0.3814  0.1171
16865TIP3    H172010   5.113   3.760  15.348  1.5941 -0.8549  1.3604
16865TIP3    H272011   5.127   3.872  15.248 -1.2532 -1.4170  0.2190
16866TIP3   OH272012   0.043   4.755   6.004  0.6557  0.0128  0.0661
16866TIP3    H172013   0.125   4.711   5.981  0.8253  1.0788 -1.5040
16866TIP3    H272014   0.029   4.819   5.934 -2.8846 -1.8785 -1.2438
16867TIP3   OH272015   1.426   4.416   4.282 -0.3524  0.4821 -0.3091
16867TIP3    H172016   1.409   4.393   4.190  0.6246 -0.9175 -0.1705
16867TIP3    H272017   1.469   4.339   4.318 -1.9360  0.4500  1.7073
16868TIP3   OH272018   5.202   5.178   1.628  0.0760  0.1954 -0.6455
16868TIP3    H172019   5.216   5.180   1.533 -1.8133  2.1730 -0.9690
16868TIP3    H272020   5.110   5.155   1.638 -0.1806  1.6252  0.6165
16869TIP3   OH272021   5.098   5.625  15.113  0.4218  0.1545 -0.2616
16869TIP3    H172022   5.031   5.601  15.177  0.3826  0.9973  0.0206
16869TIP3    H272023   5.181   5.606  15.157  0.4165 -2.1757 -1.0940
16870TIP3   OH272024   6.232   5.817   4.601  0.6181 -0.2643 -0.5466
16870TIP3    H172025   6.308   5.760   4.591  0.0682 -1.0502 -0.3572
16870TIP3    H272026   6.201   5.801   4.690  1.3052  1.4258  0.0411
16871TIP3   OH272027   6.234   3.318   5.624  0.2959  0.7266 -0.1009
16871TIP3    H172028   6.235   3.343   5.717  1.8601 -0.5608  0.2629
16871TIP3    H272029   6.211   3.399   5.578  0.8475  1.7391  1.3316
16872TIP3   OH272030   3.574   2.198  11.360 -0.0865 -0.2907 -0.6115
16872TIP3    H172031   3.601   2.248  11.283 -0.8714  0.3600 -0.4804
16872TIP3    H272032   3.511   2.254  11.404  0.6097 -0.5135  0.7085
16873TIP3   OH272033   6.703   0.091  11.269  0.6167 -0.2359 -0.6274
16873TIP3    H172034   6.666   0.179  11.263  0.9733 -0.1979 -3.5235
16873TIP3    H272035   6.631   0.037  11.303 -0.7863  0.5777 -2.1440
16874TIP3   OH272036   6.560   5.068  16.775 -0.2043 -0.1875 -0.6338
16874TIP3    H172037   6.503   5.131  16.820  1.1196  0.1093  0.6922
16874TIP3    H272038   6.521   4.983  16.794 -0.0703 -0.0127  0.5167
16875TIP3   OH272039   4.682   6.041  17.197  0.8103  0.5322 -0.4706
16875TIP3    H172040   4.588   6.032  17.185  0.9761  0.4061 -1.8978
16875TIP3    H272041   4.718   5.956  17.172  1.2741  0.3553  0.7210
16876TIP3   OH272042   4.078   2.298   4.723  0.2555 -0.9911  0.7393
16876TIP3    H172043   4.043   2.387   4.725  0.2708 -0.9042 -1.1250
16876TIP3    H272044   4.173   2.310   4.729  0.2980 -0.8279 -0.1840
16877TIP3   OH272045   4.300   4.643   2.758  0.0387  0.4049 -0.0915
16877TIP3    H172046   4.380   4.672   2.802  0.4462  1.2000 -1.2925
16877TIP3    H272047   4.248   4.723   2.748 -0.7492 -0.0439  0.3434
16878TIP3   OH272048   5.279   2.867   1.125 -0.5396  0.3552 -0.0489
16878TIP3    H172049   5.266   2.959   1.150 -1.1150  0.1026  0.6054
16878TIP3    H272050   5.364   2.866   1.082  0.1679  0.9533  1.2625
16879TIP3   OH272051   3.596   5.994   2.926  0.2778 -0.2828 -0.5489
16879TIP3    H172052   3.524   6.016   2.868  0.1088  0.8096  0.0515
16879TIP3    H272053   3.567   6.022   3.013  0.8595 -1.1196 -0.0694
16880TIP3   OH272054   3.760   2.870   0.371 -0.1930 -0.4254 -0.2345
16880TIP3    H172055   3.805   2.814   0.435 -0.9391  0.5395  1.1947
16880TIP3    H272056   3.667   2.860   0.393 -0.5408 -0.7257 -1.7469
16881TIP3   OH272057   2.232   6.616   5.175  0.0118 -0.5709  0.4410
16881TIP3    H172058   2.258   6.643   5.086  1.4933  0.0049  1.0080
16881TIP3    H272059   2.199   6.697   5.215  0.2350 -0.6151  0.7120
16882TIP3   OH272060   2.077   6.628   1.618  0.1165 -0.5417  0.4266
16882TIP3    H172061   1.999   6.602   1.667  0.7197 -2.4645  0.4409
16882TIP3    H272062   2.075   6.575   1.538  1.3499 -0.5750  0.3959
16883TIP3   OH272063   6.074   1.701   4.841 -0.5217  0.4549 -0.1846
16883TIP3    H172064   6.087   1.606   4.845 -1.3943  0.1606 -2.5028
16883TIP3    H272065   6.142   1.737   4.898 -0.9651 -1.5740  1.7767
16884TIP3   OH272066   5.089   0.870  11.483  0.2288 -0.5241  0.0847
16884TIP3    H172067   5.020   0.936  11.473 -0.4124 -1.4961 -2.8542
16884TIP3    H272068   5.042   0.788  11.496  0.9484 -0.8644  0.6451
16885TIP3   OH272069   2.448   1.926   1.701 -0.1429  1.0410  0.0240
16885TIP3    H172070   2.359   1.911   1.670 -0.1106  1.8870 -0.5174
16885TIP3    H272071   2.480   1.999   1.648  0.6861  1.0953  0.5746
16886TIP3   OH272072   6.350   0.888  11.933 -0.3524 -0.6994  0.3155
16886TIP3    H172073   6.315   0.976  11.917 -1.1728 -1.0500  0.1261
16886TIP3    H272074   6.442   0.895  11.910 -0.6482 -0.1743 -0.8146
16887TIP3   OH272075   2.742   0.657   0.727  0.1998  0.3542  0.0095
16887TIP3    H172076   2.751   0.582   0.668  2.0829 -0.4134  1.1871
16887TIP3    H272077   2.726   0.732   0.669  0.0914 -0.6685 -1.3144
16888TIP3   OH272078   0.469   1.027  13.898 -0.3539 -0.1868  0.1297
16888TIP3    H172079   0.505   1.099  13.846 -0.1352  0.7076  1.4678
16888TIP3    H272080   0.546   0.977  13.925 -0.2471  0.5445  1.2741
16889TIP3   OH272081   3.877   1.029   4.362 -0.2526 -0.7324 -0.1062
16889TIP3    H172082   3.882   1.107   4.306  1.4572 -0.4714  0.3504
16889TIP3    H272083   3.794   0.988   4.338 -0.3758  0.2884 -1.6050
16890TIP3   OH272084   3.027   6.017  15.181 -0.3894 -0.4615 -0.0150
16890TIP3    H172085   3.059   6.017  15.272  1.3062 -0.2015 -0.5827
16890TIP3    H272086   3.096   6.060  15.131 -0.8935 -1.3790 -1.5752
16891TIP3   OH272087   2.075   5.242  13.826 -0.5935 -0.1087 -0.6413
16891TIP3    H172088   2.118   5.325  13.804 -0.8771  0.4822  0.8553
16891TIP3    H272089   2.132   5.175  13.789  1.1618  0.6846  0.4480
16892TIP3   OH272090   4.981   3.201   4.730  0.2725 -0.9402  0.5721
16892TIP3    H172091   4.987   3.175   4.822 -1.6609 -0.4204  0.9107
16892TIP3    H272092   4.971   3.296   4.733 -1.0732 -1.0292 -0.0490
16893TIP3   OH272093   5.818   2.975  16.904 -0.3909 -0.5144 -0.3584
16893TIP3    H172094   5.865   3.039  16.850 -1.2274 -1.3969 -2.2029
16893TIP3    H272095   5.765   2.925  16.842  0.8030 -3.5502  0.8948
16894TIP3   OH272096   0.874   3.310   5.808 -0.2671  0.3177 -0.5624
16894TIP3    H172097   0.856   3.262   5.727  0.3305  1.6391 -1.5026
16894TIP3    H272098   0.803   3.375   5.814 -0.5244 -0.0140  0.1927
16895TIP3   OH272099   1.718   1.236   1.572 -0.1870  0.6675 -0.1120
16895TIP3    H172100   1.625   1.214   1.567 -0.0201  0.0366 -0.4974
16895TIP3    H272101   1.756   1.197   1.494  0.6101 -0.0742  0.6326
16896TIP3   OH272102   1.031   1.849   6.001  0.3570 -0.5567 -0.3706
16896TIP3    H172103   1.048   1.807   6.085  1.1882 -0.0873 -0.2946
16896TIP3    H272104   1.010   1.778   5.941  1.5164 -1.0639 -0.1922
16897TIP3   OH272105   1.190   2.858   4.026  0.5740  0.0368 -0.0899
16897TIP3    H172106   1.224   2.821   3.944  0.9903 -1.4524  0.7269
16897TIP3    H272107   1.260   2.916   4.056  2.5871 -3.0038  1.5778
16898TIP3   OH272108   6.517   1.431  11.551  0.0628 -0.2955  0.1063
16898TIP3    H172109   6.573   1.449  11.627  1.4950 -2.0087 -0.4549
16898TIP3    H272110   6.520   1.511  11.499  0.5717  0.2570  0.9671
16899TIP3   OH272111   6.415   5.411   1.303  0.1582  0.2246 -0.5635
16899TIP3    H172112   6.372   5.374   1.380  1.5779  0.7077  0.5116
16899TIP3    H272113   6.474   5.478   1.339  0.7358  0.5785 -2.0954
16900TIP3   OH272114   3.930   0.451  15.935 -0.0253 -0.1540  0.1748
16900TIP3    H172115   3.888   0.457  16.020  0.9411 -0.9191  0.7322
16900TIP3    H272116   3.990   0.526  15.932  2.1166 -1.6763  1.4641
16901TIP3   OH272117   2.832   6.425   6.219  0.1986  0.5656 -0.4117
16901TIP3    H172118   2.841   6.350   6.278  1.0499  1.1375  0.2276
16901TIP3    H272119   2.922   6.444   6.192 -0.1302  0.6633 -1.4551
16902TIP3   OH272120   5.472   2.141   5.575  0.7162  0.5862 -0.0068
16902TIP3    H172121   5.429   2.117   5.657 -0.7600 -1.6362 -1.2972
16902TIP3    H272122   5.565   2.138   5.594  0.4193 -0.7296  1.4161
16903TIP3   OH272123   5.600   3.965   3.295 -0.7335 -0.7071 -0.4602
16903TIP3    H172124   5.582   3.920   3.213 -0.1861  1.0268 -1.5807
16903TIP3    H272125   5.652   3.903   3.345  0.7730 -1.0347 -2.3213
16904TIP3   OH272126   3.449   1.726  12.162  0.2175 -0.5419 -0.0730
16904TIP3    H172127   3.477   1.637  12.185  1.6519 -0.6739 -2.0767
16904TIP3    H272128   3.378   1.714  12.098  0.3965 -0.2483 -0.3311
16905TIP3   OH272129   0.277   3.101  16.332  0.1898  0.3414 -0.4020
16905TIP3    H172130   0.320   3.153  16.400  0.9556 -0.6532 -0.0919
16905TIP3    H272131   0.200   3.064  16.376 -1.3069  2.4681 -1.0752
16906TIP3   OH272132   0.881   5.830   4.501 -0.3197  0.0605  0.2659
16906TIP3    H172133   0.836   5.796   4.578  0.4322 -2.8843 -0.4560
16906TIP3    H272134   0.811   5.851   4.439 -0.8908  1.7694  1.4224
16907TIP3   OH272135   6.561   3.238   3.336  0.2544 -0.6238  0.2126
16907TIP3    H172136   6.585   3.211   3.247 -0.0726 -0.4660  0.0776
16907TIP3    H272137   6.601   3.171   3.392  2.3061  0.4265  0.0999
16908TIP3   OH272138   1.879   4.271   4.431  0.1560 -0.0112  0.4399
16908TIP3    H172139   1.942   4.338   4.456  0.5423 -0.1559 -0.1291
16908TIP3    H272140   1.794   4.316   4.434  0.3622  0.3785  0.4967
16909TIP3   OH272141   0.889   5.802  15.075  0.7488 -0.1878  0.0484
16909TIP3    H172142   0.888   5.887  15.119  2.1550  0.7128 -1.5224
16909TIP3    H272143   0.852   5.741  15.139  2.0280  1.1440  2.1786
16910TIP3   OH272144   5.382   5.838  16.726 -0.2743 -0.3436  0.1802
16910TIP3    H172145   5.384   5.850  16.821 -0.7354  0.3076  0.1165
16910TIP3    H272146   5.406   5.924  16.691 -0.7557 -0.3965 -0.2986
16911TIP3   OH272147   3.656   4.749  15.928  0.2456  0.9420  0.1368
16911TIP3    H172148   3.731   4.760  15.987 -0.2964  0.8362  0.8547
16911TIP3    H272149   3.587   4.715  15.983  0.3724 -1.3944 -1.0259
16912TIP3   OH272150   6.750   3.045  13.326  0.1477  0.3879  0.4613
16912TIP3    H172151   6.795   3.111  13.273 -0.1255  0.5509  0.4281
16912TIP3    H272152   6.785   2.962  13.295  0.8450  0.5360  0.8327
16913TIP3   OH272153   5.438   3.734   0.454 -0.3559 -0.2732  0.0309
16913TIP3    H172154   5.409   3.818   0.487 -4.3867 -1.2057 -0.6770
16913TIP3    H272155   5.410   3.732   0.363  1.4454 -1.6686 -0.5640
16914TIP3   OH272156   4.302   3.159  16.741 -0.1147  0.5728  0.1744
16914TIP3    H172157   4.339   3.157  16.829 -0.0289 -1.9034  0.1315
16914TIP3    H272158   4.363   3.214  16.691  0.5534  0.9055  1.3268
16915TIP3   OH272159   1.908   3.800  16.907 -0.2270  0.1359 -0.1051
16915TIP3    H172160   1.951   3.745  16.972  0.7661  1.2433  0.2095
16915TIP3    H272161   1.978   3.854  16.870 -0.9960  0.4812 -1.1276
16916TIP3   OH272162   6.537   6.498   6.042 -1.0831 -0.1834  0.0517
16916TIP3    H172163   6.553   6.412   6.003 -1.8583 -0.8075  1.0330
16916TIP3    H272164   6.462   6.484   6.100  0.2288  0.5843  2.0325
16917TIP3   OH272165   2.871   2.261   0.232 -0.2913  0.0426  0.3785
16917TIP3    H172166   2.847   2.184   0.283  0.1142  0.0469  0.5813
16917TIP3    H272167   2.817   2.331   0.269 -1.2121 -0.2914 -0.3068
16918TIP3   OH272168   5.681   2.005  13.307  0.9130  0.0721  0.7642
16918TIP3    H172169   5.710   2.081  13.256  1.6096 -0.4942  0.3011
16918TIP3    H272170   5.643   2.042  13.386  1.6331  0.8930  0.7380
16919TIP3   OH272171   1.844   2.750   2.575  0.3893  0.0940  0.0403
16919TIP3    H172172   1.766   2.696   2.562 -0.1711  0.8389  0.2386
16919TIP3    H272173   1.842   2.813   2.503  1.1225 -0.2482 -0.2789
16920TIP3   OH272174   3.911   6.786   5.421  0.4980  0.3347  0.5179
16920TIP3    H172175   3.864   6.705   5.445  0.4440  0.5654  1.2092
16920TIP3    H272176   3.999   6.773   5.455  0.4157  0.6721  0.8678
16921TIP3   OH272177   3.650   2.623   0.145  1.1130 -0.0963  0.2859
16921TIP3    H172178   3.705   2.550   0.117 -0.6427 -1.4778  0.2864
16921TIP3    H272179   3.605   2.592   0.224 -1.2230  0.1366 -0.8446
16922TIP3   OH272180   6.229   6.791   0.537  0.2745  0.3047 -0.3652
16922TIP3    H172181   6.227   6.803   0.442 -0.0202  0.7596 -0.3009
16922TIP3    H272182   6.322   6.774   0.557  0.6765  2.1675 -0.4919
16923TIP3   OH272183   1.761   5.942  13.571  0.3248 -0.1105 -0.5600
16923TIP3    H172184   1.815   5.971  13.645  0.9013  0.3974 -1.1735
16923TIP3    H272185   1.685   6.000  13.573  0.8499  0.5949 -1.0019
16924TIP3   OH272186   0.250   6.320   5.627  0.2417  0.0882  0.1427
16924TIP3    H172187   0.261   6.387   5.559  1.4391 -0.9731 -0.7633
16924TIP3    H272188   0.335   6.314   5.669  0.1807 -0.9151  0.1493
16925TIP3   OH272189   6.488   1.999  15.783 -0.3336  0.1264  0.2316
16925TIP3    H172190   6.485   1.965  15.693  2.2545 -0.5760  0.3421
16925TIP3    H272191   6.485   2.094  15.773  1.6729  0.1213 -0.7575
16926TIP3   OH272192   6.427   0.332   0.473 -0.3057  0.6074 -0.1462
16926TIP3    H172193   6.498   0.395   0.486  0.4846 -0.3466  0.3137
16926TIP3    H272194   6.356   0.383   0.434  0.0915  1.9061  0.7573
16927TIP3   OH272195   4.335   1.346   1.231  0.3161 -0.3645  0.3855
16927TIP3    H172196   4.378   1.426   1.202 -0.1281 -0.4960 -0.6752
16927TIP3    H272197   4.398   1.306   1.291  0.7240  0.5534  0.5946
16928TIP3   OH272198   0.250   5.756  14.312 -0.3515 -0.3937 -0.2875
16928TIP3    H172199   0.187   5.726  14.377 -0.8826 -0.8844 -1.0132
16928TIP3    H272200   0.280   5.677  14.269 -0.4905 -0.0265 -1.0736
16929TIP3   OH272201   0.340   2.134   2.973  0.6997 -0.3522 -0.0454
16929TIP3    H172202   0.385   2.207   3.015 -1.1986  0.5743  0.5202
16929TIP3    H272203   0.407   2.067   2.962  2.1734  0.9262  0.7488
16930TIP3   OH272204   0.579   4.945  13.986 -0.4138 -0.2014  0.0653
16930TIP3    H172205   0.577   4.856  13.953 -0.3397 -0.4014  0.5938
16930TIP3    H272206   0.650   4.987  13.938 -0.4402 -0.4279 -0.1726
16931TIP3   OH272207   6.563   5.930   3.266 -0.2596  0.5238 -0.2107
16931TIP3    H172208   6.588   5.872   3.338 -3.0330 -0.3486  0.1731
16931TIP3    H272209   6.498   5.990   3.304 -1.5951  0.2079 -1.8696
16932TIP3   OH272210   4.788   4.610  12.040 -0.1942  0.1682 -0.6141
16932TIP3    H172211   4.809   4.578  11.952 -0.7227 -1.5468 -0.1439
16932TIP3    H272212   4.812   4.538  12.098  0.3098  1.3462  0.6891
16933TIP3   OH272213   6.432   2.660  14.844 -0.5758  0.0448 -0.0087
16933TIP3    H172214   6.465   2.744  14.876  4.0330 -1.6556  0.4128
16933TIP3    H272215   6.411   2.611  14.923 -1.2997  0.0761 -0.1760
16934TIP3   OH272216   4.266   3.341   4.641 -0.2683 -0.2335  0.3254
16934TIP3    H172217   4.280   3.300   4.726 -0.5571 -0.4487  0.2673
16934TIP3    H272218   4.288   3.433   4.655  3.3186 -0.8287 -0.2440
16935TIP3   OH272219   5.331   5.850   5.649 -0.3991 -0.2594 -0.2733
16935TIP3    H172220   5.376   5.825   5.730  1.1277  0.6678 -0.7907
16935TIP3    H272221   5.280   5.927   5.672  0.3318  0.2294 -0.2568
16936TIP3   OH272222   6.533   4.518  12.767 -0.0431 -0.0504  0.2565
16936TIP3    H172223   6.514   4.556  12.680  2.7920  0.7560 -0.1023
16936TIP3    H272224   6.487   4.577  12.828 -0.1965  0.7387 -0.5836
16937TIP3   OH272225   1.428   5.367   3.575  0.7576  0.7710 -0.5841
16937TIP3    H172226   1.385   5.411   3.501 -0.0768  1.6360  0.3897
16937TIP3    H272227   1.363   5.305   3.607  0.8106  0.9783 -0.0709
16938TIP3   OH272228   6.361   1.378   5.227  0.0158 -0.2027  0.1891
16938TIP3    H172229   6.403   1.423   5.300 -1.6240  0.3813  0.8357
16938TIP3    H272230   6.270   1.365   5.256 -0.4340 -0.8116 -1.3748
16939TIP3   OH272231   6.453   6.032  15.378  0.3468  0.3272 -0.1292
16939TIP3    H172232   6.451   6.018  15.473  2.1135  1.5481  0.1323
16939TIP3    H272233   6.542   6.011  15.352 -0.0444  0.2604 -1.4930
16940TIP3   OH272234   3.118   5.762  11.859 -0.1405  0.1062 -1.2985
16940TIP3    H172235   3.058   5.812  11.915 -0.1975 -1.4826  0.1736
16940TIP3    H272236   3.189   5.737  11.918  0.5258 -0.4454 -2.3119
16941TIP3   OH272237   5.587   4.957  11.889  0.2787  0.2004  0.0759
16941TIP3    H172238   5.662   4.908  11.856  0.3268 -1.6991  2.7179
16941TIP3    H272239   5.511   4.901  11.872 -0.4967  1.6652 -1.6807
16942TIP3   OH272240   1.545   6.014   5.201  0.1093  0.4753  1.0424
16942TIP3    H172241   1.593   6.095   5.217 -0.5084  0.3931  3.8051
16942TIP3    H272242   1.461   6.026   5.245  0.0693 -1.7017  1.6997
16943TIP3   OH272243   2.590   0.344   3.375  0.3691  0.1269 -0.0670
16943TIP3    H172244   2.577   0.277   3.441  2.9004 -1.1810 -0.7744
16943TIP3    H272245   2.681   0.332   3.346  0.1513  2.3208 -1.9249
16944TIP3   OH272246   6.119   1.107   6.298  0.3406 -0.5334 -0.0440
16944TIP3    H172247   6.175   1.185   6.303  0.0201 -0.3737  1.7452
16944TIP3    H272248   6.158   1.046   6.360  0.4051 -1.7032 -1.2097
16945TIP3   OH272249   1.024   2.546   3.835 -0.0743  0.2983  0.8246
16945TIP3    H172250   1.008   2.605   3.761  0.7709 -1.8695 -1.2469
16945TIP3    H272251   1.001   2.596   3.912 -0.0716  3.0551 -0.8478
16946TIP3   OH272252   4.264   1.209  15.462 -0.2714 -0.0803  0.5078
16946TIP3    H172253   4.238   1.130  15.508  2.5379 -0.4557  1.6383
16946TIP3    H272254   4.240   1.280  15.521  1.1798 -0.4149  1.5445
16947TIP3   OH272255   0.229   0.080  12.799 -0.2772 -0.4562 -0.1499
16947TIP3    H172256   0.205   0.172  12.812  0.5708 -0.2492  0.0422
16947TIP3    H272257   0.205   0.062  12.708  0.2180  0.1798 -0.4164
16948TIP3   OH272258   5.098   2.689   2.439 -0.0476  0.4189 -0.3876
16948TIP3    H172259   5.126   2.724   2.523  1.1917 -0.4969 -0.3784
16948TIP3    H272260   5.036   2.753   2.404  2.4991  2.9109 -0.6446
16949TIP3   OH272261   2.291   4.643   4.370  0.0174 -0.0015 -0.2849
16949TIP3    H172262   2.287   4.684   4.456  1.2168 -0.1087 -0.1595
16949TIP3    H272263   2.373   4.674   4.332 -0.1714 -0.4764 -1.1231
16950TIP3   OH272264   2.566   6.179  16.663 -0.1330  0.7536  0.4530
16950TIP3    H172265   2.659   6.170  16.643 -0.4566  0.9786 -1.2813
16950TIP3    H272266   2.547   6.271  16.647 -0.6926  0.6700  0.6174
16951TIP3   OH272267   6.678   6.248  15.374  0.0262  0.9138  0.3627
16951TIP3    H172268   6.619   6.312  15.335  0.2187 -0.0357 -1.5821
16951TIP3    H272269   6.676   6.174  15.314  0.2859 -0.6796  2.2286
16952TIP3   OH272270   3.400   5.634  14.561 -0.3654  0.5718  0.5454
16952TIP3    H172271   3.424   5.710  14.508  1.7985  0.5320  1.3759
16952TIP3    H272272   3.483   5.600  14.593 -1.0519 -3.1471 -1.1074
16953TIP3   OH272273   6.505   6.143  14.939 -0.2655 -0.2323 -0.1451
16953TIP3    H172274   6.491   6.209  14.871  0.0584 -1.3605 -1.3561
16953TIP3    H272275   6.597   6.119  14.930  0.5444  1.4454  2.4791
16954TIP3   OH272276   2.163   3.528  11.970  0.5056  0.4017  0.4394
16954TIP3    H172277   2.092   3.504  12.031 -0.3938  2.4386  0.2680
16954TIP3    H272278   2.188   3.616  11.997 -0.7407  1.9049 -2.7949
16955TIP3   OH272279   3.957   4.831  11.648 -0.2342 -0.4469 -0.2812
16955TIP3    H172280   3.888   4.791  11.595 -0.1998 -0.7150 -0.1255
16955TIP3    H272281   3.917   4.845  11.733 -0.4319  0.4198 -0.5132
16956TIP3   OH272282   3.574   2.209  15.878 -0.5342 -0.4396 -0.1548
16956TIP3    H172283   3.498   2.259  15.848  0.4130  0.5489 -1.0078
16956TIP3    H272284   3.587   2.142  15.811  0.2118  0.3334 -0.8126
16957TIP3   OH272285   4.525   5.349  10.857  0.6677  0.4362  0.0392
16957TIP3    H172286   4.576   5.276  10.822  1.1102  0.6250  0.2824
16957TIP3    H272287   4.579   5.384  10.928  0.4031  0.9201  0.0055
16958TIP3   OH272288   6.659   3.237   4.289  0.1773 -1.2526 -0.0918
16958TIP3    H172289   6.651   3.200   4.377 -0.7204 -0.5904  0.1217
16958TIP3    H272290   6.616   3.322   4.295  0.6610 -0.9294 -1.0201
16959TIP3   OH272291   6.739   0.136   5.764 -0.3655 -0.0140 -0.4030
16959TIP3    H172292   6.700   0.156   5.850  0.8919 -0.5596  0.3200
16959TIP3    H272293   6.671   0.087   5.718 -1.0204  0.1848  0.3239
16960TIP3   OH272294   1.653   0.955   4.592 -0.2328  0.0553 -0.4086
16960TIP3    H172295   1.646   0.867   4.554 -0.4262 -0.2924  0.4278
16960TIP3    H272296   1.572   0.967   4.641 -0.3160  0.8056 -0.7101
16961TIP3   OH272297   3.009   2.695  11.508 -0.1679 -0.2105 -0.0445
16961TIP3    H172298   2.923   2.735  11.524 -1.2812 -2.2012 -0.7673
16961TIP3    H272299   3.005   2.665  11.417  0.1387 -2.9723  0.7712
16962TIP3   OH272300   0.123   2.745  16.363  0.0131  0.2421 -0.2145
16962TIP3    H172301   0.055   2.770  16.301 -1.3952  0.9518  1.5179
16962TIP3    H272302   0.150   2.827  16.404  2.5951  0.1039 -1.4237
16963TIP3   OH272303   4.128   4.479  17.001 -0.3698 -0.0200  0.6302
16963TIP3    H172304   4.216   4.460  17.035 -1.1892 -3.0952  1.3702
16963TIP3    H272305   4.131   4.450  16.910 -0.6803 -0.3788  0.7340
16964TIP3   OH272306   5.432   4.396  11.709 -0.0369  0.0635 -0.2483
16964TIP3    H172307   5.441   4.300  11.708  0.8423  0.1393 -0.6746
16964TIP3    H272308   5.473   4.423  11.792  1.7775  0.2253 -1.1445
16965TIP3   OH272309   5.059   0.769   3.209  0.0618 -0.0541 -0.0257
16965TIP3    H172310   5.094   0.755   3.121  0.9101  2.9621 -0.2621
16965TIP3    H272311   5.123   0.727   3.267  0.6735 -0.1639 -0.7617
16966TIP3   OH272312   1.604   5.762   4.594  0.0780 -0.1579 -0.3191
16966TIP3    H172313   1.553   5.690   4.632 -0.7223  0.5462 -0.0097
16966TIP3    H272314   1.574   5.840   4.642 -0.4422  0.6602 -1.8967
16967TIP3   OH272315   5.709   1.237  11.006 -0.3828  0.2507  0.2750
16967TIP3    H172316   5.798   1.228  11.040  0.9305  2.4756 -2.1862
16967TIP3    H272317   5.703   1.171  10.937 -0.9170 -0.3379  0.8699
16968TIP3   OH272318   1.828   3.619   5.490 -0.1945  0.2508 -0.1369
16968TIP3    H172319   1.923   3.605   5.494  0.1099  2.2798  2.7704
16968TIP3    H272320   1.792   3.548   5.544 -0.4802 -0.9995 -1.8899
16969TIP3   OH272321   0.446   5.775   4.674 -0.0371 -0.0030 -0.2815
16969TIP3    H172322   0.359   5.766   4.636  0.9365  0.8820 -2.9969
16969TIP3    H272323   0.431   5.800   4.765 -2.5834 -1.0877 -0.3455
16970TIP3   OH272324   6.282   3.824   4.592  0.0244  0.3095 -0.2319
16970TIP3    H172325   6.210   3.837   4.654 -2.2562 -0.7879 -2.4065
16970TIP3    H272326   6.276   3.898   4.532  0.6791  0.1746 -0.4748
16971TIP3   OH272327   1.709   1.432   0.194 -0.0839  0.2096  0.6277
16971TIP3    H172328   1.652   1.434   0.271 -2.6817  1.0566 -1.1641
16971TIP3    H272329   1.721   1.339   0.175  0.7411 -0.0202  2.0698
16972TIP3   OH272330   6.227   1.040  13.222 -0.1726  0.0649  0.1666
16972TIP3    H172331   6.185   0.955  13.206 -1.0095  0.1197  1.8945
16972TIP3    H272332   6.193   1.096  13.153 -1.1229 -0.5124  0.1494
16973TIP3   OH272333   4.879   3.787   5.618 -0.9949 -0.0858 -0.0207
16973TIP3    H172334   4.967   3.819   5.636 -1.6091  1.0604  1.1209
16973TIP3    H272335   4.838   3.781   5.705 -2.1862 -0.1665 -0.5719
16974TIP3   OH272336   5.516   0.986  14.395 -0.0119  0.7464  0.3091
16974TIP3    H172337   5.492   0.965  14.305  1.3659  2.2601 -0.4607
16974TIP3    H272338   5.472   0.919  14.448 -1.6326  0.3979 -1.3901
16975TIP3   OH272339   4.459   1.004   5.017  0.1233  0.0046 -0.4933
16975TIP3    H172340   4.516   1.074   5.049  0.3189 -1.1683  1.9462
16975TIP3    H272341   4.520   0.936   4.986  0.0407 -0.4817  0.3791
16976TIP3   OH272342   2.113   1.353   1.616 -0.2998 -0.5096 -0.6086
16976TIP3    H172343   2.121   1.404   1.697  0.3295 -1.3824 -0.1086
16976TIP3    H272344   2.125   1.263   1.644  1.3867 -0.7215 -1.8789
16977TIP3   OH272345   1.260   2.776   3.408 -0.2434 -0.0502  0.4850
16977TIP3    H172346   1.345   2.748   3.376 -1.0616 -1.0988 -0.9053
16977TIP3    H272347   1.235   2.708   3.472 -0.2565 -0.0455  0.4850
16978TIP3   OH272348   0.347   5.044   3.366  0.9150  0.4211 -0.7251
16978TIP3    H172349   0.292   5.074   3.293  1.6635  0.6021 -1.2167
16978TIP3    H272350   0.317   5.096   3.441 -0.9244 -0.8295 -0.5078
16979TIP3   OH272351   0.275   0.350  12.402  0.0017 -0.1615  0.6086
16979TIP3    H172352   0.301   0.279  12.461  1.7380  0.7690  1.0361
16979TIP3    H272353   0.260   0.425  12.461 -3.5010 -0.5036  0.3707
16980TIP3   OH272354   1.952   3.168  13.306  0.0521  0.3252 -0.4591
16980TIP3    H172355   2.040   3.134  13.294  0.4854 -0.0357  2.7668
16980TIP3    H272356   1.898   3.091  13.324 -0.1444  0.8025  1.1447
16981TIP3   OH272357   3.125   1.661  17.118  0.0335  0.2110 -0.1779
16981TIP3    H172358   3.148   1.631  17.030  0.3459 -0.1965  0.0369
16981TIP3    H272359   3.034   1.636  17.129  0.5699 -1.6978  0.3997
16982TIP3   OH272360   0.252   4.001   0.967 -0.1589  0.0928 -0.1973
16982TIP3    H172361   0.314   3.960   1.028  1.6231 -0.0162 -1.9424
16982TIP3    H272362   0.256   4.094   0.988  0.8300  0.1188 -0.4360
16983TIP3   OH272363   5.194   0.974  14.304  0.0081  1.1474  0.4088
16983TIP3    H172364   5.133   0.906  14.332  2.6221 -2.1546 -1.0952
16983TIP3    H272365   5.249   0.990  14.380  0.4854  0.1359  0.3006
16984TIP3   OH272366   3.725   3.600  14.116 -0.1151  0.8026 -0.5927
16984TIP3    H172367   3.669   3.671  14.147 -1.3960 -0.5793  0.3833
16984TIP3    H272368   3.748   3.552  14.196  2.1960  1.0806 -1.0055
16985TIP3   OH272369   2.532   2.079   5.499  1.1044  0.0219 -1.0909
16985TIP3    H172370   2.627   2.076   5.513  1.1963  0.9312 -1.4545
16985TIP3    H272371   2.495   2.035   5.576  1.8237 -0.5834 -1.0804
16986TIP3   OH272372   5.783   6.292   3.827  0.1394  0.0156  0.0408
16986TIP3    H172373   5.720   6.301   3.898  0.0553 -0.7703  0.0806
16986TIP3    H272374   5.734   6.314   3.748  0.4074  1.5426  0.2679
16987TIP3   OH272375   0.488   0.693  11.014  0.3777 -0.5271  0.1119
16987TIP3    H172376   0.442   0.777  11.017  0.0534 -0.6660 -0.8052
16987TIP3    H272377   0.546   0.696  11.090  0.8797  0.8202 -0.2808
16988TIP3   OH272378   0.295   4.118   5.364 -0.2391  0.0807  0.5164
16988TIP3    H172379   0.333   4.159   5.287  0.3796 -0.5814  0.4599
16988TIP3    H272380   0.258   4.036   5.333 -0.1433 -0.1082  0.8941
16989TIP3   OH272381   0.858   3.853   2.725 -0.0814  0.1921 -0.1095
16989TIP3    H172382   0.871   3.944   2.699 -1.6668  0.5953  0.3807
16989TIP3    H272383   0.843   3.857   2.820  0.4839 -0.6562  0.0239
16990TIP3   OH272384   6.514   2.730  13.939  0.3370  0.1585 -0.2781
16990TIP3    H172385   6.517   2.783  13.860 -1.8538 -0.6051 -0.9501
16990TIP3    H272386   6.448   2.773  13.994 -0.3208 -0.9331 -0.1726
16991TIP3   OH272387   1.799   1.710  14.217  0.2008 -0.2317 -0.2042
16991TIP3    H172388   1.812   1.626  14.262 -1.8574  0.3174  1.5829
16991TIP3    H272389   1.715   1.700  14.172 -1.2030  1.5332  1.8666
16992TIP3   OH272390   5.389   3.469  12.269 -0.1076 -0.0208  0.3499
16992TIP3    H172391   5.400   3.554  12.226 -0.6999  0.7392  1.6513
16992TIP3    H272392   5.302   3.474  12.309 -0.9644 -1.9614 -1.1015
16993TIP3   OH272393   0.192   4.481   4.432  0.3042 -0.4467  0.3160
16993TIP3    H172394   0.160   4.449   4.348  0.9848 -1.0533  0.2819
16993TIP3    H272395   0.127   4.546   4.459 -0.2910 -0.7556 -0.3414
16994TIP3   OH272396   1.978   6.451  11.499 -0.4117 -0.2091  0.1672
16994TIP3    H172397   1.936   6.490  11.422 -1.1371 -0.0871  0.6132
16994TIP3    H272398   2.051   6.509  11.518 -0.1335 -0.3278 -0.5248
16995TIP3   OH272399   2.781   0.430  13.139  0.0947  0.6627 -0.1958
16995TIP3    H172400   2.783   0.482  13.058 -0.3072  0.6283 -0.2287
16995TIP3    H272401   2.708   0.467  13.189  0.5599  0.9166  0.3086
16996TIP3   OH272402   0.580   3.840   5.669 -0.0832  0.1548  0.1826
16996TIP3    H172403   0.515   3.893   5.716  0.2050 -0.5732  1.4379
16996TIP3    H272404   0.529   3.771   5.627 -0.0859 -1.1056  2.1045
16997TIP3   OH272405   0.265   1.099   3.893  0.5736 -0.3755 -0.2004
16997TIP3    H172406   0.269   1.184   3.849  1.0093  0.5872  1.5901
16997TIP3    H272407   0.173   1.074   3.890 -0.1291  1.6426  1.8044
16998TIP3   OH272408   4.340   5.748  13.104  0.0991  0.1741  0.3596
16998TIP3    H172409   4.400   5.799  13.158 -0.4730  0.5598  0.6387
16998TIP3    H272410   4.261   5.801  13.099  1.1747  1.7838 -3.6457
16999TIP3   OH272411   5.231   0.481   4.767 -0.2214 -0.0372 -0.1806
16999TIP3    H172412   5.277   0.495   4.685  0.8749  0.1845  0.4492
16999TIP3    H272413   5.239   0.387   4.784  1.1702  0.1788  0.5584
17000TIP3   OH272414   1.693   1.629  12.754 -0.0986 -0.1463  0.5076
17000TIP3    H172415   1.649   1.557  12.708  2.5500 -0.6284 -1.5295
17000TIP3    H272416   1.705   1.597  12.843 -1.4021 -1.0803  0.3748
17001TIP3   OH272417   6.393   1.652  16.002 -0.4062 -0.4564  0.5092
17001TIP3    H172418   6.463   1.716  16.015 -0.4724  0.0891 -1.4637
17001TIP3    H272419   6.433   1.568  16.025  0.5814 -0.0357  0.3988
17002TIP3   OH272420   6.512   4.749   0.092  0.0467 -0.3311  0.5412
17002TIP3    H172421   6.424   4.712   0.099  0.3026 -0.6817  2.4995
17002TIP3    H272422   6.501   4.842   0.109  0.0238 -0.3030  0.3821
17003TIP3   OH272423   6.110   0.882  12.493 -0.1552 -0.3996  0.0499
17003TIP3    H172424   6.062   0.951  12.448  2.0171  0.4505 -1.1603
17003TIP3    H272425   6.072   0.878  12.580 -1.6946  0.8895 -0.5279
17004TIP3   OH272426   2.481   4.874   5.860 -0.0400  0.3565 -0.5508
17004TIP3    H172427   2.476   4.846   5.951 -0.9090 -0.4672 -0.8353
17004TIP3    H272428   2.393   4.906   5.840 -0.0410 -0.0963 -1.2925
17005TIP3   OH272429   2.993   4.169  15.740  0.0833  0.5059 -0.6415
17005TIP3    H172430   2.948   4.216  15.810  0.4025  0.2272 -0.2447
17005TIP3    H272431   2.980   4.077  15.761 -0.8224  0.3848 -1.5926
17006TIP3   OH272432   1.527   5.524  14.846 -0.1595 -0.8223  0.1245
17006TIP3    H172433   1.445   5.563  14.818 -0.2867 -0.7476  0.5915
17006TIP3    H272434   1.502   5.438  14.881  0.0894 -1.2387 -0.6934
17007TIP3   OH272435   0.156   0.755   3.444 -0.2863  0.5908 -0.5784
17007TIP3    H172436   0.138   0.666   3.414  0.9868 -0.3585  1.2924
17007TIP3    H272437   0.081   0.806   3.413 -1.7574 -1.4047 -0.5424
17008TIP3   OH272438   5.376   6.498   1.974 -0.2769  0.2918 -0.1840
17008TIP3    H172439   5.424   6.537   2.047  0.5023 -0.1252 -0.4694
17008TIP3    H272440   5.433   6.429   1.941  0.0426  1.4171 -2.1311
17009TIP3   OH272441   1.547   5.314   2.703  0.4247  0.2251  0.6164
17009TIP3    H172442   1.600   5.323   2.624  1.3400 -0.0214  1.1929
17009TIP3    H272443   1.565   5.226   2.735  2.1789  1.2239  2.5730
17010TIP3   OH272444   1.731   0.898  15.356  0.2894 -0.1782  0.1031
17010TIP3    H172445   1.790   0.912  15.281  3.2057  0.8234  2.3589
17010TIP3    H272446   1.703   0.807  15.347  2.4043 -0.8020 -1.0160
17011TIP3   OH272447   2.979   4.162  13.350 -0.0890  0.4754 -0.1286
17011TIP3    H172448   2.971   4.067  13.356  2.3311  0.1269 -1.0432
17011TIP3    H272449   3.050   4.184  13.410 -0.9428  1.8012  0.4427
17012TIP3   OH272450   4.746   1.806   0.326 -0.1141 -0.0155  0.0491
17012TIP3    H172451   4.722   1.790   0.418 -0.5712 -0.1684 -0.0947
17012TIP3    H272452   4.829   1.853   0.331 -0.1485 -0.0024  0.5447
17013TIP3   OH272453   0.428   0.872  11.606  0.2741 -0.3932 -0.1998
17013TIP3    H172454   0.430   0.942  11.542  0.4764 -1.3098 -1.2246
17013TIP3    H272455   0.474   0.799  11.565 -2.2654 -2.0735 -0.3436
17014TIP3   OH272456   2.897   5.391  14.835 -0.4385 -0.1403 -0.1779
17014TIP3    H172457   2.875   5.399  14.928 -0.9082  1.2812 -0.3952
17014TIP3    H272458   2.888   5.480  14.800  2.7666 -0.0125 -0.9474
17015TIP3   OH272459   6.172   3.366   1.728 -0.2325  0.1792 -0.1103
17015TIP3    H172460   6.175   3.458   1.702  1.2139  0.2077  0.1232
17015TIP3    H272461   6.234   3.359   1.800  0.5814 -1.2268 -0.9096
17016TIP3   OH272462   2.656   5.916  11.503 -0.0511  0.1451 -0.3214
17016TIP3    H172463   2.694   5.854  11.565  0.1706  0.9418  0.3626
17016TIP3    H272464   2.730   5.947  11.452  0.0531  0.7769  0.1896
17017TIP3   OH272465   2.086   4.275   3.776  0.3010  0.0535 -0.2330
17017TIP3    H172466   2.107   4.246   3.687  2.3092  2.8048 -0.7779
17017TIP3    H272467   2.031   4.353   3.764 -1.6054 -1.0022  1.0633
17018TIP3   OH272468   3.881   6.117  16.382  0.8066 -0.1695  0.3201
17018TIP3    H172469   3.964   6.068  16.387  0.6339 -0.7389 -1.4293
17018TIP3    H272470   3.846   6.095  16.295 -1.0879  0.2277  0.9382
17019TIP3   OH272471   1.978   5.373  15.756 -0.3515 -0.3243  0.5986
17019TIP3    H172472   1.970   5.283  15.785 -1.9504 -0.9418 -1.5343
17019TIP3    H272473   2.013   5.420  15.833 -0.5506 -2.5016  2.1093
17020TIP3   OH272474   4.368   3.113  13.131  0.2144  0.0083 -0.2387
17020TIP3    H172475   4.413   3.034  13.098 -0.8220 -0.0870 -1.5180
17020TIP3    H272476   4.344   3.161  13.051  1.8963  2.2847  0.5005
17021TIP3   OH272477   5.662   5.224   1.314 -0.1574 -0.1640  0.4149
17021TIP3    H172478   5.701   5.144   1.278 -2.7828 -0.2732 -2.7067
17021TIP3    H272479   5.726   5.293   1.295  0.7278 -1.0267  0.1827
17022TIP3   OH272480   2.437   2.468  15.785  0.2540  0.0812  1.1208
17022TIP3    H172481   2.497   2.405  15.825  1.9565  1.1712  0.4255
17022TIP3    H272482   2.473   2.482  15.697 -0.5699  1.3539  0.9608
17023TIP3   OH272483   0.069   6.320   2.736  0.5733 -0.9055 -0.3954
17023TIP3    H172484   0.071   6.407   2.775 -0.4793 -0.9039 -0.3119
17023TIP3    H272485   0.069   6.337   2.641 -1.3120 -0.7137 -0.4059
17024TIP3   OH272486   3.315   3.377   0.554  0.3937 -0.3023 -0.4252
17024TIP3    H172487   3.334   3.284   0.566 -1.2691 -0.6432 -0.1237
17024TIP3    H272488   3.329   3.416   0.640 -0.4263 -0.5836 -0.1566
17025TIP3   OH272489   1.548   0.111   4.774 -0.8309 -0.4211  0.1158
17025TIP3    H172490   1.628   0.159   4.753 -0.6539 -0.3181  0.9747
17025TIP3    H272491   1.509   0.090   4.689 -0.3937  0.3693 -0.2857
17026TIP3   OH272492   4.620   0.421   1.419  0.3551 -0.3911  0.3705
17026TIP3    H172493   4.569   0.502   1.419  1.1943  0.1600  1.2596
17026TIP3    H272494   4.633   0.401   1.327  1.3034  1.2566  0.1148
17027TIP3   OH272495   0.129   3.592   5.711  0.6662 -0.2387  0.1564
17027TIP3    H172496   0.129   3.684   5.684  0.9703  0.3248  1.9187
17027TIP3    H272497   0.036   3.570   5.721  0.5045 -0.6800 -1.8792
17028TIP3   OH272498   3.041   0.061  10.220  0.1390 -0.3696  0.7204
17028TIP3    H172499   2.985   0.133  10.192  0.9931  0.2061  0.4597
17028TIP3    H272500   2.981  -0.012  10.234 -0.7722  0.4544  1.2170
17029TIP3   OH272501   3.076   4.993  15.313  0.3331  0.3866  0.2146
17029TIP3    H172502   3.101   4.916  15.364  1.4062  0.4122 -0.2349
17029TIP3    H272503   3.049   4.958  15.228 -2.5023  0.2500  1.0803
17030TIP3   OH272504   6.653   6.368   0.833 -0.3592 -0.0863 -0.1419
17030TIP3    H172505   6.682   6.407   0.751  0.2177  0.9108  0.5120
17030TIP3    H272506   6.711   6.293   0.846 -0.5146 -0.3047 -0.6875
17031TIP3   OH272507   4.834   0.799  15.592  0.6243 -0.2387  0.0161
17031TIP3    H172508   4.928   0.816  15.588  0.2127  2.3738 -2.9024
17031TIP3    H272509   4.793   0.885  15.584 -1.9912 -1.4430 -0.9586
17032TIP3   OH272510   5.833   3.591   2.506 -0.2760 -0.2023  0.0654
17032TIP3    H172511   5.780   3.625   2.578 -0.2935 -0.3911  0.1432
17032TIP3    H272512   5.901   3.539   2.550  1.2561  1.7448  0.1000
17033TIP3   OH272513   6.200   2.529   5.326 -0.4637  0.1798  0.0836
17033TIP3    H172514   6.236   2.601   5.273  0.5324  0.1398  0.6845
17033TIP3    H272515   6.139   2.485   5.267 -0.8010  1.2731 -0.4262
17034TIP3   OH272516   2.727   4.604   0.082 -0.2954 -0.1201 -0.6100
17034TIP3    H172517   2.746   4.520   0.124  0.0679  0.3162  0.1243
17034TIP3    H272518   2.633   4.602   0.066 -0.1437 -1.0518 -1.4766
17035TIP3   OH272519   4.344   3.056  15.068  0.4659 -0.1393 -0.0086
17035TIP3    H172520   4.278   2.992  15.092  1.4634 -0.1979  2.9783
17035TIP3    H272521   4.397   3.013  15.001 -0.2250 -1.5808  0.3462
17036TIP3   OH272522   1.266   5.749  16.011  0.0782 -0.1486 -0.2829
17036TIP3    H172523   1.250   5.711  15.925 -0.4764  0.3049 -0.3799
17036TIP3    H272524   1.228   5.836  16.007 -0.5633 -0.3783  0.6429
17037TIP3   OH272525   0.093   5.218  11.674  0.9621 -0.3368  0.5392
17037TIP3    H172526   0.030   5.178  11.734 -0.3432  0.5396 -0.2029
17037TIP3    H272527   0.042   5.283  11.626  2.2453 -0.2152 -0.7089
17038TIP3   OH272528   5.732   3.381  13.562 -0.3459 -0.2624  0.7150
17038TIP3    H172529   5.641   3.380  13.533 -0.1386  0.7378 -0.0419
17038TIP3    H272530   5.773   3.450  13.509  1.3402 -2.0376 -0.4548
17039TIP3   OH272531   0.920   6.449   4.065 -0.4128  0.8900 -0.0726
17039TIP3    H172532   0.906   6.540   4.092 -0.0115  0.5621  1.3145
17039TIP3    H272533   0.847   6.401   4.104 -0.0849  0.4788  0.0434
17040TIP3   OH272534   2.975   4.765  12.612  0.1831 -0.0917  0.3124
17040TIP3    H172535   2.920   4.737  12.539 -2.5982  2.2979  1.3130
17040TIP3    H272536   2.961   4.859  12.619  0.1926 -0.2016  3.9556
17041TIP3   OH272537   5.768   6.311  14.462  0.1831 -0.2242 -0.0046
17041TIP3    H172538   5.676   6.324  14.486  0.5735 -1.3854  2.3939
17041TIP3    H272539   5.817   6.334  14.541  1.6515 -3.8687  0.3209
17042TIP3   OH272540   0.626   2.886   0.580 -0.0122  0.0082  0.0344
17042TIP3    H172541   0.674   2.804   0.594  0.0665  0.1455  0.6075
17042TIP3    H272542   0.694   2.952   0.570 -0.0786  0.0799  0.0547
17043TIP3   OH272543   1.492   2.768   0.719 -0.2346  0.3073  0.4376
17043TIP3    H172544   1.524   2.843   0.668  0.7004 -0.9260 -0.8659
17043TIP3    H272545   1.560   2.753   0.785 -0.0188  0.0942  0.1671
17044TIP3   OH272546   4.313   5.673  16.915  0.6431  0.5515 -0.4061
17044TIP3    H172547   4.364   5.698  16.838 -0.2098  2.1865 -0.4786
17044TIP3    H272548   4.223   5.670  16.884  0.3564  0.6207  0.3861
17045TIP3   OH272549   6.768   4.355  13.557 -0.5626 -0.3863 -0.1039
17045TIP3    H172550   6.757   4.418  13.629 -1.8747  1.1139 -1.5545
17045TIP3    H272551   6.759   4.407  13.478  1.3283 -1.9231 -1.4227
17046TIP3   OH272552   6.674   1.031  15.356  0.3852 -0.4933  0.0997
17046TIP3    H172553   6.764   1.060  15.337 -0.0193  2.7084  2.1922
17046TIP3    H272554   6.619   1.088  15.302 -0.4220 -0.2119  1.1903
17047TIP3   OH272555   2.020   6.367   5.526  0.0887 -0.4487  0.2009
17047TIP3    H172556   2.015   6.385   5.620  0.2937 -0.4632  0.2166
17047TIP3    H272557   1.936   6.327   5.504 -0.5500  0.8966  0.0788
17048TIP3   OH272558   6.779   4.674  16.962  0.2574 -0.3012  0.0312
17048TIP3    H172559   6.729   4.598  16.991 -0.6963  0.3393  0.1459
17048TIP3    H272560   6.849   4.638  16.908  0.8678 -1.3705  1.4659
17049TIP3   OH272561   3.223   4.065  14.180  0.0333 -0.0192  0.2591
17049TIP3    H172562   3.229   3.987  14.125  0.6740 -0.1123  0.4455
17049TIP3    H272563   3.297   4.119  14.152  0.1967  0.0601  0.8296
17050TIP3   OH272564   3.975   5.850  16.639 -0.1546 -0.3690 -0.5254
17050TIP3    H172565   3.880   5.864  16.637 -0.3025 -1.3666 -1.8177
17050TIP3    H272566   3.997   5.824  16.550  1.3521 -0.1352 -0.2447
17051TIP3   OH272567   0.302   1.916   3.176 -0.2855  0.1985  0.1368
17051TIP3    H172568   0.232   1.870   3.130  2.5052 -2.8495 -1.4716
17051TIP3    H272569   0.281   1.906   3.269 -2.0233 -0.5299 -0.3052
17052TIP3   OH272570   1.388   2.662   4.109  0.4792  0.4083  0.1174
17052TIP3    H172571   1.307   2.696   4.149 -0.7087 -2.2291  0.2251
17052TIP3    H272572   1.366   2.652   4.017  0.8825  0.1988  0.0458
17053TIP3   OH272573   1.730   0.045   3.424  0.0800  0.4373  0.2207
17053TIP3    H172574   1.640   0.018   3.403 -0.5000  2.7043 -0.5377
17053TIP3    H272575   1.719   0.117   3.486  1.5888 -1.8312  3.3759
17054TIP3   OH272576   1.991   3.376  14.685 -0.1697  0.4174 -0.0601
17054TIP3    H172577   2.008   3.468  14.665  1.6041  0.5495  1.7014
17054TIP3    H272578   2.014   3.367  14.778 -2.4747 -1.3255  0.4372
17055TIP3   OH272579   0.293   2.894   4.891 -0.5271 -0.2454 -0.1096
17055TIP3    H172580   0.243   2.905   4.810 -2.2383 -1.2781  0.7316
17055TIP3    H272581   0.324   2.982   4.912 -1.1140  0.2561 -1.2438
17056TIP3   OH272582   5.884   6.510  11.322  0.1921  0.2538  0.2142
17056TIP3    H172583   5.924   6.469  11.399  0.5306 -1.5084 -0.8410
17056TIP3    H272584   5.821   6.572  11.358  0.4849 -0.3749  1.9056
17057TIP3   OH272585   5.284   0.856  10.734  0.0599  0.7758 -0.2905
17057TIP3    H172586   5.335   0.775  10.728 -0.1436  0.6787 -0.7536
17057TIP3    H272587   5.339   0.915  10.787 -0.8856 -0.4981  2.3004
17058TIP3   OH272588   0.326   0.839  17.128 -1.1142  0.0424 -0.3476
17058TIP3    H172589   0.231   0.847  17.127 -1.2778 -0.8630  1.7294
17058TIP3    H272590   0.350   0.858  17.219  0.5270 -1.0444 -0.5180
17059TIP3   OH272591   3.353   6.618  16.362 -1.0843 -0.2273 -0.3277
17059TIP3    H172592   3.329   6.548  16.422  2.3480 -2.3448 -1.1452
17059TIP3    H272593   3.371   6.693  16.419  0.8337 -1.8013  1.2950
17060TIP3   OH272594   6.304   0.269  11.910  0.0473 -0.4601  0.2828
17060TIP3    H172595   6.273   0.290  11.822 -0.7000  2.1910  1.0869
17060TIP3    H272596   6.399   0.278  11.905  0.4213 -3.5573 -0.9357
17061TIP3   OH272597   6.568   5.369   2.235  0.2537 -0.0197 -0.3068
17061TIP3    H172598   6.598   5.455   2.264  0.5069 -0.1236 -0.2586
17061TIP3    H272599   6.560   5.318   2.315  1.1887 -0.3799 -0.4343
17062TIP3   OH272600   1.632   4.177   5.128  0.6527  0.2069 -0.4776
17062TIP3    H172601   1.588   4.215   5.204 -1.5007 -0.0792 -1.5340
17062TIP3    H272602   1.694   4.114   5.166  1.4070  1.8031  1.1053
17063TIP3   OH272603   1.162   2.828   5.156 -0.2925  0.2502  0.6181
17063TIP3    H172604   1.228   2.760   5.172 -0.9164 -0.2613  1.0835
17063TIP3    H272605   1.125   2.807   5.071  2.1705  2.2576 -1.0864
17064TIP3   OH272606   6.201   4.273  12.565 -0.1275 -0.4014  0.5455
17064TIP3    H172607   6.137   4.218  12.520 -1.4256  0.7306  0.9228
17064TIP3    H272608   6.167   4.362  12.555  0.9685  0.1492  1.4647
17065TIP3   OH272609   4.862   0.984  16.419 -0.1832  0.1035  0.3496
17065TIP3    H172610   4.918   0.930  16.363  0.8550  0.8577  0.6187
17065TIP3    H272611   4.786   0.929  16.437  0.3690 -0.8793 -0.1987
17066TIP3   OH272612   4.791   3.960  13.004  0.1852 -0.5399  0.0791
17066TIP3    H172613   4.799   3.865  12.994  0.0905 -0.6906  1.3446
17066TIP3    H272614   4.880   3.989  13.024  0.0035 -0.5209  0.8798
17067TIP3   OH272615   5.622   0.971   0.717  0.2351  0.3850 -0.3008
17067TIP3    H172616   5.708   0.933   0.701  0.6152  1.5695 -1.1906
17067TIP3    H272617   5.628   1.009   0.805  0.7338  0.7311 -0.4781
17068TIP3   OH272618   0.423   6.770  12.183 -0.4727  0.2363  0.0386
17068TIP3    H172619   0.444   6.713  12.109  1.2671  1.4713 -0.4898
17068TIP3    H272620   0.354   6.827  12.151 -1.1762 -0.5920  0.0725
17069TIP3   OH272621   0.429   2.269   1.340 -0.1082  0.1594  0.6096
17069TIP3    H172622   0.502   2.307   1.388 -0.8013 -0.2651  2.0453
17069TIP3    H272623   0.388   2.344   1.296  1.3848  0.3407 -0.5272
17070TIP3   OH272624   1.873   4.629   3.146  0.5685  0.0196 -0.1110
17070TIP3    H172625   1.853   4.548   3.100  2.6953 -0.7896  0.2691
17070TIP3    H272626   1.957   4.657   3.110  0.3236  1.5725  0.4221
17071TIP3   OH272627   4.332   2.849   2.458  0.0325  0.0660  0.0092
17071TIP3    H172628   4.259   2.788   2.446  0.3720 -0.4292  0.4540
17071TIP3    H272629   4.407   2.793   2.479  0.4855  0.5918 -0.1875
17072TIP3   OH272630   0.604   3.311   4.906  0.6604 -0.1027  0.0619
17072TIP3    H172631   0.603   3.400   4.870 -1.2137 -0.0662  0.1272
17072TIP3    H272632   0.649   3.319   4.990  0.8876  0.7005 -0.1322
17073TIP3   OH272633   3.021   2.219  12.836  0.1995 -0.6673  0.1828
17073TIP3    H172634   2.936   2.194  12.800  0.9239  1.2308 -3.2728
17073TIP3    H272635   2.999   2.268  12.915 -1.6004 -3.6264  1.7114
17074TIP3   OH272636   0.024   6.147   2.934 -0.1788  0.2011 -0.2882
17074TIP3    H172637   0.055   6.195   2.857 -1.1180  0.0079 -0.8099
17074TIP3    H272638  -0.006   6.215   2.994 -0.5735  0.3161 -0.6074
17075TIP3   OH272639   2.763   1.267   6.249 -0.1364  0.5960  0.0574
17075TIP3    H172640   2.846   1.246   6.206  0.5246  1.2291  0.9757
17075TIP3    H272641   2.714   1.185   6.248  0.8593 -0.0215  0.2621
17076TIP3   OH272642   2.037   2.667  15.529  0.0748 -0.0079  0.1710
17076TIP3    H172643   2.065   2.579  15.552 -0.9258  0.0825  1.9193
17076TIP3    H272644   2.100   2.725  15.571 -1.6670  0.1541  2.7935
17077TIP3   OH272645   1.525   6.382   3.800  0.2195  0.7012  0.0092
17077TIP3    H172646   1.537   6.288   3.814 -0.5834  0.8503  1.9702
17077TIP3    H272647   1.611   6.420   3.819  0.6430  0.3448 -1.1461
17078TIP3   OH272648   4.863   1.209  12.955 -0.4087 -0.0699  0.1074
17078TIP3    H172649   4.941   1.177  12.909  0.4222  2.6345 -0.6128
17078TIP3    H272650   4.793   1.203  12.891  0.2258  1.4791 -0.7879
17079TIP3   OH272651   0.362   6.467   5.376 -0.1831 -0.1591  0.6163
17079TIP3    H172652   0.413   6.540   5.412  2.1768 -2.2035  1.7614
17079TIP3    H272653   0.313   6.505   5.303  2.5145  2.1527 -0.1650
17080TIP3   OH272654   1.378   0.241  15.370  0.1725 -0.4701 -0.2229
17080TIP3    H172655   1.336   0.224  15.454 -1.3795 -1.5133 -1.1596
17080TIP3    H272656   1.471   0.223  15.386 -0.2225 -1.5272  1.0559
17081TIP3   OH272657   0.040   4.340  14.992 -0.2734  0.2454  0.0111
17081TIP3    H172658   0.016   4.311  14.904 -0.0002  0.6428 -0.1975
17081TIP3    H272659  -0.011   4.420  15.006 -0.1037  0.3389  0.1008
17082TIP3   OH272660   0.804   4.743  12.224 -0.0359 -0.3535  0.3023
17082TIP3    H172661   0.779   4.651  12.226 -0.8770 -0.2117 -1.7702
17082TIP3    H272662   0.775   4.777  12.309  2.7196 -2.5145  2.2819
17083TIP3   OH272663   5.229   3.266  12.206  0.0437  0.1793  0.1119
17083TIP3    H172664   5.305   3.320  12.224  0.3549 -0.4584  0.7780
17083TIP3    H272665   5.202   3.290  12.118  1.0048  0.4208 -0.1262
17084TIP3   OH272666   0.960   1.396   4.096  0.1538  0.6673 -1.1831
17084TIP3    H172667   0.913   1.431   4.021  0.0968 -1.8803 -2.4624
17084TIP3    H272668   1.043   1.365   4.061  0.2414 -0.3384 -0.1795
17085TIP3   OH272669   1.998   5.477  11.359  0.5528  0.2901 -0.8244
17085TIP3    H172670   1.929   5.444  11.301 -0.1250 -0.0340  0.1509
17085TIP3    H272671   2.028   5.557  11.316 -0.8541  0.7695 -0.9655
17086TIP3   OH272672   6.101   2.925  12.069 -0.0767 -0.2396 -0.1923
17086TIP3    H172673   6.190   2.957  12.083 -0.2861  0.7472 -1.0289
17086TIP3    H272674   6.044   2.999  12.088 -0.8481 -1.2058  1.5730
17087TIP3   OH272675   5.951   3.108  13.293  0.3925  0.0375 -0.3418
17087TIP3    H172676   5.948   3.045  13.366  1.0257  2.6259  2.0698
17087TIP3    H272677   5.876   3.084  13.239 -0.5046 -1.6050  1.4857
17088TIP3   OH272678   2.375   2.998  12.985 -0.0869 -0.4306  0.6304
17088TIP3    H172679   2.332   2.923  12.945  0.5726 -0.2629 -0.4275
17088TIP3    H272680   2.370   3.067  12.919  0.0430  0.2017  1.2678
17089TIP3   OH272681   2.484   4.204   4.184  0.0173  0.4097 -0.3461
17089TIP3    H172682   2.555   4.170   4.130  1.1583 -0.1317  1.3914
17089TIP3    H272683   2.453   4.128   4.233 -0.6225  0.9801  0.1550
17090TIP3   OH272684   4.630   3.686  10.978  0.8962 -0.3742  0.1618
17090TIP3    H172685   4.638   3.774  11.014  1.9624 -0.3113 -0.1927
17090TIP3    H272686   4.563   3.694  10.910  0.7419  0.0826  0.3662
17091TIP3   OH272687   5.524   3.686   5.570 -0.0737  0.0887 -0.1493
17091TIP3    H172688   5.443   3.660   5.527 -0.7542  1.3185  0.3578
17091TIP3    H272689   5.503   3.768   5.614  1.1862 -0.0671  0.7919
17092TIP3   OH272690   0.723   4.633  13.450 -0.4579 -0.4963  1.0625
17092TIP3    H172691   0.817   4.618  13.437 -0.2330 -0.2902  2.3561
17092TIP3    H272692   0.682   4.548  13.433  0.0118 -0.7051  0.9641
17093TIP3   OH272693   1.699   5.936  13.194  0.3050 -0.1248 -1.0668
17093TIP3    H172694   1.720   5.912  13.104 -3.1934 -0.0965 -2.0522
17093TIP3    H272695   1.649   5.861  13.227 -0.8467  0.9950 -0.1700
17094TIP3   OH272696   3.255   6.237  13.053  0.4395 -0.5997 -0.0275
17094TIP3    H172697   3.266   6.144  13.033 -0.3930 -0.4642 -1.2424
17094TIP3    H272698   3.247   6.279  12.968  1.6147  0.7140  0.4853
17095TIP3   OH272699   3.232   4.882  16.105  0.4966 -0.4596  0.0189
17095TIP3    H172700   3.222   4.957  16.162  1.1900 -0.7083  0.4816
17095TIP3    H272701   3.143   4.850  16.091  0.2689 -0.0121  0.4301
17096TIP3   OH272702   3.000   4.264  16.982 -0.1577  0.3195  0.3893
17096TIP3    H172703   2.953   4.186  17.010 -0.5077  0.2389 -0.4012
17096TIP3    H272704   3.025   4.246  16.892 -0.8546  1.4010 -0.0416
17097TIP3   OH272705   3.455   5.040   1.790  0.1237 -0.4286  0.1997
17097TIP3    H172706   3.431   4.953   1.756  0.5474 -0.6393  0.4282
17097TIP3    H272707   3.488   5.087   1.714 -0.7699 -0.2134 -0.0751
17098TIP3   OH272708   3.343   1.248   5.911  0.6494 -0.1118  0.5255
17098TIP3    H172709   3.371   1.332   5.875 -0.9391  1.9276  3.6901
17098TIP3    H272710   3.278   1.215   5.848  0.4502  1.5985 -0.2042
17099TIP3   OH272711   4.116   3.346   0.360  0.2573 -0.2260  0.0992
17099TIP3    H172712   4.107   3.343   0.265  0.4329 -0.8903  0.0990
17099TIP3    H272713   4.027   3.338   0.393  0.3803 -2.3184  0.0193
17100TIP3   OH272714   2.632   1.511  12.080 -0.3196 -0.2029  0.2596
17100TIP3    H172715   2.622   1.417  12.094 -0.9165 -0.1796  0.0353
17100TIP3    H272716   2.542   1.543  12.072 -0.1186  0.3822  0.3146
17101TIP3   OH272717   4.776   2.503  13.861 -0.0599 -0.1799  0.0002
17101TIP3    H172718   4.856   2.449  13.864  0.9032  1.1521 -0.8118
17101TIP3    H272719   4.713   2.449  13.814  1.5211  0.1215 -2.6493
17102TIP3   OH272720   3.389   3.420  13.406 -0.1216 -0.0501 -0.0636
17102TIP3    H172721   3.330   3.490  13.433 -0.0413 -0.5946  1.6225
17102TIP3    H272722   3.335   3.365  13.348 -1.1457 -0.2562  1.0427
17103TIP3   OH272723   1.961   4.537   3.911  0.4594  0.2654 -0.3623
17103TIP3    H172724   2.000   4.618   3.877  0.4462  1.6955  2.7377
17103TIP3    H272725   2.025   4.504   3.974 -0.2703 -1.2706 -0.3782
17104TIP3   OH272726   1.437   0.986   4.750  0.1550  0.7612  0.1291
17104TIP3    H172727   1.412   1.071   4.785  0.4604  1.1296 -0.5150
17104TIP3    H272728   1.364   0.928   4.770 -0.6430  1.5003 -0.5955
17105TIP3   OH272729   3.661   1.951  10.851 -0.0551  0.3612 -0.0162
17105TIP3    H172730   3.661   2.036  10.895 -0.5192  0.5528 -0.3760
17105TIP3    H272731   3.750   1.943  10.816 -0.3214  1.2194 -0.9467
17106TIP3   OH272732   3.932   0.403  13.492  0.0043 -0.0631  0.5713
17106TIP3    H172733   3.991   0.433  13.561  2.0210  2.5247 -2.0231
17106TIP3    H272734   3.889   0.482  13.461  0.1249 -0.8710 -1.9036
17107TIP3   OH272735   5.781   1.448  11.392  0.3321 -0.2700 -0.7472
17107TIP3    H172736   5.687   1.467  11.389  0.5184  0.6154 -2.2040
17107TIP3    H272737   5.787   1.354  11.372 -0.2994 -0.7211  0.9945
17108TIP3   OH272738   3.454   4.201  14.090  0.4826 -0.5163 -0.4047
17108TIP3    H172739   3.501   4.227  14.169  1.8467  0.2163 -1.4140
17108TIP3    H272740   3.504   4.127  14.055  1.8275  1.1191 -2.2264
17109TIP3   OH272741   5.815   2.909  11.629  0.2936 -0.2496  0.4045
17109TIP3    H172742   5.850   2.844  11.567 -2.5854 -0.8167 -0.7811
17109TIP3    H272743   5.776   2.977  11.573 -1.6500 -0.3520  1.5489
17110TIP3   OH272744   6.589   5.486   2.752 -0.6157  0.6848  0.0759
17110TIP3    H172745   6.650   5.457   2.684 -1.6355 -1.1090 -0.1327
17110TIP3    H272746   6.506   5.444   2.729 -1.3053  1.0890  1.7087
17111TIP3   OH272747   3.407   2.067   4.943  0.2312 -0.1793  0.5805
17111TIP3    H172748   3.370   1.989   4.902 -0.0683 -0.1675  0.8224
17111TIP3    H272749   3.334   2.130   4.945  0.6896  0.4061 -0.3619
17112TIP3   OH272750   1.412   6.766   2.839 -0.5886  0.7535 -0.0554
17112TIP3    H172751   1.384   6.737   2.752 -0.1571 -1.8850  0.6058
17112TIP3    H272752   1.350   6.725   2.900  1.9352 -1.6548  1.1317
17113TIP3   OH272753   5.262   4.424   6.051  0.0681 -0.1183 -0.3706
17113TIP3    H172754   5.186   4.444   5.995 -0.1740 -0.0386 -0.0171
17113TIP3    H272755   5.327   4.490   6.027 -0.1850  0.1712 -0.2680
17114TIP3   OH272756   2.857   4.990   2.061  0.7733 -0.4306 -0.2742
17114TIP3    H172757   2.864   4.921   2.127  1.3338  1.8572  2.2128
17114TIP3    H272758   2.946   4.999   2.026  0.6454 -1.0750 -0.8024
17115TIP3   OH272759   1.950   3.089   0.100 -0.1118 -0.5258  0.0721
17115TIP3    H172760   1.878   3.135   0.142 -1.1276  0.1305 -2.2063
17115TIP3    H272761   1.998   3.048   0.172  0.3512  3.2732  2.2005
17116TIP3   OH272762   4.997   1.268   0.708 -0.3352  0.1744 -0.0664
17116TIP3    H172763   4.943   1.213   0.651  0.2382 -1.2230  0.7008
17116TIP3    H272764   5.086   1.257   0.674 -0.3781  1.8873 -0.8654
17117TIP3   OH272765   2.294   0.224   4.963 -0.1745  0.1569 -0.1868
17117TIP3    H172766   2.199   0.223   4.975 -0.0930  1.9455  0.8871
17117TIP3    H272767   2.314   0.314   4.939  1.2634 -0.1787 -0.3062
17118TIP3   OH272768   3.630   4.127   5.127  0.0959 -0.2802  0.1983
17118TIP3    H172769   3.536   4.122   5.111 -0.0502  0.9649  0.5369
17118TIP3    H272770   3.638   4.190   5.198  1.2194  0.0361 -0.1946
17119TIP3   OH272771   6.500   3.764  13.998  0.1596  0.1429 -0.4040
17119TIP3    H172772   6.559   3.752  13.923  0.3909  1.7750 -0.5162
17119TIP3    H272773   6.514   3.854  14.026  0.2784 -0.5045  1.8116
17120TIP3   OH272774   3.779   2.260   0.953  0.5543  0.2854 -0.2881
17120TIP3    H172775   3.869   2.266   0.921  0.3334  1.0885 -0.7790
17120TIP3    H272776   3.724   2.271   0.876  0.0002  3.3633  0.3933
17121TIP3   OH272777   1.137   4.316   1.855  0.6973  0.5223  0.4665
17121TIP3    H172778   1.214   4.311   1.798  0.1317  0.0239 -0.2819
17121TIP3    H272779   1.137   4.233   1.902 -0.4968 -0.3994 -1.0564
17122TIP3   OH272780   2.833   1.216   5.368 -0.1828 -0.4271  0.5239
17122TIP3    H172781   2.779   1.142   5.341  0.2781  0.1600 -2.4279
17122TIP3    H272782   2.775   1.292   5.358  0.2796 -0.0963  0.3242
17123TIP3   OH272783   4.730   1.493  15.966  0.1755 -0.6576 -0.7889
17123TIP3    H172784   4.717   1.585  15.944 -3.3846 -0.9783 -0.6804
17123TIP3    H272785   4.751   1.451  15.882  1.7491  0.1857 -0.8487
17124TIP3   OH272786   2.097   3.373   0.930 -0.0469 -0.0337  0.1928
17124TIP3    H172787   2.051   3.345   0.851 -1.8855 -0.0655  1.2229
17124TIP3    H272788   2.050   3.451   0.959  0.1137 -0.4431  1.6474
17125TIP3   OH272789   3.085   3.746   5.462 -0.2871 -0.2307  0.3105
17125TIP3    H172790   2.994   3.727   5.487 -0.1462  1.0108  1.9033
17125TIP3    H272791   3.088   3.842   5.454  0.9665 -0.2212  0.6865
17126TIP3   OH272792   6.083   3.760   4.789  0.0970  0.0361 -0.4525
17126TIP3    H172793   6.094   3.852   4.816 -0.2487 -0.3065  0.9284
17126TIP3    H272794   6.105   3.709   4.867  2.1385 -1.1635 -1.7337
17127TIP3   OH272795   4.144   2.977   2.672  1.1632 -0.4936 -0.2808
17127TIP3    H172796   4.134   2.898   2.619 -0.2180  1.0305 -2.4292
17127TIP3    H272797   4.230   3.011   2.650  0.6349  0.0799 -1.5444
17128TIP3   OH272798   2.727   1.400   0.150 -0.0664  0.7377  0.1527
17128TIP3    H172799   2.703   1.383   0.241  0.0663 -1.3042 -0.1494
17128TIP3    H272800   2.646   1.431   0.109 -0.2400  1.2216  0.8508
17129TIP3   OH272801   6.702   3.093   0.609 -0.0417 -0.1604  0.8539
17129TIP3    H172802   6.612   3.112   0.633  0.0447  1.4604  0.0879
17129TIP3    H272803   6.699   3.005   0.572 -0.5951 -1.6962  4.1974
17130TIP3   OH272804   2.468   0.288   0.296 -0.8886 -0.3932 -0.0069
17130TIP3    H172805   2.410   0.361   0.317 -1.4165 -0.9470  0.4760
17130TIP3    H272806   2.439   0.259   0.209 -1.1725 -0.5035  0.1225
17131TIP3   OH272807   4.080   5.390  14.130 -0.1425  0.0994 -0.0524
17131TIP3    H172808   4.135   5.311  14.129 -0.4937 -0.1623  0.8505
17131TIP3    H272809   4.143   5.462  14.124  0.2577 -0.2165  0.2466
17132TIP3   OH272810   5.028   3.351   3.120  0.0503  0.2901 -0.1464
17132TIP3    H172811   5.046   3.444   3.105 -2.1120  0.8073  0.1853
17132TIP3    H272812   5.068   3.306   3.045  0.6502  1.5193 -0.5887
17133TIP3   OH272813   1.136   0.799   4.064  0.3707 -0.4258  0.4534
17133TIP3    H172814   1.202   0.785   3.996  0.6042  3.1570 -0.2621
17133TIP3    H272815   1.053   0.771   4.023  0.8878 -1.1323 -0.1405
17134TIP3   OH272816   5.516   4.562  12.510  0.1568 -0.2055 -0.1041
17134TIP3    H172817   5.601   4.603  12.522  0.1916  0.0242 -1.0731
17134TIP3    H272818   5.469   4.580  12.592  1.0698 -0.4457  0.4922
17135TIP3   OH272819   3.089   4.146  15.486 -0.1335 -0.5363  0.1313
17135TIP3    H172820   3.151   4.076  15.510  3.3444  2.5056  0.8822
17135TIP3    H272821   3.062   4.184  15.569 -0.0166  0.5487 -0.3147
17136TIP3   OH272822   6.510   1.014   2.566 -0.4068 -0.2772  0.2886
17136TIP3    H172823   6.552   0.933   2.593  0.2494  0.3014  1.0628
17136TIP3    H272824   6.445   1.031   2.635 -0.4150 -0.0585  0.2292
17137TIP3   OH272825   5.309   1.852   6.726 -0.1915  0.1453 -1.0015
17137TIP3    H172826   5.375   1.783   6.727  0.2693  0.3992  2.7633
17137TIP3    H272827   5.230   1.811   6.761  0.2153  1.4709  1.7402
17138TIP3   OH272828   3.842   2.885  11.716 -0.4334 -0.1460  0.1106
17138TIP3    H172829   3.835   2.924  11.629  1.2681  0.3849  0.1701
17138TIP3    H272830   3.836   2.791  11.701 -0.8488 -0.0315 -0.4854
17139TIP3   OH272831   1.182   2.054   2.366 -0.2122 -0.1937  0.2045
17139TIP3    H172832   1.111   2.055   2.302 -0.9102  0.9914  0.9640
17139TIP3    H272833   1.250   1.999   2.326 -0.9420 -0.1103 -1.1990
17140TIP3   OH272834   1.672   4.397   4.934  0.4651  0.0156 -0.1863
17140TIP3    H172835   1.715   4.410   5.019 -1.9576  0.1069  1.1055
17140TIP3    H272836   1.612   4.324   4.949 -1.3114  1.1733 -1.2859
17141TIP3   OH272837   3.073   0.609  14.294  0.0029  0.7400  0.0254
17141TIP3    H172838   3.122   0.680  14.252  0.7647  1.7687  2.4750
17141TIP3    H272839   2.994   0.652  14.328 -0.4752 -0.0041 -0.1335
17142TIP3   OH272840   6.057   3.194   1.971 -0.0072 -0.1016 -0.8220
17142TIP3    H172841   6.124   3.146   2.020 -0.0009 -2.1927 -2.6789
17142TIP3    H272842   5.979   3.191   2.026  0.5529 -0.4899 -0.0293
17143TIP3   OH272843   5.168   1.464  13.639 -0.4339 -0.2117 -0.1973
17143TIP3    H172844   5.112   1.520  13.585  0.4200  1.2577  0.3967
17143TIP3    H272845   5.153   1.494  13.729  0.7181 -0.3227  0.0483
17144TIP3   OH272846   4.953   1.600  13.495  0.5603 -0.5629  0.3266
17144TIP3    H172847   4.980   1.674  13.441  1.0138 -0.1277  1.1496
17144TIP3    H272848   4.886   1.556  13.442  1.0351 -0.1769 -0.6130
17145TIP3   OH272849   2.862   5.389   4.721 -0.2946 -0.2693 -0.0938
17145TIP3    H172850   2.873   5.366   4.628 -0.5545  1.1614 -0.4996
17145TIP3    H272851   2.948   5.420   4.748  0.1323 -1.9063  0.5331
17146TIP3   OH272852   2.002   3.314   5.142 -0.0618  0.9794 -0.0986
17146TIP3    H172853   1.931   3.317   5.207 -0.6998  0.9833 -0.7828
17146TIP3    H272854   1.958   3.296   5.059  0.8471 -0.1523 -0.3700
17147TIP3   OH272855   4.158   4.212  13.548  0.4174  0.4741  0.2905
17147TIP3    H172856   4.111   4.129  13.536  1.3389 -0.0623  0.2739
17147TIP3    H272857   4.125   4.246  13.631  0.0095  0.0980  0.2858
17148TIP3   OH272858   2.032   3.919  15.510  0.4081  0.0818  0.4241
17148TIP3    H172859   1.941   3.937  15.485  0.2453  0.1896  1.0562
17148TIP3    H272860   2.082   3.992  15.473  0.1401  0.3651  0.6101
17149TIP3   OH272861   5.377   4.608  11.080  0.7777 -0.0677  0.1899
17149TIP3    H172862   5.325   4.688  11.085  0.9132 -0.0328  1.3475
17149TIP3    H272863   5.314   4.539  11.060  0.1492 -0.1096  2.1132
17150TIP3   OH272864   0.018   6.188  16.875  0.0004 -0.1033 -0.4665
17150TIP3    H172865   0.044   6.247  16.805 -0.2323  0.0510 -0.4233
17150TIP3    H272866   0.038   6.236  16.956 -2.2054  0.8608 -0.4039
17151TIP3   OH272867   4.775   1.115  14.672  0.4734 -0.4780 -0.1090
17151TIP3    H172868   4.683   1.144  14.667  0.3210 -0.7502  0.8455
17151TIP3    H272869   4.801   1.134  14.762  1.2810 -0.6426 -0.2992
17152TIP3   OH272870   6.713   6.606   5.389  0.2761 -0.3846 -0.1396
17152TIP3    H172871   6.758   6.527   5.360  0.7020 -0.4873  0.7609
17152TIP3    H272872   6.783   6.664   5.420 -0.1072 -0.0539  0.1262
17153TIP3   OH272873   3.326   5.862   5.029  0.2596  0.4028  0.5623
17153TIP3    H172874   3.330   5.902   4.942 -0.6286 -0.0077  0.3211
17153TIP3    H272875   3.327   5.768   5.011  0.4589  0.3177  1.0223
17154TIP3   OH272876   4.365   1.246  14.133 -0.2024 -0.0261 -0.4105
17154TIP3    H172877   4.336   1.323  14.181 -0.7290  0.0015 -0.7671
17154TIP3    H272878   4.285   1.202  14.107  0.0968 -1.4937  1.0236
17155TIP3   OH272879   3.648   3.979   3.021  0.1740  0.0839  0.0970
17155TIP3    H172880   3.639   4.001   2.928 -1.5970  0.2415  0.2839
17155TIP3    H272881   3.740   3.997   3.040  0.7449 -0.5942 -1.7758
17156TIP3   OH272882   1.412   6.461   0.657  0.3133 -0.1600  0.3628
17156TIP3    H172883   1.474   6.415   0.601 -0.8301 -0.8399 -0.3688
17156TIP3    H272884   1.331   6.463   0.607 -1.1806 -2.0740  2.5488
17157TIP3   OH272885   2.630   6.732  15.963 -0.8542  0.3720  0.1169
17157TIP3    H172886   2.582   6.651  15.948 -1.1808  0.2967  1.3932
17157TIP3    H272887   2.587   6.797  15.909 -3.1538  0.5574  2.0082
17158TIP3   OH272888   1.625   0.281   6.323  0.0445 -0.0737  0.0744
17158TIP3    H172889   1.667   0.298   6.407 -2.7583  0.2521  1.5219
17158TIP3    H272890   1.555   0.218   6.343 -1.2186  0.6210 -1.8320
17159TIP3   OH272891   6.189   5.757  10.811 -0.0888 -0.5246 -0.4995
17159TIP3    H172892   6.240   5.743  10.731 -1.1075 -0.3310 -1.2094
17159TIP3    H272893   6.101   5.778  10.779 -0.2269  0.7781  0.6428
17160TIP3   OH272894   2.726   6.185   3.435  0.1735  0.5672 -0.6675
17160TIP3    H172895   2.814   6.194   3.470  0.3611  2.5569 -1.5093
17160TIP3    H272896   2.683   6.121   3.492  2.0794 -0.2878 -0.1334
17161TIP3   OH272897   3.759   5.529   4.288 -0.8260 -0.1579 -0.2469
17161TIP3    H172898   3.737   5.467   4.358 -1.8964 -1.3428 -1.5608
17161TIP3    H272899   3.693   5.513   4.221  0.8003  0.1563 -1.9977
17162TIP3   OH272900   1.266   0.151  14.442 -0.2733  0.4431 -0.4678
17162TIP3    H172901   1.340   0.132  14.500 -0.0546  2.0644 -0.1837
17162TIP3    H272902   1.292   0.112  14.358  0.2106 -0.3397  0.0273
17163TIP3   OH272903   3.419   0.830   6.341  0.3172  0.3368  0.3776
17163TIP3    H172904   3.411   0.790   6.428  0.8419  0.7124  0.6024
17163TIP3    H272905   3.380   0.766   6.282 -1.5437  0.7634  1.0579
17164TIP3   OH272906   3.115   6.304  14.235 -0.2032  1.2652  0.4297
17164TIP3    H172907   3.174   6.277  14.305 -1.1258 -2.4817 -0.0576
17164TIP3    H272908   3.031   6.317  14.278 -0.1204  1.9555  0.4042
17165TIP3   OH272909   0.315   6.374  11.279 -0.2619 -0.0038 -0.0020
17165TIP3    H172910   0.224   6.401  11.269 -0.4110 -0.7729 -0.9295
17165TIP3    H272911   0.314   6.311  11.351 -0.4789 -0.0358 -0.0318
17166TIP3   OH272912   3.347   4.125   0.051 -0.0649 -0.3719 -0.4284
17166TIP3    H172913   3.415   4.099   0.113 -0.1228 -1.9048 -0.9728
17166TIP3    H272914   3.265   4.102   0.095 -0.2639  1.1187  0.0640
17167TIP3   OH272915   6.717   0.072   3.151 -0.6666  0.1790  0.2560
17167TIP3    H172916   6.671   0.065   3.235 -1.3495 -1.5899 -0.2238
17167TIP3    H272917   6.756  -0.014   3.138 -0.5530  0.4359 -1.2423
17168TIP3   OH272918   6.239   4.649  15.635  0.5021 -0.1572 -0.4124
17168TIP3    H172919   6.211   4.658  15.544  0.4058 -2.3397 -0.6648
17168TIP3    H272920   6.165   4.607  15.679 -0.8787  3.8951  1.6039
17169TIP3   OH272921   1.356   0.074  14.190  0.1198  0.1012 -0.0513
17169TIP3    H172922   1.395  -0.012  14.178 -0.3133 -0.8786  4.1043
17169TIP3    H272923   1.416   0.134  14.147  1.5456 -2.0701 -1.2668
17170TIP3   OH272924   0.044   1.732  17.056 -0.1679 -0.4877  0.4557
17170TIP3    H172925   0.100   1.774  17.120 -0.5998 -1.9522  1.8636
17170TIP3    H272926   0.059   1.638  17.068 -1.4945 -0.8549 -0.4463
17171TIP3   OH272927   5.540   5.932   5.471  0.4209  0.1724 -0.8067
17171TIP3    H172928   5.565   6.017   5.433 -2.2029  0.7657 -1.4058
17171TIP3    H272929   5.458   5.950   5.517  1.8557 -1.2159  2.6511
17172TIP3   OH272930   4.837   4.069  15.623 -0.3558  0.5788  0.2935
17172TIP3    H172931   4.819   4.115  15.541 -1.8275  0.1235  0.3346
17172TIP3    H272932   4.932   4.053  15.621 -0.2617  1.1443 -0.9973
17173TIP3   OH272933   3.047   4.829  15.066  0.2331  0.3874 -0.0002
17173TIP3    H172934   3.005   4.782  15.138 -2.1490  1.1964 -0.7579
17173TIP3    H272935   3.109   4.766  15.029 -1.6870 -1.6348  0.0273
17174TIP3   OH272936   6.032   1.145  13.793  0.2747 -0.3760 -0.2413
17174TIP3    H172937   6.119   1.174  13.822  0.0716  1.4345 -1.3009
17174TIP3    H272938   6.046   1.113  13.704 -0.3612  1.5194 -1.0797
17175TIP3   OH272939   3.183   0.857   5.742  0.1102 -0.7652  0.5387
17175TIP3    H172940   3.111   0.914   5.715  0.6973  0.3294  1.2230
17175TIP3    H272941   3.150   0.768   5.727 -1.9369 -0.3521  2.1812
17176TIP3   OH272942   1.258   6.274  14.639 -0.1832 -0.5914 -0.0230
17176TIP3    H172943   1.325   6.226  14.591 -0.1867  1.3988 -2.1584
17176TIP3    H272944   1.178   6.223  14.626  0.3764 -1.6109  0.3892
17177TIP3   OH272945   2.492   2.359   4.190 -0.6143 -0.0357 -0.5086
17177TIP3    H172946   2.444   2.426   4.141  1.7983  0.8659 -1.8274
17177TIP3    H272947   2.571   2.343   4.138  0.9933 -0.7417  1.9556
17178TIP3   OH272948   3.780   2.123  12.452 -0.4677 -0.2340  0.4592
17178TIP3    H172949   3.850   2.079  12.500 -0.6458 -0.6623  0.3310
17178TIP3    H272950   3.739   2.181  12.517 -1.5812 -1.8046  1.2115
17179TIP3   OH272951   0.786   1.066   3.993 -0.4950  0.7692 -0.2074
17179TIP3    H172952   0.880   1.054   3.980 -0.4794  1.5322 -0.9554
17179TIP3    H272953   0.768   1.030   4.080  0.2307 -0.6720 -0.6147
17180TIP3   OH272954   5.127   0.874   5.023 -0.4817 -0.3532 -0.1703
17180TIP3    H172955   5.155   0.966   5.023  0.9453 -0.7258 -1.9604
17180TIP3    H272956   5.032   0.878   5.020 -0.4242  1.1013 -0.9861
17181TIP3   OH272957   4.013   6.656  14.045  0.7227  0.0240  0.1394
17181TIP3    H172958   3.994   6.564  14.023  1.4974 -0.2605  0.6179
17181TIP3    H272959   3.928   6.699  14.044  0.2155 -0.9224  0.8986
17182TIP3   OH272960   0.140   1.149  15.377  0.3423 -0.0012 -0.6242
17182TIP3    H172961   0.116   1.228  15.329 -0.6486  0.6686  0.8823
17182TIP3    H272962   0.173   1.181  15.461  0.4707 -1.1751 -0.2063
17183TIP3   OH272963   0.542   1.017  17.130  0.2633 -0.1716 -0.9482
17183TIP3    H172964   0.453   0.989  17.111  0.8471 -1.1724 -2.4365
17183TIP3    H272965   0.537   1.112  17.136 -0.9184 -0.2282 -0.8712
17184TIP3   OH272966   1.093   3.318   0.142  0.0431 -0.0132 -0.0686
17184TIP3    H172967   1.032   3.259   0.186 -0.1901 -1.1329 -1.7935
17184TIP3    H272968   1.179   3.280   0.158  0.4948  1.9266  2.9306
17185TIP3   OH272969   3.909   6.185  16.958 -0.0785  0.0027  0.2136
17185TIP3    H172970   3.848   6.142  17.018 -0.4842  0.7366  0.3380
17185TIP3    H272971   3.979   6.218  17.015  0.5276 -0.9440  0.0599
17186TIP3   OH272972   2.032   0.016   3.490  0.3032 -0.3388 -0.3803
17186TIP3    H172973   1.962   0.014   3.425  0.9276 -0.1368 -1.0706
17186TIP3    H272974   1.997   0.069   3.562 -1.0787 -2.0359  0.2773
17187TIP3   OH272975   1.493   3.853  13.831 -0.3951  0.0409  0.0844
17187TIP3    H172976   1.455   3.915  13.893 -0.9431  0.2683 -0.4635
17187TIP3    H272977   1.556   3.904  13.780  0.5327 -0.2975  0.8787
17188TIP3   OH272978   5.056   6.382   4.876  0.3948 -0.5455  0.3372
17188TIP3    H172979   4.962   6.366   4.878  0.2485  0.2600  0.3215
17188TIP3    H272980   5.086   6.341   4.795  0.3220 -2.1302  1.0768
17189TIP3   OH272981   2.834   4.735   2.928 -0.6657 -0.2553  0.3267
17189TIP3    H172982   2.786   4.816   2.912 -0.7281 -0.4929 -0.7642
17189TIP3    H272983   2.926   4.761   2.931 -0.6477 -0.2164 -0.5432
17190TIP3   OH272984   2.483   2.690  14.713 -0.0028  0.1995  0.3193
17190TIP3    H172985   2.442   2.612  14.675 -0.1193 -0.0437  0.9342
17190TIP3    H272986   2.439   2.764  14.671  0.2003 -0.0619 -0.3660
17191TIP3   OH272987   4.066   1.195  11.846 -0.1155 -0.2059 -0.5773
17191TIP3    H172988   4.005   1.146  11.901  0.7866 -0.5202  0.1712
17191TIP3    H272989   4.014   1.221  11.770 -1.0411 -0.8919 -0.2007
17192TIP3   OH272990   0.618   1.208   1.467 -0.1624  0.0775 -0.0401
17192TIP3    H172991   0.688   1.238   1.407  0.0104 -0.3219 -0.0387
17192TIP3    H272992   0.599   1.285   1.520  3.7336 -0.9562  3.3887
17193TIP3   OH272993   0.792   4.940   6.508 -0.2237  0.0501  0.6408
17193TIP3    H172994   0.823   4.850   6.496  0.1572 -0.1052  2.5741
17193TIP3    H272995   0.871   4.991   6.525 -0.4700  0.7285 -0.1503
17194TIP3   OH272996   2.106   3.015   0.344  0.4949 -0.3938  0.3427
17194TIP3    H172997   2.028   3.027   0.399  1.0953 -0.1297  1.1521
17194TIP3    H272998   2.174   2.987   0.405  1.2706  0.2640 -0.2008
17195TIP3   OH272999   2.080   4.733   3.756  0.3568 -0.2924 -0.1208
17195TIP3    H173000   2.162   4.775   3.783  0.3197  0.6771 -1.4039
17195TIP3    H273001   2.055   4.780   3.676 -1.8304 -0.0868  0.6263
17196TIP3   OH273002   4.819   6.271   3.884  0.3865  0.0723  0.9608
17196TIP3    H173003   4.831   6.363   3.906  0.3909 -0.1493  1.9234
17196TIP3    H273004   4.885   6.225   3.936  1.3863 -0.3620 -0.6096
17197TIP3   OH273005   2.053   5.152  15.899  0.0845 -0.3412 -0.3072
17197TIP3    H173006   2.127   5.206  15.928  0.4055  0.2988 -2.1744
17197TIP3    H273007   2.015   5.117  15.980  0.1533  2.3074  0.9681
17198TIP3   OH273008   5.144   3.485   0.547 -0.1882  0.0039 -0.0469
17198TIP3    H173009   5.168   3.454   0.460  0.2568 -2.3831  0.8410
17198TIP3    H273010   5.048   3.480   0.549 -0.3735  2.1246 -1.0421
17199TIP3   OH273011   1.608   5.336  13.946  0.2601  0.4579  0.1032
17199TIP3    H173012   1.624   5.372  14.033  2.9203  1.3511 -0.6507
17199TIP3    H273013   1.591   5.413  13.891 -0.3819 -0.0006 -0.3497
17200TIP3   OH273014   3.241   0.542  16.484 -0.2684 -0.2449 -0.0780
17200TIP3    H173015   3.165   0.484  16.470 -0.2133 -0.1937 -0.6014
17200TIP3    H273016   3.297   0.526  16.409  0.5074 -0.6829  0.5810
17201TIP3   OH273017   3.760   2.301  16.716 -0.4256  0.6865  0.2255
17201TIP3    H173018   3.773   2.211  16.687 -1.2430  0.6763 -0.1398
17201TIP3    H273019   3.836   2.348  16.683 -0.4842  0.3223 -0.4386
17202TIP3   OH273020   0.439   0.492   4.002 -0.5723 -0.4633 -0.6795
17202TIP3    H173021   0.527   0.511   3.968 -0.3465  0.7416  0.4922
17202TIP3    H273022   0.385   0.564   3.968 -0.6388 -0.0255  0.3346
17203TIP3   OH273023   5.192   3.184  15.085 -0.0786  0.3654 -0.3085
17203TIP3    H173024   5.140   3.217  15.012 -0.4940 -2.7712 -1.5794
17203TIP3    H273025   5.127   3.165  15.154 -0.2084 -0.2530 -0.5896
17204TIP3   OH273026   1.113   2.289  11.248  0.1165  0.4624  0.3724
17204TIP3    H173027   1.189   2.300  11.191  0.2685  0.0278  0.4888
17204TIP3    H273028   1.038   2.302  11.190  0.2624 -0.5375 -0.0532
17205TIP3   OH273029   6.529   6.039   0.198 -0.4391 -0.2925 -0.1309
17205TIP3    H173030   6.515   6.064   0.107  1.0383  0.6957 -0.1196
17205TIP3    H273031   6.622   6.015   0.202 -0.6636 -1.0609  0.9535
17206TIP3   OH273032   5.730   0.143  12.321 -0.4522  0.3073 -0.4134
17206TIP3    H173033   5.656   0.177  12.370 -0.1338  1.9508 -0.9948
17206TIP3    H273034   5.711   0.050  12.309 -0.8662  0.0034  2.1576
17207TIP3   OH273035   0.241   3.871   3.352  0.0819  0.0102 -0.1032
17207TIP3    H173036   0.313   3.817   3.320  0.7639  0.6723  0.2926
17207TIP3    H273037   0.185   3.811   3.400  1.3280 -0.1948  1.1505
17208TIP3   OH273038   0.074   3.798  11.760  0.1234  0.1512 -0.1946
17208TIP3    H173039  -0.004   3.853  11.756 -0.5091 -0.5081  1.7931
17208TIP3    H273040   0.140   3.853  11.803 -0.2725 -0.3348  1.0828
17209TIP3   OH273041   0.158   4.405  13.979  0.6268 -0.2757 -0.2125
17209TIP3    H173042   0.094   4.436  13.915  0.8008 -0.4346 -0.4623
17209TIP3    H273043   0.123   4.321  14.009 -0.4901  0.6879  1.3730
17210TIP3   OH273044   2.386   4.120  13.255 -0.2828 -0.1011 -0.1589
17210TIP3    H173045   2.347   4.039  13.220  0.8683 -0.1662 -1.3780
17210TIP3    H273046   2.481   4.105  13.250 -0.0535  0.6615  1.2547
17211TIP3   OH273047   3.221   2.088   2.672  0.3490  0.4220  0.3557
17211TIP3    H173048   3.205   2.044   2.755 -0.6448  2.3551  1.2491
17211TIP3    H273049   3.155   2.053   2.613 -0.1365  0.3751  0.9194
17212TIP3   OH273050   6.077   4.956   4.684  0.4465 -0.1866 -0.2049
17212TIP3    H173051   6.147   4.966   4.748  0.0308  2.3267 -0.0565
17212TIP3    H273052   6.097   5.020   4.616 -0.2029 -1.4056 -1.5968
17213TIP3   OH273053   2.383   2.284  16.390  0.5088  0.0038 -0.3952
17213TIP3    H173054   2.409   2.299  16.481 -1.0539 -0.5336  0.1721
17213TIP3    H273055   2.302   2.233  16.397 -0.6332  1.5072 -2.0514
17214TIP3   OH273056   2.529   3.056   4.093 -0.2415 -0.3457  0.3323
17214TIP3    H173057   2.495   3.123   4.152 -1.3258  1.0354 -1.7256
17214TIP3    H273058   2.458   2.992   4.086 -0.4102 -0.1235 -0.0217
17215TIP3   OH273059   6.314   0.720   0.615 -1.1643  0.5395  0.1141
17215TIP3    H173060   6.250   0.785   0.586  0.9106  1.2206 -3.3581
17215TIP3    H273061   6.399   0.761   0.601  0.1610 -1.7560  0.8908
17216TIP3   OH273062   1.652   5.271   6.432 -0.0160  0.0020  0.1057
17216TIP3    H173063   1.685   5.351   6.473  2.0833 -2.0620  2.8446
17216TIP3    H273064   1.727   5.211   6.432 -2.1511 -2.9267  0.9401
17217TIP3   OH273065   5.471   0.168  14.861 -0.0327  0.3076  0.2044
17217TIP3    H173066   5.416   0.244  14.841  1.8121  1.5737 -0.2336
17217TIP3    H273067   5.479   0.169  14.957 -1.6192 -0.5506  0.3850
17218TIP3   OH273068   1.531   3.662  14.046 -0.2723  0.0658 -0.2823
17218TIP3    H173069   1.575   3.590  14.001  0.7987  0.8046 -0.4773
17218TIP3    H273070   1.545   3.738  13.989 -2.4700  0.2131 -0.7165
17219TIP3   OH273071   0.302   2.072  13.751 -0.3549  0.1593 -0.3195
17219TIP3    H173072   0.226   2.055  13.694 -0.0922 -0.3093 -0.5414
17219TIP3    H273073   0.266   2.118  13.826 -0.6363  1.2531 -1.0991
17220TIP3   OH273074   1.920   2.697  12.479 -0.1464 -0.1641 -0.2839
17220TIP3    H173075   2.009   2.710  12.511 -0.7719  2.1132  0.7742
17220TIP3    H273076   1.931   2.664  12.390  1.7050 -1.5140  0.4016
17221TIP3   OH273077   1.458   6.327  14.828 -0.2590 -0.4429  0.0744
17221TIP3    H173078   1.495   6.247  14.866  0.4698 -0.2543 -0.2187
17221TIP3    H273079   1.383   6.297  14.777 -1.9339 -0.6038  2.4405
17222TIP3   OH273080   2.285   0.331   5.241  0.2562  0.4004  0.2626
17222TIP3    H173081   2.219   0.358   5.177 -1.5460 -2.0252  0.9417
17222TIP3    H273082   2.240   0.337   5.326  1.0628 -0.7979  0.8066
17223TIP3   OH273083   6.768   6.112   1.237 -0.5173 -0.0519 -0.6533
17223TIP3    H173084   6.781   6.045   1.304 -0.1492 -1.7692 -2.3481
17223TIP3    H273085   6.846   6.167   1.242  0.4959 -1.3962 -0.9877
17224TIP3   OH273086   3.697   5.584   1.663 -0.1716  0.3623  0.0714
17224TIP3    H173087   3.649   5.514   1.708 -0.3550  0.4493  0.0097
17224TIP3    H273088   3.788   5.570   1.689 -0.4826  1.6108  2.1268
17225TIP3   OH273089   0.285   4.501  11.389 -0.0230 -0.8034 -0.2826
17225TIP3    H173090   0.226   4.434  11.423  1.6457 -1.1353  2.1869
17225TIP3    H273091   0.357   4.452  11.350 -0.5769 -0.3933 -1.9009
17226TIP3   OH273092   5.629   0.235  11.960 -0.2128 -0.3777  0.0741
17226TIP3    H173093   5.663   0.312  11.914  0.9877 -0.6002  0.5381
17226TIP3    H273094   5.707   0.194  11.997 -0.7738 -2.0663 -0.5330
17227TIP3   OH273095   0.838   5.746   3.173  0.1120  0.3938 -0.6847
17227TIP3    H173096   0.894   5.822   3.159 -0.0638  0.4058 -1.3095
17227TIP3    H273097   0.767   5.779   3.228  1.4524  0.0522  1.3652
17228TIP3   OH273098   1.271   5.981   4.150  0.1557 -0.5398  0.8119
17228TIP3    H173099   1.264   6.049   4.083 -4.2450 -1.0295  0.4234
17228TIP3    H273100   1.289   6.028   4.231 -3.2724  1.3755  0.6564
17229TIP3   OH273101   3.347   5.095   6.215  0.2969  0.0001 -0.2444
17229TIP3    H173102   3.373   5.020   6.269 -0.2343  0.0466  0.0847
17229TIP3    H273103   3.253   5.083   6.202  0.1153  0.8725  0.2228
17230TIP3   OH273104   4.095   2.269  14.817 -0.0421  0.2619  0.0618
17230TIP3    H173105   4.148   2.201  14.776  2.2493  1.3012  1.1112
17230TIP3    H273106   4.060   2.320  14.744 -0.2297 -0.9029 -0.6790
17231TIP3   OH273107   2.301   4.026  12.308 -0.1781 -0.0399  0.1637
17231TIP3    H173108   2.279   3.941  12.344 -1.5318  0.0893 -0.2745
17231TIP3    H273109   2.216   4.062  12.279  0.6308  0.5016 -1.6923
17232TIP3   OH273110   5.273   4.963   1.107 -0.1019 -0.1573  0.1831
17232TIP3    H173111   5.269   4.911   1.188 -3.5753 -0.4725 -0.0229
17232TIP3    H273112   5.334   4.915   1.051 -1.0716 -2.5296  1.0010
17233TIP3   OH273113   3.726   6.558   2.916  0.1590  0.1800  0.6578
17233TIP3    H173114   3.733   6.493   2.986  1.3335 -1.7708 -1.1345
17233TIP3    H273115   3.815   6.592   2.907 -0.7833  3.7455  2.9337
17234TIP3   OH273116   3.687   2.154  11.057  0.3089 -0.1283 -0.3787
17234TIP3    H173117   3.777   2.171  11.088  0.4935  0.8918 -1.4147
17234TIP3    H273118   3.636   2.226  11.094 -0.0858 -0.6840  0.1687
17235TIP3   OH273119   3.799   4.775  14.090 -0.1532 -0.4119 -0.4741
17235TIP3    H173120   3.779   4.685  14.116 -2.9172 -0.3247 -1.9885
17235TIP3    H273121   3.821   4.818  14.173  3.0095 -2.7599  0.1197
17236TIP3   OH273122   0.750   2.223  12.426  0.0703  0.5334  0.2496
17236TIP3    H173123   0.689   2.154  12.450 -0.3694  1.2602  1.3152
17236TIP3    H273124   0.779   2.259  12.509  2.7880 -0.4617 -0.1718
17237TIP3   OH273125   6.401   5.551  15.273  0.3374  0.3316 -0.3905
17237TIP3    H173126   6.374   5.552  15.181 -2.3002 -2.1086  0.2111
17237TIP3    H273127   6.459   5.476  15.280 -1.4933 -1.0937  0.3165
17238TIP3   OH273128   0.742   4.100  11.603 -0.5923 -0.0521 -0.4028
17238TIP3    H173129   0.788   4.121  11.522  2.2233 -0.6184  0.9190
17238TIP3    H273130   0.755   4.176  11.659  0.1351 -0.8383  0.5393
17239TIP3   OH273131   4.062   5.683   1.935 -0.7927  0.4127 -0.2815
17239TIP3    H173132   4.134   5.698   1.996  0.2448 -1.3418 -0.9850
17239TIP3    H273133   4.085   5.735   1.858  0.5604 -1.2634 -1.0748
17240TIP3   OH273134   0.141   3.267   2.751  0.3155 -0.0680 -0.0779
17240TIP3    H173135   0.220   3.216   2.766 -0.3141 -0.5650  1.8309
17240TIP3    H273136   0.153   3.346   2.804 -0.5981 -0.3311  0.5570
17241TIP3   OH273137   1.884   6.552   5.004 -0.1553 -0.1366 -0.1460
17241TIP3    H173138   1.841   6.563   5.088  0.1104 -1.1534  0.1425
17241TIP3    H273139   1.929   6.467   5.011  1.8142  0.8111 -0.4454
17242TIP3   OH273140   4.934   4.145  11.715  0.5133 -0.0731 -0.0954
17242TIP3    H173141   4.908   4.153  11.623  0.9726 -1.9779 -0.4278
17242TIP3    H273142   4.852   4.156  11.764 -0.0775 -0.9682 -0.8547
17243TIP3   OH273143   6.260   3.372   2.756 -0.0270 -0.0998 -0.2982
17243TIP3    H173144   6.277   3.363   2.663 -0.1311  1.7235 -0.5250
17243TIP3    H273145   6.299   3.456   2.780 -0.5185 -0.2627  1.1734
17244TIP3   OH273146   5.993   1.148   2.276  0.3217 -0.3660  0.0664
17244TIP3    H173147   5.984   1.085   2.204 -1.2335 -0.3747  0.2290
17244TIP3    H273148   5.937   1.112   2.345  1.1674  0.0610  0.9911
17245TIP3   OH273149   1.422   1.497  13.350 -0.5802 -0.0826  0.2353
17245TIP3    H173150   1.367   1.457  13.417  0.3938 -0.7222  0.6706
17245TIP3    H273151   1.505   1.451  13.356 -0.0741  0.6847 -0.5893
17246TIP3   OH273152   3.568   0.678   2.592  0.4696 -0.5942  0.2722
17246TIP3    H173153   3.579   0.637   2.678  1.5669 -0.8722  0.0133
17246TIP3    H273154   3.644   0.649   2.541  1.4692  1.9540  0.1459
17247TIP3   OH273155   3.928   4.778  12.849  0.4392 -0.6523  0.0912
17247TIP3    H173156   3.955   4.687  12.866  0.1540 -0.3933  2.2281
17247TIP3    H273157   3.939   4.822  12.933 -1.2627  0.8442 -0.4144
17248TIP3   OH273158   4.176   5.477   1.591  0.0860  0.0860  0.8025
17248TIP3    H173159   4.260   5.523   1.587 -0.2294  0.6000 -0.1839
17248TIP3    H273160   4.164   5.441   1.503 -0.5007 -0.3985  1.0760
17249TIP3   OH273161   1.979   4.103   3.981  0.7333 -0.5352  0.2152
17249TIP3    H173162   2.033   4.132   3.908 -0.4231 -0.2362 -0.5447
17249TIP3    H273163   1.995   4.167   4.050 -0.4282  0.9323 -0.8188
17250TIP3   OH273164   3.143   2.980   0.445  0.1108  0.2174  0.8699
17250TIP3    H173165   3.062   3.006   0.401  0.5515 -1.7618 -1.3023
17250TIP3    H273166   3.209   3.041   0.414  0.2145 -0.5786 -0.5519
17251TIP3   OH273167   4.392   0.926   5.744 -0.1221  0.1657  0.7497
17251TIP3    H173168   4.332   0.983   5.696 -1.1369 -1.1474  0.3966
17251TIP3    H273169   4.431   0.870   5.677  0.9766  0.5360  1.0663
17252TIP3   OH273170   0.172   3.657  15.246 -0.0240 -0.2651  0.1806
17252TIP3    H173171   0.256   3.685  15.212  0.2845 -0.6809  0.5799
17252TIP3    H273172   0.170   3.690  15.336 -0.3370 -0.1552  0.1351
17253TIP3   OH273173   4.678   4.171   5.517 -0.3928  0.5440  0.2272
17253TIP3    H173174   4.625   4.235   5.470  0.5336 -0.4854 -2.3961
17253TIP3    H273175   4.750   4.221   5.554 -0.9260  1.3271  0.2443
17254TIP3   OH273176   5.758   3.225   2.523 -0.1341 -0.1853  0.3512
17254TIP3    H173177   5.674   3.265   2.546  0.0161  0.5462 -0.3152
17254TIP3    H273178   5.823   3.279   2.569  0.0666  0.3363 -0.5049
17255TIP3   OH273179   3.686   4.527  13.920  0.0017 -0.2491  0.0195
17255TIP3    H173180   3.778   4.534  13.898  0.3932 -1.6630  1.0341
17255TIP3    H273181   3.685   4.499  14.012 -1.4935  2.5700  0.9630
17256TIP3   OH273182   1.705   5.542   6.500 -0.3474 -0.2675 -0.7855
17256TIP3    H173183   1.770   5.612   6.501  0.2505 -0.8136 -0.1427
17256TIP3    H273184   1.621   5.587   6.515  0.0478  0.3042 -0.2283
17257TIP3   OH273185   5.227   0.059   0.420  0.3112  0.1442  0.3792
17257TIP3    H173186   5.243   0.083   0.329 -2.6010 -0.4587 -0.3921
17257TIP3    H273187   5.272   0.126   0.471  0.4899  1.5518 -1.5267
17258TIP3   OH273188   3.865   4.194   3.166 -0.0906 -0.3601  0.1146
17258TIP3    H173189   3.831   4.144   3.240 -0.1869  2.2394  1.9847
17258TIP3    H273190   3.931   4.137   3.127  0.9750 -1.3992  3.0978
17259TIP3   OH273191   0.459   4.082   3.103 -0.2509 -0.4928 -0.6989
17259TIP3    H173192   0.478   3.994   3.071  1.0627 -0.1095 -1.0358
17259TIP3    H273193   0.378   4.106   3.059  0.8996 -0.4392 -2.9524
17260TIP3   OH273194   0.100   3.417   4.674 -0.2440  0.6154 -0.2499
17260TIP3    H173195   0.122   3.504   4.708  0.6024  0.4767 -0.4277
17260TIP3    H273196   0.009   3.425   4.646 -0.8410  0.8399  1.6654
17261TIP3   OH273197   3.919   5.014   2.881  0.5772  0.2269 -0.3983
17261TIP3    H173198   3.912   5.107   2.857 -1.3964  0.4260  0.7536
17261TIP3    H273199   3.925   4.968   2.798  1.5926  1.3696 -0.9942
17262TIP3   OH273200   0.593   5.116   3.660  0.2091 -0.1210 -0.0343
17262TIP3    H173201   0.669   5.172   3.677  0.2748  0.5330 -2.2051
17262TIP3    H273202   0.526   5.176   3.628 -0.9561 -0.8254  0.9989
17263TIP3   OH273203   5.843   5.312  13.123  0.6151  0.6397 -0.6862
17263TIP3    H173204   5.771   5.263  13.084  0.6075  1.6730 -2.0409
17263TIP3    H273205   5.848   5.280  13.213 -0.4248 -0.6560 -1.0605
17264TIP3   OH273206   4.349   4.486  14.043  0.0126  0.3967  0.1152
17264TIP3    H173207   4.308   4.409  14.082 -1.8743  1.3465  0.1076
17264TIP3    H273208   4.439   4.458  14.023 -0.1891 -1.3359  1.4127
17265TIP3   OH273209   5.198   1.425   3.239  0.3798 -0.0863 -0.1827
17265TIP3    H173210   5.277   1.467   3.274  1.8835 -1.8105 -1.3047
17265TIP3    H273211   5.179   1.354   3.299  0.7475 -0.7448 -0.8243
17266TIP3   OH273212   3.758   2.752   5.000  0.6900  0.0451 -0.2164
17266TIP3    H173213   3.743   2.658   4.989  1.1166 -0.3914  2.3604
17266TIP3    H273214   3.718   2.792   4.922  0.3333 -2.2331 -1.2771
17267TIP3   OH273215   3.825   3.507  10.771 -0.2942 -0.0370 -0.1138
17267TIP3    H173216   3.811   3.595  10.737 -4.1223 -0.8504 -1.1581
17267TIP3    H273217   3.827   3.517  10.866  0.5929  1.2604 -0.2490
17268TIP3   OH273218   2.235   4.536   6.434  0.1217  0.1535  0.7093
17268TIP3    H173219   2.294   4.460   6.437  0.6346  0.5598  1.0203
17268TIP3    H273220   2.151   4.502   6.463 -0.3405 -0.9144 -1.6827
17269TIP3   OH273221   2.004   4.744  14.248  0.1328  0.1992  0.1316
17269TIP3    H173222   2.093   4.767  14.221  0.6604  0.8723  2.2537
17269TIP3    H273223   1.973   4.821  14.296 -1.6914  0.0437 -0.7158
17270TIP3   OH273224   0.977   1.162  11.253  0.5716 -0.0300 -0.5752
17270TIP3    H173225   0.963   1.257  11.261  1.2435  0.0679 -0.5605
17270TIP3    H273226   0.980   1.147  11.158  0.0848 -0.0996 -0.5850
17271TIP3   OH273227   2.562   2.300   2.375 -0.0990  0.5474 -0.0598
17271TIP3    H173228   2.548   2.221   2.427  1.6977 -0.2209 -0.6718
17271TIP3    H273229   2.651   2.291   2.341  0.0678  2.7251 -0.3455
17272TIP3   OH273230   2.428   0.846  12.579 -0.5806  0.4286 -0.0978
17272TIP3    H173231   2.459   0.890  12.659 -0.6829  0.2484  0.0424
17272TIP3    H273232   2.450   0.907  12.508  0.0375  0.3333  0.0054
17273TIP3   OH273233   3.076   5.710  14.860  0.0938 -0.5940  0.2286
17273TIP3    H173234   3.144   5.777  14.863  0.1945 -0.5525 -1.5898
17273TIP3    H273235   3.084   5.671  14.773 -0.2638 -2.6817  1.0642
17274TIP3   OH273236   3.177   2.873   3.702  0.5403 -0.2935 -0.0199
17274TIP3    H173237   3.129   2.824   3.769  0.8022 -0.5519 -0.0226
17274TIP3    H273238   3.247   2.814   3.674  0.9741  0.1569  0.1165
17275TIP3   OH273239   5.828   5.318  16.315 -0.1189 -0.7492 -0.8675
17275TIP3    H173240   5.865   5.237  16.351 -1.9113 -2.2453 -2.1788
17275TIP3    H273241   5.769   5.350  16.382 -0.0082 -0.9771 -0.6598
17276TIP3   OH273242   1.166   2.952   2.627  0.2429 -0.4204 -0.2855
17276TIP3    H173243   1.121   2.871   2.603 -2.5205  0.9915 -0.2615
17276TIP3    H273244   1.109   2.994   2.691  2.7164  0.5276  1.4368
17277TIP3   OH273245   3.990   2.494  12.313 -0.1303 -0.5354 -0.1605
17277TIP3    H173246   3.899   2.484  12.342 -0.6588 -0.1875 -1.6100
17277TIP3    H273247   3.991   2.455  12.225  0.9215  0.2355 -0.5039
17278TIP3   OH273248   5.345   2.270  14.479 -0.3092  0.3775  0.1480
17278TIP3    H173249   5.338   2.271  14.384 -0.2583  0.2000  0.1414
17278TIP3    H273250   5.434   2.238  14.496 -0.3212  0.4011  0.2554
17279TIP3   OH273251   2.339   5.227  10.942  0.1878  0.3591  0.0182
17279TIP3    H173252   2.328   5.137  10.974 -1.5078  0.8558  0.9367
17279TIP3    H273253   2.414   5.260  10.991 -0.3268  0.0328  1.0525
17280TIP3   OH273254   0.850   1.410   1.912  0.3412  0.0717  0.1277
17280TIP3    H173255   0.845   1.488   1.967 -1.4005 -0.5092  0.8742
17280TIP3    H273256   0.926   1.362   1.944 -1.1517 -0.7268  2.7613
17281TIP3   OH273257   2.914   3.705   0.014  0.0051  0.4073  0.6172
17281TIP3    H173258   2.999   3.747   0.023 -0.2850  0.8790  1.3288
17281TIP3    H273259   2.908   3.680  -0.078  1.0666  0.0114  0.6485
17282TIP3   OH273260   0.263   3.361   5.544  0.1204  0.3254  0.3393
17282TIP3    H173261   0.216   3.369   5.627  0.1778  1.6405  0.2640
17282TIP3    H273262   0.214   3.417   5.483  0.6974  0.2156 -0.2384
17283TIP3   OH273263   3.710   1.997   1.417  0.1066 -0.3270 -0.3676
17283TIP3    H173264   3.774   1.926   1.412  1.1594  0.5281  0.3265
17283TIP3    H273265   3.738   2.059   1.349  1.2683  0.9877  1.2273
17284TIP3   OH273266   0.445   6.333  13.563 -0.3067  0.3752 -0.4156
17284TIP3    H173267   0.526   6.287  13.583 -0.6303  0.5123  1.4719
17284TIP3    H273268   0.470   6.425  13.557 -0.4848  0.6133  1.6972
17285TIP3   OH273269   2.919   6.362  14.415 -0.0102  0.4592 -0.2629
17285TIP3    H173270   2.951   6.439  14.462 -1.0761  1.1404 -0.6214
17285TIP3    H273271   2.825   6.377  14.405 -0.2682 -0.9667 -0.2079
17286TIP3   OH273272   4.695   0.304   1.765  0.3867  0.0706 -0.0258
17286TIP3    H173273   4.604   0.281   1.744 -0.0726  0.9443  0.9165
17286TIP3    H273274   4.723   0.237   1.828  0.1559  0.1978  0.2144
17287TIP3   OH273275   6.596   4.118  13.222  0.2118 -0.1934  0.5071
17287TIP3    H173276   6.610   4.082  13.310  1.4606  0.5358  0.6313
17287TIP3    H273277   6.530   4.061  13.183 -1.2607  0.1661  2.3349
17288TIP3   OH273278   3.401   0.718   4.830 -0.0844  0.3797 -0.4281
17288TIP3    H173279   3.354   0.728   4.913  0.0123 -1.5649 -0.0917
17288TIP3    H273280   3.482   0.766   4.843 -0.2951  0.5263  0.4200
17289TIP3   OH273281   4.774   1.984  17.069  0.0875  0.0299 -0.6959
17289TIP3    H173282   4.805   1.909  17.119  0.7854  1.5891  1.3527
17289TIP3    H273283   4.820   1.979  16.985 -0.5831 -2.2778 -0.9913
17290TIP3   OH273284   3.562   4.028  15.246 -0.3937 -0.0701 -0.2180
17290TIP3    H173285   3.587   4.107  15.198  0.8366 -0.1313  0.2628
17290TIP3    H273286   3.579   3.957  15.184 -1.2133  0.0177 -0.5477
17291TIP3   OH273287   0.520   3.670  12.372 -0.0888  1.0768 -0.2460
17291TIP3    H173288   0.464   3.651  12.297 -0.5400  0.6220  0.1928
17291TIP3    H273289   0.490   3.755  12.405 -0.8150  0.6431  0.2382
17292TIP3   OH273290   3.107   5.340  14.352  0.3936 -0.7891  0.2356
17292TIP3    H173291   3.146   5.366  14.269  1.5298  1.3145  1.3420
17292TIP3    H273292   3.154   5.262  14.379 -0.3448 -1.8014 -1.3038
17293TIP3   OH273293   5.356   0.148   0.143  0.0308 -0.4319 -0.3335
17293TIP3    H173294   5.283   0.185   0.093 -1.5532 -0.8882  1.5069
17293TIP3    H273295   5.379   0.216   0.206 -0.4833 -1.1909  0.7024
17294TIP3   OH273296   5.175   3.175  16.353 -0.2686  0.2244  0.0343
17294TIP3    H173297   5.155   3.185  16.446  0.2551  0.8587  0.0927
17294TIP3    H273298   5.201   3.263  16.325  2.1786 -0.4372 -0.0598
17295TIP3   OH273299   4.977   0.310  11.878 -0.4297 -0.4217 -0.3384
17295TIP3    H173300   5.014   0.285  11.963  0.4924  0.1781 -0.5426
17295TIP3    H273301   4.903   0.250  11.865 -0.6162 -0.4935  0.9012
17296TIP3   OH273302   6.630   4.296   1.700  0.0230 -0.2778  0.2036
17296TIP3    H173303   6.716   4.322   1.667 -0.3819 -0.3760 -0.9722
17296TIP3    H273304   6.571   4.307   1.625 -1.1520  0.5830  1.2013
17297TIP3   OH273305   0.283   4.161  10.119 -0.1297  0.9845  0.1348
17297TIP3    H173306   0.306   4.240  10.070  0.1657  0.4136 -0.6546
17297TIP3    H273307   0.299   4.185  10.210  0.4682  1.6612 -0.1349
17298TIP3   OH273308   0.406   6.172   2.298 -0.0236  0.0384  0.1742
17298TIP3    H173309   0.484   6.187   2.351 -0.8448 -2.1334  2.1866
17298TIP3    H273310   0.333   6.178   2.359 -1.4969  1.8185 -1.6256
17299TIP3   OH273311   4.009   4.066  13.237 -0.1633 -0.0455 -0.1080
17299TIP3    H173312   4.062   4.081  13.158 -0.2875 -0.6730 -0.3184
17299TIP3    H273313   4.036   4.135  13.298 -1.5943  1.8005 -1.4463
17300TIP3   OH273314   4.642   3.351  15.405 -0.0499  0.2994 -0.4932
17300TIP3    H173315   4.697   3.391  15.338  1.4449  2.1303  1.6783
17300TIP3    H273316   4.705   3.312  15.467 -1.1843  1.1173  1.2660
17301TIP3   OH273317   0.706   4.121   4.922  0.0330  0.1932 -0.0578
17301TIP3    H173318   0.645   4.079   4.982  1.4338 -0.1865  1.1632
17301TIP3    H273319   0.745   4.049   4.873 -0.4874  0.4366 -0.8571
17302TIP3   OH273320   3.379   0.975   3.912  0.1303 -0.0621 -0.5566
17302TIP3    H173321   3.402   1.037   3.842 -1.1088  1.5649  0.3968
17302TIP3    H273322   3.436   1.000   3.985  0.4448 -0.8477 -0.5211
17303TIP3   OH273323   4.633   3.285   1.320  0.4441 -0.0876 -0.1003
17303TIP3    H173324   4.583   3.298   1.400 -0.1225  2.1595 -0.7320
17303TIP3    H273325   4.722   3.314   1.341  0.4335 -0.0346 -0.1288
17304TIP3   OH273326   2.758   0.280  12.114 -0.0671  0.3101 -0.2044
17304TIP3    H173327   2.778   0.240  12.199 -3.4008 -0.5385  0.3695
17304TIP3    H273328   2.799   0.222  12.050  1.1392  0.0347  0.7864
17305TIP3   OH273329   1.075   0.441   5.799 -0.1309 -0.3597 -0.4149
17305TIP3    H173330   1.006   0.442   5.865 -0.7445  1.0425 -1.0535
17305TIP3    H273331   1.156   0.457   5.848 -0.4596 -0.2576  0.0994
17306TIP3   OH273332   4.822   4.844   3.741 -0.2595  0.4569  0.6248
17306TIP3    H173333   4.848   4.831   3.832 -0.4646  0.8951  0.7431
17306TIP3    H273334   4.850   4.763   3.697 -0.3375  0.1625  1.1092
17307TIP3   OH273335   4.200   1.091   4.941  0.1237  0.0094  0.2624
17307TIP3    H173336   4.278   1.110   4.993  0.1630 -1.1429  0.6421
17307TIP3    H273337   4.234   1.067   4.855  0.1797 -0.3327  0.3796
17308TIP3   OH273338   5.306   2.524  14.217  0.2865  0.3531  0.1881
17308TIP3    H173339   5.323   2.430  14.222  1.0465  0.5040  0.7494
17308TIP3    H273340   5.211   2.532  14.223  0.0711 -0.4595 -1.5310
17309TIP3   OH273341   2.468   5.326  11.536 -0.0981 -0.2935 -0.3916
17309TIP3    H173342   2.482   5.274  11.615  0.8323 -0.8862 -0.9387
17309TIP3    H273343   2.513   5.409  11.553 -1.2579  0.2231  0.3234
17310TIP3   OH273344   5.571   1.814   0.985  0.0641 -0.2063 -0.2201
17310TIP3    H173345   5.528   1.821   0.899  0.6173 -0.8397 -0.5612
17310TIP3    H273346   5.655   1.773   0.966 -0.5109 -1.9745  0.8338
17311TIP3   OH273347   5.599   1.691   3.252  0.9581 -0.3264 -0.0423
17311TIP3    H173348   5.695   1.689   3.253  0.9766  0.2422  1.9956
17311TIP3    H273349   5.573   1.647   3.332 -0.5145 -0.4514 -0.5583
17312TIP3   OH273350   6.329   5.791  16.984 -0.2010  0.1134  0.2280
17312TIP3    H173351   6.386   5.716  16.966 -0.0192  0.6508 -1.5331
17312TIP3    H273352   6.386   5.853  17.030  0.2203  0.0334 -0.1806
17313TIP3   OH273353   1.312   0.631   5.589  0.0932  0.5829  0.0734
17313TIP3    H173354   1.319   0.660   5.498  0.0751  2.3956  0.6155
17313TIP3    H273355   1.225   0.660   5.617 -0.2986 -0.8168  0.4144
17314TIP3   OH273356   3.281   3.607   5.918  0.4240 -0.3812 -0.3669
17314TIP3    H173357   3.310   3.674   5.980  0.0887 -1.3296  0.8636
17314TIP3    H273358   3.289   3.648   5.832  0.8604  0.9931  0.3051
17315TIP3   OH273359   2.178   0.237  11.481  0.6734  0.0997  0.1881
17315TIP3    H173360   2.150   0.150  11.509 -2.9394  0.2773 -2.2371
17315TIP3    H273361   2.163   0.293  11.557 -1.2003 -0.6991  0.4441
17316TIP3   OH273362   6.224   5.338  14.393 -0.3347  0.1868 -0.5026
17316TIP3    H173363   6.247   5.303  14.307 -0.3574 -0.7229 -0.1391
17316TIP3    H273364   6.248   5.270  14.455 -1.8867  0.1357  0.0842
17317TIP3   OH273365   6.375   3.247  15.639  0.6575 -0.5658 -0.6998
17317TIP3    H173366   6.436   3.309  15.678 -2.1576  1.2550  1.1311
17317TIP3    H273367   6.380   3.170  15.695 -0.2771  0.4256  0.7930
17318TIP3   OH273368   4.506   0.017   2.440  0.0645  0.4224 -0.3933
17318TIP3    H173369   4.422   0.057   2.419 -0.0801  1.1500  1.4000
17318TIP3    H273370   4.551   0.011   2.355 -2.1080 -0.8693 -1.5492
17319TIP3   OH273371   4.957   6.181   0.228 -0.1703 -0.0371 -0.0369
17319TIP3    H173372   4.916   6.103   0.189 -0.0114 -0.3647  0.4462
17319TIP3    H273373   4.914   6.191   0.313 -1.6222  1.5710 -0.8931
17320TIP3   OH273374   2.475   6.697  10.493  0.1713  0.2429 -0.6265
17320TIP3    H173375   2.543   6.649  10.541  0.6568  1.1785 -0.3654
17320TIP3    H273376   2.473   6.654  10.407  0.6036 -0.2444 -0.4024
17321TIP3   OH273377   6.383   4.084   1.616 -0.0855  0.7139 -0.5043
17321TIP3    H173378   6.334   4.121   1.689 -0.1785  1.7463 -1.0775
17321TIP3    H273379   6.382   4.152   1.549 -0.4202 -0.3904 -1.6614
17322TIP3   OH273380   6.456   3.428  16.754 -0.3389  0.0433 -0.1083
17322TIP3    H173381   6.522   3.360  16.737 -0.7099 -0.1378 -0.8305
17322TIP3    H273382   6.475   3.497  16.690  0.2611  0.8062  0.8483
17323TIP3   OH273383   2.910   0.244   0.080  0.1097 -0.4067 -0.2952
17323TIP3    H173384   2.824   0.284   0.081  0.3418  0.1004  0.1385
17323TIP3    H273385   2.908   0.180   0.151 -0.0077 -0.6170 -0.4863
17324TIP3   OH273386   0.646   5.019  12.585  0.2762 -0.1171 -0.3430
17324TIP3    H173387   0.636   4.945  12.525  0.0252  1.0857 -1.8596
17324TIP3    H273388   0.562   5.065  12.581  0.3566  0.1603  0.7192
17325TIP3   OH273389   2.465   1.567  13.909  0.3534  0.0226 -0.2803
17325TIP3    H173390   2.478   1.626  13.984 -0.6024 -0.8224  0.5751
17325TIP3    H273391   2.398   1.506  13.938  1.6957 -1.8453 -0.9327
17326TIP3   OH273392   1.626   3.016  15.261 -0.1196 -0.5593 -0.1654
17326TIP3    H173393   1.576   2.934  15.257 -1.6322  0.3449 -1.4775
17326TIP3    H273394   1.622   3.042  15.353 -0.9507 -1.2012 -0.0005
17327TIP3   OH273395   1.313   2.258   1.721 -0.6202  0.3154  0.2867
17327TIP3    H173396   1.339   2.274   1.812 -1.1655 -0.8291  0.6573
17327TIP3    H273397   1.217   2.253   1.724 -0.5543 -1.9841  0.0643
17328TIP3   OH273398   5.777   1.627   0.942  0.6017 -0.2709  0.2983
17328TIP3    H173399   5.806   1.584   1.023 -0.2064 -0.2567  0.6070
17328TIP3    H273400   5.782   1.558   0.876 -0.1591 -0.7162  0.6789
17329TIP3   OH273401   2.530   3.311   4.814  0.3071  0.3730  0.2034
17329TIP3    H173402   2.537   3.243   4.881  0.6895 -0.6568 -0.8608
17329TIP3    H273403   2.556   3.269   4.733 -1.8248  1.1163 -0.9518
17330TIP3   OH273404   1.494   5.723  16.435  0.8115  0.7972 -0.3185
17330TIP3    H173405   1.453   5.639  16.415  1.6867  0.6088 -1.4045
17330TIP3    H273406   1.492   5.728  16.531 -3.0223  1.4821 -0.2863
17331TIP3   OH273407   2.959   2.628   1.140 -0.2178  0.0591 -0.7764
17331TIP3    H173408   2.984   2.653   1.229  1.7837 -1.4301 -0.8532
17331TIP3    H273409   2.951   2.711   1.093  0.9419  0.7865  0.2530
17332TIP3   OH273410   5.661   4.274  16.350  0.2731 -0.0271  0.2581
17332TIP3    H173411   5.649   4.222  16.429  1.6913 -1.8508 -0.6461
17332TIP3    H273412   5.585   4.332  16.347 -0.9940 -1.5286  1.7356
17333TIP3   OH273413   2.234   1.275  11.982 -0.4468 -0.0442 -0.5141
17333TIP3    H173414   2.285   1.258  11.902  1.3073  0.9077  0.3558
17333TIP3    H273415   2.227   1.370  11.986  0.0077 -0.0478  0.7736
17334TIP3   OH273416   2.907   3.417   2.879  0.2291 -0.2642 -0.7150
17334TIP3    H173417   2.973   3.483   2.897  1.2447 -0.8478 -2.1498
17334TIP3    H273418   2.948   3.334   2.905 -0.8461 -0.4216  0.6141
17335TIP3   OH273419   5.121   4.282  15.629 -0.0216  0.1142  0.4610
17335TIP3    H173420   5.052   4.257  15.568  0.9840  0.3966 -0.8439
17335TIP3    H273421   5.088   4.256  15.715 -1.5975 -0.0435 -0.1575
17336TIP3   OH273422   2.345   6.609  12.855  0.1266 -0.4516 -0.0804
17336TIP3    H173423   2.282   6.564  12.799  0.3172 -0.0901 -0.5973
17336TIP3    H273424   2.374   6.543  12.917  1.2913 -1.3919 -1.5578
17337TIP3   OH273425   0.711   0.172   4.199 -0.4990 -0.2830 -0.5824
17337TIP3    H173426   0.747   0.258   4.178  0.4078 -0.3042  0.7849
17337TIP3    H273427   0.617   0.181   4.184 -0.1997  0.3283 -2.4191
17338TIP3   OH273428   6.748   5.880  16.752  0.7906  0.0284  0.4085
17338TIP3    H173429   6.707   5.843  16.674  2.3082 -1.1899  0.1235
17338TIP3    H273430   6.840   5.893  16.726  0.9457  1.1899  1.4711
17339TIP3   OH273431   4.292   0.841   2.279 -0.3120  0.2948  0.1824
17339TIP3    H173432   4.368   0.783   2.287 -1.0702 -0.6787  0.3952
17339TIP3    H273433   4.329   0.924   2.248  0.5806 -0.8105 -1.9142
17340TIP3   OH273434   3.370   3.145  16.332 -0.1838 -0.0834  0.0145
17340TIP3    H173435   3.317   3.204  16.279  0.6016 -0.2877 -1.0481
17340TIP3    H273436   3.308   3.080  16.366 -0.8726  0.6929  0.2618
17341TIP3   OH273437   6.483   4.995  15.372  0.1635  0.1365  0.1794
17341TIP3    H173438   6.570   5.027  15.396  1.0185 -1.8665 -0.0596
17341TIP3    H273439   6.482   4.994  15.277  0.0439 -0.2834  0.1842
17342TIP3   OH273440   0.210   1.697   1.333  0.2349 -0.0682  0.1269
17342TIP3    H173441   0.225   1.615   1.285  1.3807  0.1062  0.1778
17342TIP3    H273442   0.206   1.764   1.265  1.7897  0.1693  0.2471
17343TIP3   OH273443   0.100   5.030   0.090 -0.3050  0.6453  0.3749
17343TIP3    H173444   0.119   4.946   0.050 -1.8952 -0.5453  1.9509
17343TIP3    H273445   0.124   5.019   0.182 -0.7801  1.8359  0.6636
17344TIP3   OH273446   0.235   0.237  16.222  0.3861  0.3273 -0.2933
17344TIP3    H173447   0.228   0.324  16.183 -0.1210  1.4440  2.1064
17344TIP3    H273448   0.327   0.214  16.214  0.4505  0.8820 -1.3065
17345TIP3   OH273449   5.639   3.216   2.223 -0.2754  0.1616  0.3245
17345TIP3    H173450   5.669   3.164   2.298  2.9982  0.0324 -0.8872
17345TIP3    H273451   5.673   3.304   2.240 -0.3170  0.3559 -0.5741
17346TIP3   OH273452   3.699   1.979   2.499 -0.3751  0.2440  0.2277
17346TIP3    H173453   3.673   2.071   2.495 -0.7379  0.1948  1.1351
17346TIP3    H273454   3.714   1.962   2.592  0.1241 -0.5010  0.0236
17347TIP3   OH273455   4.701   4.937   4.025  0.0619 -0.2934 -0.8395
17347TIP3    H173456   4.633   4.980   4.076  0.5777 -1.3257  0.8164
17347TIP3    H273457   4.665   4.931   3.937 -1.2690  0.6957 -0.3989
17348TIP3   OH273458   4.113   5.916  12.565 -0.2295  0.2613 -0.9217
17348TIP3    H173459   4.109   5.908  12.470  0.4781  0.4938 -0.9759
17348TIP3    H273460   4.197   5.957  12.582  1.2651 -2.8958  0.0029
17349TIP3   OH273461   2.443   5.925  13.360 -0.1691 -0.4951  0.6467
17349TIP3    H173462   2.439   5.854  13.296 -1.0359 -0.1631  0.3195
17349TIP3    H273463   2.537   5.936  13.378  0.4676  1.5037 -2.9439
17350TIP3   OH273464   4.875   1.746  15.583  0.5428  0.7016 -0.2468
17350TIP3    H173465   4.889   1.716  15.673 -0.0673 -0.7201 -0.6019
17350TIP3    H273466   4.949   1.709  15.534 -1.0949 -1.7901 -1.0074
17351TIP3   OH273467   4.706   6.755  12.790 -0.4061  0.2984 -0.8228
17351TIP3    H173468   4.641   6.797  12.847  1.6174  1.5267  0.7594
17351TIP3    H273469   4.703   6.805  12.709  1.7226  3.6534  0.8990
17352TIP3   OH273470   5.391   4.164   3.278  0.0328  0.1496 -0.5000
17352TIP3    H173471   5.356   4.110   3.349  0.7560  0.0665 -0.1914
17352TIP3    H273472   5.456   4.107   3.235 -0.0488  0.3704 -0.9210
17353TIP3   OH273473   0.028   2.250   1.141  0.1084  0.0043 -0.1551
17353TIP3    H173474   0.060   2.161   1.129 -0.6083 -0.1258 -1.2526
17353TIP3    H273475   0.097   2.294   1.192  0.0647 -1.3876  1.1667
17354TIP3   OH273476   6.027   6.580  15.649  0.2954 -0.2188  0.5416
17354TIP3    H173477   6.023   6.486  15.667  0.4477  0.0739  2.3459
17354TIP3    H273478   5.943   6.614  15.680 -0.3902  0.0768 -1.4887
17355TIP3   OH273479   2.971   4.346  13.144  0.0285 -0.3124 -0.1401
17355TIP3    H173480   2.986   4.268  13.197  3.3163 -0.5263 -1.1237
17355TIP3    H273481   2.988   4.317  13.054  1.9255  1.5640 -0.4672
17356TIP3   OH273482   5.366   6.272   4.382 -0.6372 -0.2968  0.0062
17356TIP3    H173483   5.364   6.269   4.286 -0.6425 -0.6027  0.0150
17356TIP3    H273484   5.448   6.229   4.405 -0.7064 -0.3516  0.1459
17357TIP3   OH273485   5.574   2.154  11.715  0.3017  0.1733  0.5842
17357TIP3    H173486   5.554   2.118  11.802 -0.0221 -1.0282  0.0403
17357TIP3    H273487   5.523   2.234  11.709 -1.3054 -0.7929  0.7354
17358TIP3   OH273488   3.736   1.433   5.866 -0.0848  0.5348  0.0942
17358TIP3    H173489   3.735   1.413   5.960  0.7112 -0.5241 -0.1117
17358TIP3    H273490   3.796   1.369   5.828 -0.0041  1.2750 -1.0738
17359TIP3   OH273491   2.206   1.075   2.852  0.0171  0.1722 -0.3461
17359TIP3    H173492   2.287   1.056   2.898 -0.2910  0.2419  0.2354
17359TIP3    H273493   2.230   1.074   2.759  0.2669 -1.8408 -0.3102
17360TIP3   OH273494   0.064   2.026  13.628 -0.1560  0.0405  0.0961
17360TIP3    H173495  -0.028   2.038  13.650 -0.2392 -0.4507  0.0234
17360TIP3    H273496   0.080   2.087  13.555 -0.7019 -0.6437 -0.6119
17361TIP3   OH273497   6.099   6.369  14.078  0.2126  0.7644 -0.2089
17361TIP3    H173498   6.042   6.403  14.147  1.7666  0.1163  1.4862
17361TIP3    H273499   6.171   6.328  14.125  0.1549 -1.8663 -2.1876
17362TIP3   OH273500   5.791   3.912  15.819 -0.6181 -1.0780 -0.3518
17362TIP3    H173501   5.853   3.840  15.827 -0.7589 -1.0737  1.0833
17362TIP3    H273502   5.846   3.989  15.802 -0.0799 -0.9174  1.8004
17363TIP3   OH273503   3.770   5.335  11.839 -0.1648  0.0458 -0.5369
17363TIP3    H173504   3.748   5.423  11.808  0.6346  0.2793 -0.4686
17363TIP3    H273505   3.776   5.345  11.934  1.0848  0.2044 -0.6126
17364TIP3   OH273506   4.861   1.755   1.420 -0.1859  0.7732 -0.1534
17364TIP3    H173507   4.894   1.757   1.331 -0.6577  0.5410 -0.3415
17364TIP3    H273508   4.815   1.671   1.426  0.1807  0.6119  0.4310
17365TIP3   OH273509   2.702   5.664  11.892 -0.7227  0.1864  0.6013
17365TIP3    H173510   2.743   5.577  11.890  0.3339  0.6694 -1.3205
17365TIP3    H273511   2.765   5.718  11.940  0.7901  0.8069 -1.9003
17366TIP3   OH273512   3.228   2.818  14.812 -0.2036  0.2476 -0.0816
17366TIP3    H173513   3.259   2.742  14.763 -1.1126 -0.0610 -0.2023
17366TIP3    H273514   3.191   2.876  14.745  0.8443  0.9925 -0.0394
17367TIP3   OH273515   3.855   4.904   2.626  0.0239  0.4590  0.9395
17367TIP3    H173516   3.843   4.990   2.586  3.0358  0.8216  0.5748
17367TIP3    H273517   3.796   4.847   2.578 -1.1539  2.0680  0.3734
17368TIP3   OH273518   2.393   0.836  15.734 -0.4040 -0.0391  0.0611
17368TIP3    H173519   2.348   0.914  15.702 -1.1435 -0.5423 -0.1397
17368TIP3    H273520   2.359   0.823  15.823 -1.1356 -0.7668 -0.3084
17369TIP3   OH273521   1.092   0.142  14.094 -0.3342  0.7265 -0.0226
17369TIP3    H173522   1.183   0.114  14.104 -0.8653 -1.9850 -1.8385
17369TIP3    H273523   1.041   0.081  14.146 -1.2153  1.7344  0.3438
17370TIP3   OH273524   5.554   4.998   2.939  0.8461  0.1953  0.3733
17370TIP3    H173525   5.599   5.005   3.023 -1.1210 -1.1247  1.6037
17370TIP3    H273526   5.492   5.071   2.938  1.0154  0.3409 -0.0482
17371TIP3   OH273527   4.287   1.218  16.211  0.6464 -0.1521 -0.0207
17371TIP3    H173528   4.311   1.258  16.128 -0.0625  0.3208 -0.0150
17371TIP3    H273529   4.368   1.182  16.246  1.0741  0.2379 -0.6018
17372TIP3   OH273530   2.916   5.032   4.170 -0.7385  0.0911  0.2469
17372TIP3    H173531   2.947   5.055   4.258 -1.2428 -3.0423  1.3471
17372TIP3    H273532   2.997   5.023   4.119 -0.4551  2.3335  0.1735
17373TIP3   OH273533   2.802   3.719   0.885 -0.1003  0.0847 -0.0025
17373TIP3    H173534   2.852   3.739   0.805  0.8867 -1.5033  0.1734
17373TIP3    H273535   2.727   3.669   0.854 -0.1820  0.2153 -0.0157
17374TIP3   OH273536   4.023   0.466   0.688  0.5100 -0.3391 -0.0200
17374TIP3    H173537   4.019   0.437   0.779 -1.9576  0.0444  0.0446
17374TIP3    H273538   4.019   0.561   0.693 -1.2288 -0.3569 -0.5463
17375TIP3   OH273539   4.033   1.785   6.448  0.4313 -0.5259  0.2173
17375TIP3    H173540   4.052   1.827   6.532 -0.2085 -0.9137  0.5635
17375TIP3    H273541   3.967   1.840   6.408  0.2900 -0.6773  0.2422
17376TIP3   OH273542   1.205   6.551   3.498 -0.1821  0.5091  0.0097
17376TIP3    H173543   1.120   6.510   3.479 -1.2807  2.1049  1.1765
17376TIP3    H273544   1.185   6.644   3.505  1.5859  0.8647  0.8599
17377TIP3   OH273545   1.915   2.106  14.314  0.2693 -0.4970  0.1134
17377TIP3    H173546   1.851   2.134  14.380  1.1688 -1.9092  1.6439
17377TIP3    H273547   1.993   2.082  14.364  0.5788 -2.8037 -1.3269
17378TIP3   OH273548   6.509   2.606  15.833  0.5535  0.0208 -0.3377
17378TIP3    H173549   6.597   2.622  15.798  0.1639 -0.8446 -1.7957
17378TIP3    H273550   6.453   2.602  15.756 -1.3226  3.2976  0.6663
17379TIP3   OH273551   1.171   3.437  13.412  0.0139  0.5591 -0.1270
17379TIP3    H173552   1.261   3.469  13.407  0.1093  0.4266  0.6604
17379TIP3    H273553   1.118   3.517  13.415 -0.1750  0.7627 -3.8020
17380TIP3   OH273554   5.257   1.941   3.229 -0.4766 -0.2729  0.2487
17380TIP3    H173555   5.185   1.887   3.261 -1.7133  0.5245 -1.0785
17380TIP3    H273556   5.275   2.003   3.300 -0.7344 -0.8141  0.7921
17381TIP3   OH273557   4.120   4.147  12.414 -0.2187  0.2058  0.2511
17381TIP3    H173558   4.110   4.194  12.497  2.0816  0.5862  0.3983
17381TIP3    H273559   4.188   4.196  12.368 -0.9829 -0.3947 -1.5818
17382TIP3   OH273560   3.497   4.458  14.972  0.1920  0.6495 -0.2051
17382TIP3    H173561   3.559   4.531  14.976 -0.2096  1.1068 -1.5725
17382TIP3    H273562   3.433   4.486  14.906 -0.2457 -0.7288 -0.3788
17383TIP3   OH273563   5.090   6.338   1.133  0.6259  0.2011 -0.2437
17383TIP3    H173564   5.185   6.348   1.144  0.8153  0.6733 -2.0048
17383TIP3    H273565   5.056   6.428   1.134  0.3804  0.1195 -0.9807
17384TIP3   OH273566   4.790   6.303  17.109  0.1817  1.0411  0.5185
17384TIP3    H173567   4.789   6.243  17.183  0.9360  0.3612 -0.0083
17384TIP3    H273568   4.748   6.382  17.142 -1.6278 -0.0442  0.9824
17385TIP3   OH273569   0.940   2.794  14.292 -0.4196 -0.8247 -0.6117
17385TIP3    H173570   0.952   2.717  14.236  1.1691 -0.0128 -1.4705
17385TIP3    H273571   0.946   2.761  14.381  0.2752 -1.7009 -0.9700
17386TIP3   OH273572   4.425   4.747  12.456  0.4105  0.1155  0.7979
17386TIP3    H173573   4.375   4.822  12.422 -0.5393  0.1347  2.1652
17386TIP3    H273574   4.466   4.709  12.378 -3.0462 -0.9177 -0.7234
17387TIP3   OH273575   0.626   0.315   3.698  0.3655 -0.1471 -0.2337
17387TIP3    H173576   0.625   0.399   3.742 -2.1268 -0.3522  0.2225
17387TIP3    H273577   0.594   0.333   3.609 -0.4211 -0.6405 -0.0559
17388TIP3   OH273578   0.744   0.934   1.159  0.0198  0.0511  0.6936
17388TIP3    H173579   0.808   0.947   1.229 -0.5424  0.0318  1.2134
17388TIP3    H273580   0.776   0.858   1.111  0.5041  0.1711  0.8194
17389TIP3   OH273581   0.072   2.014   4.817  0.5161  0.1089  0.1126
17389TIP3    H173582   0.071   2.068   4.738 -0.6992 -0.3183 -0.1833
17389TIP3    H273583  -0.014   1.973   4.819 -0.7769  2.5832  3.3576
17390TIP3   OH273584   2.104   3.565   5.282  0.2373  0.2188  0.0380
17390TIP3    H173585   2.159   3.539   5.356  0.4096 -0.0979 -0.1956
17390TIP3    H273586   2.066   3.483   5.251 -1.2944  0.5681  0.9158
17391TIP3   OH273587   0.585   5.230  14.078  0.2925 -0.4506 -0.0862
17391TIP3    H173588   0.498   5.198  14.100 -0.2187  0.9330  0.0496
17391TIP3    H273589   0.639   5.152  14.071 -0.5756 -1.2409  1.4946
17392TIP3   OH273590   0.517   5.582   5.676  0.4444  0.1159 -0.1666
17392TIP3    H173591   0.539   5.656   5.619 -1.3093  0.9760  0.2004
17392TIP3    H273592   0.556   5.604   5.760  1.6552 -0.3809 -0.5757
17393TIP3   OH273593   6.176   1.435  16.764  0.2604  0.1600  0.0457
17393TIP3    H173594   6.134   1.362  16.718  0.1825  0.6148 -0.6197
17393TIP3    H273595   6.257   1.398  16.798 -0.0391 -0.3779  0.1863
17394TIP3   OH273596   5.167   5.332  11.283 -0.1224  0.2601 -0.3480
17394TIP3    H173597   5.211   5.358  11.202 -0.0658 -0.4350 -0.5483
17394TIP3    H273598   5.121   5.411  11.311  0.5172  0.7398 -0.6174
17395TIP3   OH273599   3.307   6.704  14.014 -0.2582 -0.0439  0.6535
17395TIP3    H173600   3.231   6.709  14.072 -0.8894  0.4964 -0.2023
17395TIP3    H273601   3.341   6.615  14.026 -0.9222 -0.2284  1.1743
17396TIP3   OH273602   4.528   4.931  15.147 -0.0478 -0.0898  0.3777
17396TIP3    H173603   4.512   4.887  15.231 -0.4256 -2.7986 -1.0128
17396TIP3    H273604   4.495   4.871  15.081  1.6736  1.2154 -1.8380
17397TIP3   OH273605   5.281   1.311   0.631 -0.6662  0.4571  0.3325
17397TIP3    H173606   5.255   1.373   0.564  2.4798  2.2509  0.5757
17397TIP3    H273607   5.338   1.248   0.586 -0.3625  0.3180  0.8911
17398TIP3   OH273608   4.276   2.466  15.783  0.5539 -0.2260 -0.2315
17398TIP3    H173609   4.267   2.469  15.878  1.6629  0.5009 -0.1326
17398TIP3    H273610   4.304   2.377  15.764  1.0140 -0.1740  0.1921
17399TIP3   OH273611   1.377   0.721  14.417 -0.2230 -0.2150  0.5921
17399TIP3    H173612   1.298   0.772  14.396 -1.0851 -1.0374  1.7356
17399TIP3    H273613   1.344   0.639  14.453  1.1076  0.4952  3.7078
17400TIP3   OH273614   6.024   2.299   1.750  0.0815 -0.4174  0.1719
17400TIP3    H173615   6.052   2.380   1.707 -2.6037  0.7502  0.4242
17400TIP3    H273616   6.050   2.310   1.841 -0.8287  0.5072  0.3428
17401TIP3   OH273617   4.234   5.650  14.819 -0.2132 -0.2302 -0.1977
17401TIP3    H173618   4.160   5.707  14.796  0.9712  1.5816  0.2668
17401TIP3    H273619   4.196   5.587  14.881 -1.7025 -0.3522 -1.1778
17402TIP3   OH273620   1.236   3.138  11.434 -0.3365  0.5578 -0.1352
17402TIP3    H173621   1.291   3.147  11.512  0.4084 -0.2506 -0.5453
17402TIP3    H273622   1.165   3.201  11.447 -0.2436  0.4113  1.2033
17403TIP3   OH273623   3.997   5.341  13.121  0.5935  0.4123 -0.2045
17403TIP3    H173624   4.080   5.387  13.128 -0.3549  2.2233 -0.2136
17403TIP3    H273625   3.965   5.363  13.033 -0.9403  1.6912  0.6288
17404TIP3   OH273626   1.718   4.990   0.617  0.1641  0.3518  0.0574
17404TIP3    H173627   1.757   4.905   0.600  2.2772  1.1900  0.4245
17404TIP3    H273628   1.764   5.050   0.559 -0.7838  1.3662  0.3087
17405TIP3   OH273629   0.500   3.289  15.044  0.1169  0.7483 -0.2517
17405TIP3    H173630   0.562   3.228  15.085 -1.1104 -1.9483 -2.1103
17405TIP3    H273631   0.429   3.297  15.108  0.9174  1.4053  0.5898
17406TIP3   OH273632   6.339   4.789  12.526  0.2319 -0.1987 -0.6056
17406TIP3    H173633   6.270   4.770  12.589 -0.7173 -0.4990 -1.7076
17406TIP3    H273634   6.380   4.704  12.508  0.9561 -0.0136  0.0921
17407TIP3   OH273635   0.660   0.045  11.198  0.3700  0.0675  0.1577
17407TIP3    H173636   0.708   0.107  11.252  1.9934 -0.8213 -0.1878
17407TIP3    H273637   0.700  -0.040  11.218  0.5068 -0.3894 -1.8428
17408TIP3   OH273638   1.689   6.143   2.464 -0.1770  0.4835  0.2007
17408TIP3    H173639   1.727   6.201   2.398 -0.6815  0.3357 -0.2263
17408TIP3    H273640   1.717   6.055   2.436 -0.2515  0.4357  0.2792
17409TIP3   OH273641   4.670   1.038   5.572 -0.4313 -0.3440  0.3155
17409TIP3    H173642   4.612   1.097   5.523 -0.0422  0.2725  0.5876
17409TIP3    H273643   4.726   1.096   5.623 -0.2370 -0.9602  0.8193
17410TIP3   OH273644   1.560   1.510   2.385  0.2629  0.1044  0.1131
17410TIP3    H173645   1.603   1.569   2.323  0.2900  0.0548  0.0847
17410TIP3    H273646   1.511   1.568   2.443  1.0795  0.2263  0.6992
17411TIP3   OH273647   4.229   0.647   5.214  0.7573  0.0741 -0.1081
17411TIP3    H173648   4.313   0.673   5.252  0.5457 -0.3491  0.6507
17411TIP3    H273649   4.175   0.621   5.288  0.1116 -0.1249 -0.6334
17412TIP3   OH273650   2.629   0.995  11.705 -0.3791 -0.1221 -0.1383
17412TIP3    H173651   2.610   0.902  11.695  1.3298 -0.4685 -0.5835
17412TIP3    H273652   2.619   1.012  11.798 -0.5729 -0.7917 -0.0318
17413TIP3   OH273653   5.304   3.600   1.081 -0.1399 -0.3865  0.2471
17413TIP3    H173654   5.217   3.633   1.105 -0.4088 -0.9200  0.0189
17413TIP3    H273655   5.332   3.549   1.157 -0.0475 -0.2641  0.2962
17414TIP3   OH273656   5.090   3.036  15.635 -0.2144 -0.2521 -0.8807
17414TIP3    H173657   5.044   3.087  15.702  1.3856 -1.4413  1.2744
17414TIP3    H273658   5.022   2.990  15.587 -1.4140 -2.2151  2.3813
17415TIP3   OH273659   3.695   5.072  16.017  0.0810  0.1203  0.6454
17415TIP3    H173660   3.608   5.058  15.981 -1.1969  0.6658  3.2804
17415TIP3    H273661   3.714   4.991  16.066  1.3654 -0.2456 -0.3869
17416TIP3   OH273662   3.924   4.676   0.893 -0.4820 -0.2307  0.2057
17416TIP3    H173663   3.881   4.728   0.961  0.1478  0.3498  0.1743
17416TIP3    H273664   3.955   4.741   0.829  0.3880 -0.6349  0.2008
17417TIP3   OH273665   6.425   2.223   6.098 -0.4978  0.3578 -0.0509
17417TIP3    H173666   6.407   2.264   6.183  1.3226  0.4997  0.2886
17417TIP3    H273667   6.401   2.291   6.034 -1.2673  0.4845  0.3620
17418TIP3   OH273668   2.687   1.788   1.743  0.2796  0.4513  0.1781
17418TIP3    H173669   2.719   1.797   1.833  1.5444 -0.0362 -0.2107
17418TIP3    H273670   2.618   1.854   1.736  1.2586  1.6051  1.0174
17419TIP3   OH273671   1.525   5.799  14.411 -0.1757 -0.1751  0.8562
17419TIP3    H173672   1.449   5.848  14.379 -1.2841 -2.0621  0.4006
17419TIP3    H273673   1.498   5.707  14.403  1.4799 -0.8434  2.4261
17420TIP3   OH273674   0.674   3.535  12.781 -0.2037 -0.0388  0.1111
17420TIP3    H173675   0.713   3.613  12.741 -0.8720  0.9949  1.3945
17420TIP3    H273676   0.683   3.550  12.875 -2.7926 -0.2066  0.4438
17421TIP3   OH273677   0.442   6.256  13.971  0.4245  0.1294  0.3198
17421TIP3    H173678   0.404   6.339  13.944  1.7267  0.0428 -2.1151
17421TIP3    H273679   0.369   6.207  14.010 -0.7679  1.7135  0.1516
17422TIP3   OH273680   2.733   0.271  13.586 -0.4070  0.8938 -0.1366
17422TIP3    H173681   2.730   0.178  13.610  2.2920  0.7961  0.1490
17422TIP3    H273682   2.660   0.310  13.632 -0.6257 -0.8342  1.0680
17423TIP3   OH273683   0.246   2.696   1.380 -0.2105  0.0879 -0.0725
17423TIP3    H173684   0.235   2.739   1.465  0.3594 -0.9796  0.5561
17423TIP3    H273685   0.197   2.752   1.319 -0.2266  1.1346  0.8635
17424TIP3   OH273686   0.055   5.772  11.639  0.4757 -0.5470  0.4001
17424TIP3    H173687   0.114   5.697  11.634  0.4872 -0.4554 -1.5546
17424TIP3    H273688   0.111   5.845  11.664  1.7353 -0.0576 -3.2391
17425TIP3   OH273689   3.129   0.171  13.928 -0.1933  0.2901  0.1546
17425TIP3    H173690   3.047   0.215  13.953  0.6026  1.4108  0.8558
17425TIP3    H273691   3.174   0.154  14.011  1.5365  2.1708 -0.3361
17426TIP3   OH273692   2.112   0.253  15.935  0.1521 -0.0688  0.4648
17426TIP3    H173693   2.159   0.186  15.983 -0.7445  0.2859  1.9158
17426TIP3    H273694   2.179   0.298  15.883  1.1988 -0.3802  1.5049
17427TIP3   OH273695   3.270   2.287   2.440 -0.1621 -0.2987  0.0079
17427TIP3    H173696   3.288   2.378   2.417  1.6565 -0.3242  1.1153
17427TIP3    H273697   3.179   2.286   2.468 -0.2514  1.1446 -0.1869
17428TIP3   OH273698   2.579   5.632  16.900 -0.1059  0.3461 -0.6212
17428TIP3    H173699   2.497   5.671  16.931 -0.6562 -0.7859 -0.5848
17428TIP3    H273700   2.607   5.575  16.972 -0.1862 -0.5468 -1.2744
17429TIP3   OH273701   6.370   1.844  11.960  0.2045  0.5394  0.4623
17429TIP3    H173702   6.307   1.773  11.974 -0.1491  0.8003  0.2127
17429TIP3    H273703   6.419   1.818  11.882 -0.8273  1.1920 -0.4333
17430TIP3   OH273704   5.024   0.115   3.666  0.2397  0.7204 -0.5575
17430TIP3    H173705   4.962   0.064   3.614 -1.4660  2.8406 -0.7226
17430TIP3    H273706   4.974   0.146   3.741  1.3719  1.6658 -0.1501
17431TIP3   OH273707   5.059   3.870  14.953  0.2530 -0.5546  0.2856
17431TIP3    H173708   5.061   3.877  14.858 -0.0273  2.1867  0.4014
17431TIP3    H273709   5.150   3.881  14.980  0.2132 -0.4411  0.3728
17432TIP3   OH273710   4.693   1.224  15.835 -1.0329  0.5552  0.1054
17432TIP3    H173711   4.789   1.223  15.837 -0.9609 -0.5424 -1.6089
17432TIP3    H273712   4.667   1.254  15.922  0.8652  0.9741  0.5641
17433TIP3   OH273713   6.668   5.350  12.632 -0.7157 -0.0445  0.2330
17433TIP3    H173714   6.693   5.265  12.597  0.3279  0.5365 -0.4706
17433TIP3    H273715   6.728   5.412  12.591 -0.3733  0.8390  1.9589
17434TIP3   OH273716   5.222   4.002  16.635  0.0369 -0.3442  0.4820
17434TIP3    H173717   5.299   4.029  16.686  0.1921 -0.1524  0.1438
17434TIP3    H273718   5.168   4.081  16.629 -0.1978 -0.4823  0.7309
17435TIP3   OH273719   3.797   3.652  15.181  0.0965  0.0244 -0.0509
17435TIP3    H173720   3.772   3.623  15.269  1.6785 -1.8105 -0.1174
17435TIP3    H273721   3.860   3.723  15.196 -0.7063  0.6851  0.2421
17436TIP3   OH273722   3.294   2.281  12.796 -0.1898 -0.3596 -0.2475
17436TIP3    H173723   3.359   2.218  12.765 -1.3786 -1.3608 -0.7989
17436TIP3    H273724   3.212   2.230  12.802 -1.2718  1.2103 -1.0419
17437TIP3   OH273725   0.014   4.869   5.548 -0.3348  0.2956  0.0986
17437TIP3    H173726  -0.001   4.904   5.636  0.6885 -0.1660  0.4657
17437TIP3    H273727   0.091   4.916   5.516 -1.1098  0.9674 -0.8417
17438TIP3   OH273728   3.675   0.898   2.094 -0.7545  0.0451 -0.7072
17438TIP3    H173729   3.612   0.827   2.104  0.4358 -0.9006  0.4906
17438TIP3    H273730   3.761   0.855   2.104  0.0293  1.5052 -0.9106
17439TIP3   OH273731   1.020   1.743   1.906  0.2869  0.6934  0.8217
17439TIP3    H173732   1.104   1.698   1.918  1.0518  1.9659  0.5235
17439TIP3    H273733   1.042   1.818   1.850 -1.1038  0.9278  0.5658
17440TIP3   OH273734   6.073   1.869   6.427 -0.2836 -0.0899 -0.4241
17440TIP3    H173735   6.018   1.805   6.473 -0.8303  0.6256 -0.0551
17440TIP3    H273736   6.082   1.941   6.490  0.4297  0.1383 -0.7843
17441TIP3   OH273737   1.628   6.164   0.818  0.0041 -0.5064  0.5230
17441TIP3    H173738   1.709   6.215   0.825 -0.4362  0.3110 -0.1436
17441TIP3    H273739   1.658   6.074   0.811  0.8381 -0.2693  0.8571
17442TIP3   OH273740   4.563   3.841  14.776 -0.1438  0.4633 -0.0888
17442TIP3    H173741   4.554   3.748  14.798 -1.4861  0.1588 -1.7133
17442TIP3    H273742   4.650   3.847  14.736  1.2423  0.5509  2.6607
17443TIP3   OH273743   2.441   1.707  13.302 -0.0833  0.3544 -0.0181
17443TIP3    H173744   2.431   1.622  13.346  0.2752  0.6804  0.7173
17443TIP3    H273745   2.527   1.738  13.330 -0.9397  1.7765  1.1767
17444TIP3   OH273746   5.243   0.295  17.121 -0.0922 -0.3134  0.2948
17444TIP3    H173747   5.260   0.384  17.151  2.0796 -0.5759 -0.0007
17444TIP3    H273748   5.148   0.288  17.120 -0.3333  2.1103  0.0051
17445TIP3   OH273749   4.096   4.106  12.950  0.6885 -0.2874  0.9062
17445TIP3    H173750   4.050   4.022  12.952  1.8759 -1.0379 -0.5623
17445TIP3    H273751   4.183   4.084  12.916  0.8494  1.6341 -0.0314
17446TIP3   OH273752   0.280   5.453   2.453 -0.1712  0.4600 -0.3412
17446TIP3    H173753   0.373   5.453   2.476  0.0260 -1.2336 -1.0074
17446TIP3    H273754   0.235   5.469   2.535  0.6764 -0.0256  0.2353
17447TIP3   OH273755   1.164   3.786   1.282  0.8708  0.2404  0.7373
17447TIP3    H173756   1.213   3.838   1.345  0.8693 -0.4299  1.3092
17447TIP3    H273757   1.075   3.783   1.317  0.8969 -0.2284  0.7732
17448TIP3   OH273758   5.623   5.173  13.078 -0.6225 -0.3300 -0.1002
17448TIP3    H173759   5.559   5.237  13.111 -2.3624 -0.8558 -2.2537
17448TIP3    H273760   5.598   5.091  13.121 -0.3008 -0.1812  0.3723
17449TIP3   OH273761   2.837   4.590  13.911 -0.0395 -0.2258 -0.2781
17449TIP3    H173762   2.793   4.541  13.980 -0.4399  0.3763 -0.0927
17449TIP3    H273763   2.862   4.524  13.846 -1.1424 -0.6071 -0.3397
17450TIP3   OH273764   0.698   6.512  11.819  0.6734  0.1927 -0.2460
17450TIP3    H173765   0.658   6.577  11.877 -0.0716  0.1101 -0.6574
17450TIP3    H273766   0.711   6.435  11.875 -0.9950 -0.2483 -0.3936
17451TIP3   OH273767   4.415   3.842   5.163 -0.1962 -0.1080  0.6192
17451TIP3    H173768   4.339   3.788   5.146  0.0519 -0.1820 -0.3218
17451TIP3    H273769   4.383   3.911   5.222 -1.1060  0.1432 -0.1462
17452TIP3   OH273770   4.548   3.660   5.560  0.5301  0.2841 -0.2524
17452TIP3    H173771   4.455   3.684   5.555  0.2588 -0.7965 -0.7608
17452TIP3    H273772   4.590   3.736   5.600 -0.4776  1.0465 -0.5835
17453TIP3   OH273773   1.305   5.198  13.977 -0.0135 -0.4181  0.0698
17453TIP3    H173774   1.369   5.269  13.980  0.6937 -0.6618 -3.6916
17453TIP3    H273775   1.355   5.119  13.996 -0.0995 -0.2428  1.0591
17454TIP3   OH273776   2.759   2.006  11.357 -0.4987  0.2466 -0.1538
17454TIP3    H173777   2.720   2.069  11.297 -1.5890 -0.3748 -0.1165
17454TIP3    H273778   2.685   1.973  11.409  0.2345 -0.1564  0.6611
17455TIP3   OH273779   3.908   1.869   4.782 -0.3496 -0.0794 -0.1715
17455TIP3    H173780   3.982   1.829   4.737  0.3066 -0.5435  1.2521
17455TIP3    H273781   3.845   1.889   4.713  0.4987 -0.9953 -1.2378
17456TIP3   OH273782   1.864   3.368  14.444 -0.3400 -0.3285  0.4571
17456TIP3    H173783   1.947   3.395  14.405 -0.4215  0.1159  0.5807
17456TIP3    H273784   1.879   3.371  14.539 -0.7917  0.7421  0.5060
17457TIP3   OH273785   4.851   0.060  11.806  0.0992  0.3267 -0.1298
17457TIP3    H173786   4.762   0.081  11.831 -0.4522 -0.6040 -1.2069
17457TIP3    H273787   4.842  -0.013  11.744  1.6091  0.0888 -0.1103
17458TIP3   OH273788   0.702   3.072   6.655  0.3501  0.0261  0.4408
17458TIP3    H173789   0.654   3.014   6.714 -1.3050  0.5315 -0.3484
17458TIP3    H273790   0.762   3.014   6.608 -0.5028 -0.8797  0.4323
17459TIP3   OH273791   2.643   0.639   0.014 -0.2129  0.4281  0.5275
17459TIP3    H173792   2.575   0.684   0.064 -1.6521 -0.9419 -0.0844
17459TIP3    H273793   2.633   0.547   0.039  1.0751  0.1215 -0.0111
17460TIP3   OH273794   1.992   0.909  16.588 -0.2659 -0.4373 -0.0941
17460TIP3    H173795   1.988   0.933  16.495  0.6471 -1.6610 -0.4614
17460TIP3    H273796   2.027   0.987  16.631  1.4516 -0.6118 -1.0945
17461TIP3   OH273797   3.010   1.578   3.930 -0.6490  0.0044 -0.2621
17461TIP3    H173798   3.069   1.646   3.962 -0.0983 -0.6239  0.0820
17461TIP3    H273799   3.020   1.507   3.993 -0.6466 -0.6915 -1.0422
17462TIP3   OH273800   3.448   1.491  11.310  0.3232 -0.4815 -0.2532
17462TIP3    H173801   3.506   1.566  11.319  1.8912 -1.7152  0.6795
17462TIP3    H273802   3.390   1.496  11.386 -0.6106  0.5670 -1.0020
17463TIP3   OH273803   2.892   6.494  17.060  0.8019 -0.0367  0.3377
17463TIP3    H173804   2.859   6.563  17.003  0.1062  0.0441  0.8255
17463TIP3    H273805   2.986   6.513  17.069  0.3708  1.7659  1.6596
17464TIP3   OH273806   1.707   0.163   2.732  0.3633 -0.5235  0.1321
17464TIP3    H173807   1.683   0.192   2.644  1.1410 -0.4762 -0.0763
17464TIP3    H273808   1.749   0.078   2.719  1.4555 -0.0383  0.3178
17465TIP3   OH273809   3.383   5.075   5.070 -0.1831  0.2820  0.5632
17465TIP3    H173810   3.300   5.043   5.106 -0.5389 -0.0349 -0.4878
17465TIP3    H273811   3.382   5.170   5.087 -2.0469  0.7855 -1.7445
17466TIP3   OH273812   4.471   1.353   2.200  0.8148  0.4102  0.8817
17466TIP3    H173813   4.554   1.320   2.165 -0.4813 -0.6926 -1.3294
17466TIP3    H273814   4.434   1.407   2.130 -1.9943 -2.0495  0.2766
17467TIP3   OH273815   1.937   3.604  13.809  0.6591 -0.5307  0.3005
17467TIP3    H173816   1.846   3.632  13.797  0.7512 -0.5960 -0.6403
17467TIP3    H273817   1.936   3.510  13.788  0.7465 -0.7802  1.3591
17468TIP3   OH273818   4.152   0.988   6.046  0.3622  0.2223  0.4924
17468TIP3    H173819   4.181   1.079   6.040 -1.7107  0.9133  0.1898
17468TIP3    H273820   4.211   0.948   6.110 -0.2443  2.4480  2.5949
17469TIP3   OH273821   6.024   3.708  10.904  0.1511 -0.0143 -0.4809
17469TIP3    H173822   6.042   3.662  10.822  5.2316  0.5770 -0.0169
17469TIP3    H273823   5.994   3.795  10.877 -0.6816 -0.6229 -1.5902
17470TIP3   OH273824   4.505   4.344   5.395  0.4121  0.3010  0.1207
17470TIP3    H173825   4.557   4.395   5.333  0.0361 -1.8191 -2.1177
17470TIP3    H273826   4.426   4.321   5.347 -0.4475 -0.4787  1.8124
17471TIP3   OH273827   2.379   5.167  17.069  0.3395  0.1737 -0.0937
17471TIP3    H173828   2.445   5.149  17.003 -1.0622 -0.2501 -1.4344
17471TIP3    H273829   2.319   5.093  17.065 -0.1850  0.4955  1.1505
17472TIP3   OH273830   3.798   4.493   5.009 -0.1348  0.0246 -0.0311
17472TIP3    H173831   3.837   4.570   5.051  1.1298 -0.9664  0.6999
17472TIP3    H273832   3.707   4.493   5.039  0.2417  0.4218  1.1715
17473TIP3   OH273833   3.724   2.618   1.881 -0.4915  0.1819  0.0357
17473TIP3    H173834   3.637   2.602   1.920 -0.1486 -1.7344  0.1329
17473TIP3    H273835   3.778   2.647   1.955 -1.1622  1.9851 -0.1398
17474TIP3   OH273836   0.547   2.276   3.161 -0.2392  0.5410  0.1081
17474TIP3    H173837   0.524   2.324   3.081 -4.9538  0.2248  1.0399
17474TIP3    H273838   0.568   2.345   3.225  1.4024  0.8728 -0.7357
17475TIP3   OH273839   1.692   0.274  12.639 -0.7638 -0.4212  0.2390
17475TIP3    H173840   1.702   0.298  12.547 -0.3096  1.5200  0.7686
17475TIP3    H273841   1.776   0.236  12.664 -0.3650  0.4756  0.2588
17476TIP3   OH273842   4.710   6.239   5.715 -0.8035  0.6074  0.0837
17476TIP3    H173843   4.707   6.334   5.725 -1.4818  0.4960  1.1573
17476TIP3    H273844   4.728   6.207   5.803  1.2723 -0.2150 -0.5830
17477TIP3   OH273845   3.850   2.856   5.226 -0.2432 -0.4744 -0.1778
17477TIP3    H173846   3.941   2.877   5.202 -0.5216 -1.9438 -3.0644
17477TIP3    H273847   3.814   2.816   5.146 -2.7414 -2.0700  1.6163
17478TIP3   OH273848   2.432   6.131   0.959 -0.7491 -0.7265 -0.2232
17478TIP3    H173849   2.514   6.160   0.918 -1.9151  3.0251 -0.2927
17478TIP3    H273850   2.458   6.099   1.045  0.9518 -1.6828 -1.0446
17479TIP3   OH273851   5.506   6.617   2.186  0.1590 -0.0792  0.0212
17479TIP3    H173852   5.582   6.653   2.231 -0.0750  0.2168  0.1803
17479TIP3    H273853   5.451   6.582   2.256  0.4334 -0.8462 -0.1381
17480TIP3   OH273854   6.422   3.604  10.896 -0.0968  0.1721  0.0044
17480TIP3    H173855   6.361   3.643  10.958  0.5477  1.0771  0.0914
17480TIP3    H273856   6.485   3.673  10.877 -0.1702 -0.1381 -1.5404
17481TIP3   OH273857   4.069   4.839   3.045 -0.2936  0.1336 -0.2641
17481TIP3    H173858   3.992   4.866   2.995 -0.5642 -0.9687 -0.4657
17481TIP3    H273859   4.053   4.748   3.067 -0.2993  0.6258  2.0728
17482TIP3   OH273860   1.516   3.795  17.042  0.1939  0.5337  0.5395
17482TIP3    H173861   1.525   3.787  17.137  1.5327 -0.0260  0.3762
17482TIP3    H273862   1.453   3.727  17.018 -1.0262  1.4125  1.1383
17483TIP3   OH273863   4.165   5.139   1.252  0.2339 -0.2083 -0.1484
17483TIP3    H173864   4.093   5.078   1.236  1.1724 -1.1813 -0.7842
17483TIP3    H273865   4.132   5.223   1.221 -0.7656 -0.5652 -0.0852
17484TIP3   OH273866   5.629   3.401  16.555  0.7305  0.5498 -0.4813
17484TIP3    H173867   5.557   3.347  16.588  1.6519 -0.1695  0.4074
17484TIP3    H273868   5.699   3.338  16.537  1.9591  1.4674  0.9004
17485TIP3   OH273869   0.795   5.013  12.129 -0.1860 -0.2729  0.0126
17485TIP3    H173870   0.779   4.922  12.158  0.9462  0.0049  1.6364
17485TIP3    H273871   0.811   5.061  12.210 -1.2830  1.5258 -0.7724
17486TIP3   OH273872   2.374   0.253   3.232  0.2410 -0.5057  0.3618
17486TIP3    H173873   2.443   0.290   3.287  0.7954  0.5677 -0.9926
17486TIP3    H273874   2.331   0.329   3.192 -0.3191 -1.2319 -0.4654
17487TIP3   OH273875   5.909   4.309   5.789 -0.1261 -0.3283 -0.1305
17487TIP3    H173876   5.897   4.295   5.695 -0.9356 -2.0498  0.1803
17487TIP3    H273877   6.003   4.324   5.800  0.1321 -1.1457 -1.1150
17488TIP3   OH273878   5.156   2.316   2.461 -0.3813 -0.0145  0.1336
17488TIP3    H173879   5.099   2.359   2.526 -0.6821  1.4622 -1.0451
17488TIP3    H273880   5.225   2.276   2.514 -1.4955 -0.2617  1.4750
17489TIP3   OH273881   4.195   2.161   3.459 -0.1168 -0.3711 -0.1747
17489TIP3    H173882   4.135   2.225   3.496  0.4567 -1.8712  3.9143
17489TIP3    H273883   4.239   2.123   3.535  3.8740 -1.4700 -2.7133
17490TIP3   OH273884   5.414   3.616  11.216  0.6574  0.1031 -0.6554
17490TIP3    H173885   5.445   3.707  11.211  1.0665 -0.1151 -2.4477
17490TIP3    H273886   5.385   3.595  11.128 -1.8593 -0.7101  0.2646
17491TIP3   OH273887   2.097   4.937   2.835  0.8392 -0.5956 -0.4867
17491TIP3    H173888   2.078   5.009   2.774 -1.3147 -0.1403  0.6305
17491TIP3    H273889   2.192   4.936   2.841  0.9717  2.1149 -0.6609
17492TIP3   OH273890   3.354   3.748   4.396  0.1720  0.0437 -0.2868
17492TIP3    H173891   3.344   3.814   4.327 -1.5808 -1.6456 -1.7556
17492TIP3    H273892   3.435   3.702   4.374  1.2027  1.3645  0.5347
17493TIP3   OH273893   0.770   6.115  15.826  0.0051  0.4543  0.1630
17493TIP3    H173894   0.840   6.050  15.818  0.7365  1.3297 -0.7584
17493TIP3    H273895   0.706   6.091  15.759  0.6526  1.1337 -0.7063
17494TIP3   OH273896   3.745   5.835  11.815 -0.7257 -0.0921 -0.6093
17494TIP3    H173897   3.777   5.880  11.892 -0.0279 -1.7903  0.1398
17494TIP3    H273898   3.793   5.874  11.742 -0.1401  0.3457  0.0017
17495TIP3   OH273899   5.702   4.124  12.234 -0.3383  0.7886  0.4560
17495TIP3    H173900   5.691   4.063  12.307  0.2750  2.2515  1.8411
17495TIP3    H273901   5.660   4.080  12.160 -3.7654  0.4804  2.3359
17496TIP3   OH273902   4.529   6.441  16.177  0.1724  0.0430 -0.1195
17496TIP3    H173903   4.441   6.454  16.142  0.3314 -1.0475 -0.9476
17496TIP3    H273904   4.587   6.479  16.111  0.3530  0.2870  0.1778
17497TIP3   OH273905   5.679   0.192  13.210  0.0706  0.2395  0.3154
17497TIP3    H173906   5.638   0.275  13.237  3.0253  1.7019  0.7670
17497TIP3    H273907   5.623   0.124  13.248 -1.3586  2.0611  1.6801
17498TIP3   OH273908   0.430   2.331   0.712 -0.4545  0.1613 -0.4898
17498TIP3    H173909   0.504   2.346   0.771 -1.1220 -0.6678  0.5974
17498TIP3    H273910   0.471   2.307   0.628  0.5769 -2.0522  0.5478
17499TIP3   OH273911   3.624   6.664  14.667 -0.0301  0.8493 -0.4239
17499TIP3    H173912   3.586   6.724  14.602  0.7255  0.6588 -1.0534
17499TIP3    H273913   3.657   6.722  14.736  0.3132  1.1436 -0.8268
17500TIP3   OH273914   3.202   3.690   3.419  0.4241 -0.2180  0.1685
17500TIP3    H173915   3.178   3.616   3.363  2.0096 -2.2294  2.0012
17500TIP3    H273916   3.125   3.703   3.475  0.5036 -1.2099  0.5339
17501TIP3   OH273917   6.770   5.272   0.345 -0.1391  0.1083  0.9270
17501TIP3    H173918   6.730   5.347   0.392 -0.0780  1.0383 -0.4578
17501TIP3    H273919   6.708   5.200   0.359 -2.2657  1.4390 -0.9097
17502TIP3   OH273920   2.171   5.571   1.642 -0.5921 -0.2406 -0.4667
17502TIP3    H173921   2.222   5.525   1.708 -0.6428 -0.1215 -0.3455
17502TIP3    H273922   2.112   5.504   1.606  0.0159 -0.5163 -0.9871
17503TIP3   OH273923   2.003   4.421   4.835  0.2223 -0.6788 -0.2317
17503TIP3    H173924   2.042   4.406   4.749  3.2438 -0.3306  0.9509
17503TIP3    H273925   1.946   4.497   4.821  1.3983  0.0051 -1.7823
17504TIP3   OH273926   2.002   5.807  12.179  0.3676 -0.3680  0.1713
17504TIP3    H173927   2.044   5.833  12.097  1.0385 -1.8269  0.0110
17504TIP3    H273928   2.067   5.827  12.247 -1.1061  3.1534  0.7422
17505TIP3   OH273929   4.763   0.039   0.150  0.8335 -0.1729  0.9155
17505TIP3    H173930   4.856   0.021   0.164  1.1226  1.5887  1.4485
17505TIP3    H273931   4.718  -0.030   0.199  1.8085 -1.8424 -0.4183
17506TIP3   OH273932   0.011   3.831  11.466  0.2326 -0.3714 -0.1468
17506TIP3    H173933   0.059   3.835  11.383  0.2477  2.4091 -0.1026
17506TIP3    H273934   0.075   3.859  11.532 -0.8635  1.5628  0.1698
17507TIP3   OH273935   5.382   1.036   2.625  0.2433  0.0439  0.3679
17507TIP3    H173936   5.462   1.078   2.658 -0.1384 -0.0210  1.3769
17507TIP3    H273937   5.367   1.078   2.540  2.1518 -0.9411 -0.5257
17508TIP3   OH273938   5.682   2.402   1.216  0.1524  0.2432 -0.1685
17508TIP3    H173939   5.731   2.481   1.193  0.6263  0.0296  0.0861
17508TIP3    H273940   5.742   2.330   1.198  0.0528 -0.0026  0.4507
17509TIP3   OH273941   0.854   3.821   1.747 -0.1747  0.1965 -0.1269
17509TIP3    H173942   0.764   3.834   1.716 -0.1697  0.6452  0.0403
17509TIP3    H273943   0.879   3.905   1.785 -0.1066 -0.2692  0.9034
17510TIP3   OH273944   1.833   6.351   1.791 -0.2904  0.5929 -0.6274
17510TIP3    H173945   1.921   6.359   1.755 -0.6250  1.5953 -1.2836
17510TIP3    H273946   1.780   6.317   1.720 -0.5327  0.4984 -0.4042
17511TIP3   OH273947   5.573   6.771   1.355  0.3271  0.5183 -0.3626
17511TIP3    H173948   5.660   6.789   1.319  0.3558  2.2452  0.4964
17511TIP3    H273949   5.536   6.857   1.372 -1.3567 -0.2078 -0.2181
17512TIP3   OH273950   4.076   6.272   0.814 -0.4140  0.0492  0.4036
17512TIP3    H173951   4.052   6.209   0.881  1.9366 -0.6649  0.6772
17512TIP3    H273952   4.099   6.218   0.738 -0.3041  0.6721 -0.0094
17513TIP3   OH273953   1.821   0.550  16.581  0.9015  0.7712  0.0430
17513TIP3    H173954   1.825   0.465  16.536 -1.6225  1.2567 -1.2719
17513TIP3    H273955   1.863   0.534  16.666 -0.3767 -2.0676  0.2496
17514TIP3   OH273956   6.264   5.095  15.992 -0.0882  0.2279 -0.7233
17514TIP3    H173957   6.337   5.151  16.019  0.0310  0.7339 -1.9947
17514TIP3    H273958   6.219   5.146  15.924 -0.5011 -0.8626 -1.2871
17515TIP3   OH273959   1.086   3.938   4.799 -0.7450 -0.1022  0.1595
17515TIP3    H173960   1.059   3.848   4.780  1.2035 -0.4026 -1.4598
17515TIP3    H273961   1.168   3.929   4.848 -0.1006  0.7671 -0.7229
17516TIP3   OH273962   0.276   6.708  14.470  0.1273 -0.4325  0.3305
17516TIP3    H173963   0.313   6.767  14.405  0.2516 -1.8662 -0.9698
17516TIP3    H273964   0.266   6.761  14.548  0.3034  1.2630 -0.7510
17517TIP3   OH273965   2.289   3.839  16.291  0.2568 -0.6305  0.2370
17517TIP3    H173966   2.249   3.855  16.206 -1.3695 -0.8915  0.9239
17517TIP3    H273967   2.324   3.750  16.284  0.3669 -0.5508 -0.2425
17518TIP3   OH273968   2.275   5.552  13.458 -0.0402 -0.1622 -0.2484
17518TIP3    H173969   2.346   5.526  13.399 -0.4289 -0.5511 -0.5495
17518TIP3    H273970   2.236   5.629  13.415 -0.2872 -0.4113 -0.4769
17519TIP3   OH273971   2.626   5.465   1.103 -0.1635  0.5160 -0.4502
17519TIP3    H173972   2.548   5.512   1.133 -0.3073  0.2823 -0.4546
17519TIP3    H273973   2.630   5.481   1.009  0.0807  0.9462 -0.3688
17520TIP3   OH273974   6.151   1.348   5.728 -0.0723 -1.1996  0.5958
17520TIP3    H173975   6.062   1.322   5.750 -1.1544  0.5566 -1.3594
17520TIP3    H273976   6.188   1.378   5.811 -1.0862 -2.4459  1.5434
17521TIP3   OH273977   1.790   6.724   1.380 -0.1460  0.0382  0.5278
17521TIP3    H173978   1.752   6.809   1.360  0.7034  0.1949 -0.5349
17521TIP3    H273979   1.800   6.723   1.475 -3.2204 -0.2164  0.9425
17522TIP3   OH273980   1.598   5.412   1.903  0.1534  0.2125  0.0413
17522TIP3    H173981   1.643   5.478   1.850 -0.6482  0.4773 -0.3224
17522TIP3    H273982   1.569   5.460   1.981  0.5764  0.0209  0.3178
17523TIP3   OH273983   4.305   3.538   3.888  0.8803 -0.5793  0.3577
17523TIP3    H173984   4.298   3.535   3.984  0.8787 -1.7403  0.3369
17523TIP3    H273985   4.324   3.630   3.869  2.7076 -0.6159  1.6209
17524TIP3   OH273986   5.688   1.727   2.215  0.3836  0.4044  0.4552
17524TIP3    H173987   5.758   1.782   2.181 -0.5302  0.8523 -0.8035
17524TIP3    H273988   5.610   1.784   2.213 -0.8570 -1.1644 -1.9919
17525TIP3   OH273989   2.784   5.194  11.246 -0.1796 -0.8205 -0.6598
17525TIP3    H173990   2.877   5.174  11.238  0.0760 -0.0751  0.4265
17525TIP3    H273991   2.771   5.272  11.193  0.1988  0.1838  0.6942
17526TIP3   OH273992   1.843   5.156  15.598 -0.1661  0.1709  0.2576
17526TIP3    H173993   1.782   5.092  15.562 -0.2095  0.0599  0.5261
17526TIP3    H273994   1.921   5.148  15.542  0.0037 -0.4478  0.5732
17527TIP3   OH273995   4.954   2.825   0.441 -0.0142 -0.9299  0.0406
17527TIP3    H173996   4.954   2.916   0.470 -1.1516 -0.7088 -0.5901
17527TIP3    H273997   4.876   2.787   0.482 -1.0537 -0.8891 -1.7969
17528TIP3   OH273998   2.569   2.495   5.501  0.2588 -0.0457  0.3828
17528TIP3    H173999   2.552   2.445   5.421  0.9070 -0.1524  0.3005
17528TIP3    H274000   2.535   2.440   5.571 -0.6570  0.2192  0.1583
17529TIP3   OH274001   3.672   6.436   0.837 -0.0580  0.3914  0.1630
17529TIP3    H174002   3.744   6.498   0.833 -0.4431  0.8413  0.1363
17529TIP3    H274003   3.671   6.395   0.750 -0.0537  0.6319  0.0505
17530TIP3   OH274004   5.183   6.683   6.056 -0.1148 -0.4435 -0.0351
17530TIP3    H174005   5.276   6.682   6.036  0.4429 -0.3066  2.2276
17530TIP3    H274006   5.157   6.591   6.054  0.0742 -0.4882 -0.6135
17531TIP3   OH274007   6.316   0.736   3.639 -0.1001 -0.3988  0.1513
17531TIP3    H174008   6.308   0.641   3.646  1.6503 -0.5961 -0.0144
17531TIP3    H274009   6.283   0.770   3.722  1.5116 -1.3281  1.2209
17532TIP3   OH274010   3.616   4.768   5.003  0.3179 -0.4143 -0.1722
17532TIP3    H174011   3.634   4.844   5.058 -2.4303 -0.2679  0.6397
17532TIP3    H274012   3.593   4.698   5.065 -0.8702 -0.8150 -1.0304
17533TIP3   OH274013   0.389   5.103   5.055 -0.2799 -0.1647 -0.3566
17533TIP3    H174014   0.355   5.134   4.971 -0.2311 -0.4300 -0.4752
17533TIP3    H274015   0.314   5.108   5.114 -0.0811  0.9262 -0.1700
17534TIP3   OH274016   1.458   5.557  15.690  0.8728  0.2739  0.5483
17534TIP3    H174017   1.485   5.642  15.656  2.2214  0.0366  0.9608
17534TIP3    H274018   1.531   5.498  15.668 -0.1840 -0.8698 -0.0661
17535TIP3   OH274019   3.203   4.870   6.016  0.2420 -0.0782  0.1266
17535TIP3    H174020   3.147   4.881   6.092 -2.2399  2.9674 -1.8790
17535TIP3    H274021   3.165   4.796   5.968 -1.2907  1.0424 -0.4745
17536TIP3   OH274022   5.017   5.605   0.398  0.3418  0.3340 -0.0724
17536TIP3    H174023   5.101   5.633   0.360 -0.0398 -1.4582 -2.4991
17536TIP3    H274024   5.041   5.562   0.480  2.2159 -2.2917 -1.8114
17537TIP3   OH274025   5.817   3.003   2.336 -0.4259 -0.9398  0.6759
17537TIP3    H174026   5.790   3.017   2.427 -0.1620  0.0415  0.6147
17537TIP3    H274027   5.881   2.932   2.341  1.4436  0.6897  1.6191
17538TIP3   OH274028   0.677   3.243  12.822  0.7130 -0.1569 -0.1482
17538TIP3    H174029   0.666   3.148  12.814  2.6896 -0.5374  0.9966
17538TIP3    H274030   0.593   3.274  12.855  0.2530 -1.6021  0.1298
17539TIP3   OH274031   3.909   2.787  11.152  0.2088  0.3575 -0.4739
17539TIP3    H174032   3.825   2.831  11.163  0.1202  0.4211 -1.3746
17539TIP3    H274033   3.887   2.696  11.134  0.3266  0.3925 -0.8031
17540TIP3   OH274034   4.646   6.074  16.646 -0.0618 -0.0590 -0.1841
17540TIP3    H174035   4.708   6.146  16.656 -0.5448  0.2667  0.5106
17540TIP3    H274036   4.587   6.082  16.720  0.2123 -1.5172  0.2330
17541TIP3   OH274037   2.321   4.175   0.169 -0.3303  0.2128 -0.0247
17541TIP3    H174038   2.384   4.162   0.240  0.1834 -0.2875 -0.5655
17541TIP3    H274039   2.333   4.099   0.112 -1.3187  0.1912 -0.2213
17542TIP3   OH274040   1.261   4.271  15.250 -0.4145 -0.8235 -0.0008
17542TIP3    H174041   1.205   4.245  15.177 -1.3785  1.9700 -0.3385
17542TIP3    H274042   1.350   4.254  15.218 -0.7085  1.8165 -2.5637
17543TIP3   OH274043   1.906   0.625   1.765 -0.5393 -0.0427 -0.0285
17543TIP3    H174044   1.910   0.713   1.726  1.3436  0.3403  0.8692
17543TIP3    H274045   1.948   0.636   1.850  0.6012 -2.0079 -0.2837
17544TIP3   OH274046   3.211   6.112  15.812  0.1026 -0.1667 -0.1048
17544TIP3    H174047   3.176   6.131  15.725 -0.6695  1.0780  0.4453
17544TIP3    H274048   3.248   6.024  15.805  0.1119 -0.0584 -1.7000
17545TIP3   OH274049   2.214   3.372   4.239 -0.3140 -0.2466  0.7549
17545TIP3    H174050   2.120   3.375   4.258 -0.5612 -1.0368 -0.2955
17545TIP3    H274051   2.226   3.434   4.167 -0.1375 -0.6122  0.4674
17546TIP3   OH274052   1.474   3.329   4.622  0.1916 -0.1302  1.1251
17546TIP3    H174053   1.385   3.364   4.628  0.3122  0.1878  1.0855
17546TIP3    H274054   1.466   3.255   4.562  0.3788  1.4241 -0.9375
17547TIP3   OH274055   6.110   5.443  15.375  0.0060  0.0269  0.5182
17547TIP3    H174056   6.102   5.371  15.438 -0.4660 -0.6412 -0.2697
17547TIP3    H274057   6.082   5.521  15.423  0.6395 -0.2951  1.4228
17548TIP3   OH274058   3.161   4.744   1.718  0.1340  0.1713  0.0361
17548TIP3    H174059   3.074   4.709   1.701  0.0327  0.6554 -0.4703
17548TIP3    H274060   3.213   4.718   1.642  0.3597  0.1208  0.2056
17549TIP3   OH274061   5.361   3.479  17.064 -0.2620  0.2409  0.1342
17549TIP3    H174062   5.453   3.487  17.089 -0.1759  1.4657 -0.4965
17549TIP3    H274063   5.363   3.442  16.976 -0.2511  2.0062 -0.6563
17550TIP3   OH274064   3.605   0.961  15.513 -0.2045  0.2064  0.5000
17550TIP3    H174065   3.545   0.922  15.448  0.7282  0.3260 -0.4556
17550TIP3    H274066   3.583   1.054  15.513  3.7526  1.5927 -4.3731
17551TIP3   OH274067   0.307   3.686   4.910  0.2243  0.2778  0.2130
17551TIP3    H174068   0.356   3.738   4.846  0.1680 -1.0819 -0.9735
17551TIP3    H274069   0.218   3.682   4.875  0.4320 -1.3465 -0.1977
17552TIP3   OH274070   3.058   0.191   5.177 -0.0227 -0.1855  0.4768
17552TIP3    H174071   3.008   0.269   5.154 -0.3421 -0.7621 -0.8601
17552TIP3    H274072   3.150   0.218   5.170 -0.0842 -0.4460 -2.0426
17553TIP3   OH274073   4.887   5.657  15.902 -0.1786  0.1159  0.0666
17553TIP3    H174074   4.979   5.675  15.881 -0.4381 -1.1447 -2.5296
17553TIP3    H274075   4.867   5.577  15.855 -2.8697  0.8570 -0.1869
17554TIP3   OH274076   3.712   6.292   3.034 -0.0110  0.3663 -0.1151
17554TIP3    H174077   3.704   6.205   2.995  2.9700  0.4734 -1.1597
17554TIP3    H274078   3.682   6.280   3.125  0.0008 -1.6638 -0.3232
17555TIP3   OH274079   4.018   0.113   6.294  0.2555 -0.2607 -0.0513
17555TIP3    H174080   4.087   0.155   6.344  0.2042 -0.7200  0.4151
17555TIP3    H274081   3.964   0.185   6.262  0.6895  0.0756 -0.0443
17556TIP3   OH274082   5.553   2.024   4.174 -0.0480 -0.1903 -0.0886
17556TIP3    H174083   5.622   1.964   4.146 -0.1909 -0.4553  0.1216
17556TIP3    H274084   5.501   1.973   4.236 -2.2377 -1.0528 -2.4500
17557TIP3   OH274085   0.936   4.445  17.146 -0.2490  0.5152 -0.6831
17557TIP3    H174086   0.930   4.397  17.229  4.1053  1.0556  0.1469
17557TIP3    H274087   0.922   4.378  17.080  1.6447 -1.1826  0.5077
17558TIP3   OH274088   5.706   0.727   0.913 -0.1583  0.4669 -0.1837
17558TIP3    H174089   5.637   0.793   0.921 -0.7477  0.0736 -1.5685
17558TIP3    H274090   5.663   0.654   0.869  0.8945 -0.1837 -0.1501
17559TIP3   OH274091   1.929   0.685  11.548  0.3734 -0.9156 -0.2153
17559TIP3    H174092   1.940   0.779  11.560 -1.9233 -0.4334 -1.2984
17559TIP3    H274093   1.879   0.657  11.625 -0.5560 -0.8577 -0.7793
17560TIP3   OH274094   1.636   0.103  13.997  0.3442 -0.4005 -0.1648
17560TIP3    H174095   1.686   0.023  14.013  0.7306 -0.1573 -0.1638
17560TIP3    H274096   1.572   0.078  13.931  0.4636 -0.7121 -0.1630
17561TIP3   OH274097   2.369   4.784   2.228 -0.2850  0.2262  0.9175
17561TIP3    H174098   2.356   4.800   2.134 -1.0470 -0.3781  0.8985
17561TIP3    H274099   2.348   4.867   2.270  2.0843  1.1324  0.4447
17562TIP3   OH274100   0.376   2.553  11.784  0.3332  0.1178 -0.3195
17562TIP3    H174101   0.448   2.535  11.845 -0.1541 -1.0467 -0.0811
17562TIP3    H274102   0.305   2.586  11.840  0.2331  0.0174 -0.3883
17563TIP3   OH274103   2.574   3.887  11.111 -0.2570 -0.3727  0.2577
17563TIP3    H174104   2.513   3.914  11.042  0.3495  0.8987  0.1795
17563TIP3    H274105   2.656   3.870  11.064  0.0134 -0.0096  0.5869
17564TIP3   OH274106   3.362   4.931  16.510 -0.6560  0.1599  0.0144
17564TIP3    H174107   3.304   4.870  16.465 -0.3323  0.3243 -0.6420
17564TIP3    H274108   3.427   4.875  16.553 -0.1784  0.0390 -0.8419
17565TIP3   OH274109   0.593   0.311  13.014  0.5024 -0.3786 -0.1344
17565TIP3    H174110   0.576   0.312  12.920  1.9402  1.3010 -0.4479
17565TIP3    H274111   0.689   0.315  13.020  0.3980  0.6200  1.3752
17566TIP3   OH274112   5.766   2.831  11.205 -0.0553 -0.2343  0.5373
17566TIP3    H174113   5.713   2.809  11.129  0.6228 -0.4717  0.1346
17566TIP3    H274114   5.723   2.785  11.278 -1.5423  1.1337  0.5739
17567TIP3   OH274115   3.243   4.944   2.273 -0.3199 -0.2459 -0.5180
17567TIP3    H174116   3.226   5.037   2.288 -0.1438 -0.4604  1.1980
17567TIP3    H274117   3.157   4.903   2.279 -0.1435 -0.4620  1.2151
17568TIP3   OH274118   4.183   6.648  15.949 -0.1792 -0.4366 -0.0165
17568TIP3    H174119   4.131   6.625  15.872  0.7560 -0.4361 -0.6596
17568TIP3    H274120   4.133   6.717  15.992 -0.7127 -0.4445 -0.6136
17569TIP3   OH274121   3.836   4.631  16.325  0.1229  0.7061 -0.3218
17569TIP3    H174122   3.842   4.555  16.384 -2.9269  0.0320 -0.7075
17569TIP3    H274123   3.820   4.705  16.383 -0.6209  0.4004 -0.1138
17570TIP3   OH274124   6.186   1.580   3.577 -0.1201 -0.5594 -0.0357
17570TIP3    H174125   6.214   1.535   3.497  0.1188  1.2497 -1.0156
17570TIP3    H274126   6.262   1.574   3.635  1.1781  1.4051 -1.4194
17571TIP3   OH274127   3.817   0.360  12.949 -0.1308 -0.2264  0.0887
17571TIP3    H174128   3.776   0.442  12.978  0.1760  0.3187 -0.9558
17571TIP3    H274129   3.902   0.358  12.994 -0.2773 -0.1427  0.3718
17572TIP3   OH274130   3.518   4.653   3.116  0.4668 -0.1641 -0.0227
17572TIP3    H174131   3.555   4.567   3.134 -0.8093 -0.6173  0.5666
17572TIP3    H274132   3.526   4.663   3.022  1.4855 -0.5110  0.0136
17573TIP3   OH274133   1.666   5.780   5.198 -0.0119 -0.0488 -0.2303
17573TIP3    H174134   1.634   5.870   5.194 -0.7832 -0.3411 -1.1499
17573TIP3    H274135   1.624   5.736   5.123  1.7612 -0.7246 -0.8988
17574TIP3   OH274136   1.635   1.075  16.299 -0.2670 -0.1076 -0.1578
17574TIP3    H174137   1.606   1.165  16.310 -0.1639  0.0204 -0.8755
17574TIP3    H274138   1.658   1.046  16.387 -0.7288  0.4161  0.1419
17575TIP3   OH274139   4.867   5.508   4.436  0.1791 -0.7992 -0.1949
17575TIP3    H174140   4.775   5.524   4.456  0.1157 -0.0290 -1.0022
17575TIP3    H274141   4.912   5.588   4.463  0.6334 -1.2145  0.2975
17576TIP3   OH274142   5.408   1.148  12.168  0.4408 -0.2399  0.0449
17576TIP3    H174143   5.339   1.108  12.116  1.0184 -2.0973  0.6564
17576TIP3    H274144   5.362   1.212  12.223 -0.3177  0.9468 -1.8727
17577TIP3   OH274145   3.332   4.983   0.228 -0.4504 -0.1884  0.4227
17577TIP3    H174146   3.294   4.948   0.309 -2.1811 -0.6003 -0.5175
17577TIP3    H274147   3.308   4.919   0.161  2.0152 -0.4880 -0.2595
17578TIP3   OH274148   1.473   0.565  15.867  0.0030  0.0702  0.6318
17578TIP3    H174149   1.391   0.543  15.823  1.4516 -1.4409 -1.5394
17578TIP3    H274150   1.521   0.619  15.804  0.9567  0.3673  1.5762
17579TIP3   OH274151   0.377   2.243  12.407  0.2303  0.2597  0.4845
17579TIP3    H174152   0.438   2.196  12.464  0.7240  0.0769 -0.1836
17579TIP3    H274153   0.399   2.336  12.421  0.2539  0.2212  0.7030
17580TIP3   OH274154   4.434   2.352  16.368  0.4160 -0.2604 -0.3804
17580TIP3    H174155   4.477   2.401  16.439 -0.3510  0.7075 -0.5559
17580TIP3    H274156   4.366   2.412  16.336  0.5700 -0.7996 -1.7506
17581TIP3   OH274157   5.804   0.226  11.342  0.1923  0.6386 -0.5275
17581TIP3    H174158   5.776   0.151  11.289 -1.7771 -0.5708  2.0053
17581TIP3    H274159   5.898   0.232  11.327  0.3368 -2.0634 -1.1932
17582TIP3   OH274160   6.045   5.473   4.159 -0.0064 -0.0882 -0.0973
17582TIP3    H174161   6.108   5.500   4.226  0.2115  0.1278 -0.3870
17582TIP3    H274162   5.983   5.417   4.205  1.1507 -1.4079 -0.0403
17583TIP3   OH274163   4.795   2.843   1.013 -0.6232  0.4299  0.2285
17583TIP3    H174164   4.857   2.916   1.006 -0.9706  0.7860  0.8522
17583TIP3    H274165   4.832   2.786   1.080 -0.2887 -0.0462 -0.3432
17584TIP3   OH274166   5.653   4.109   3.546 -0.9203  0.1156 -0.4998
17584TIP3    H174167   5.681   4.201   3.543  0.1232 -0.0696  1.5844
17584TIP3    H274168   5.644   4.084   3.454 -0.5035  2.0786 -1.1361
17585TIP3   OH274169   5.346   0.283   3.198  0.2000  0.0521 -0.4618
17585TIP3    H174170   5.332   0.189   3.209  1.4306 -0.0293  0.7856
17585TIP3    H274171   5.258   0.321   3.196 -0.2906 -0.9987  0.3205
17586TIP3   OH274172   6.072   5.119   2.978 -0.6216  0.0609 -0.3766
17586TIP3    H174173   6.057   5.159   2.892 -1.7275  0.0008 -0.2277
17586TIP3    H274174   6.166   5.099   2.979 -0.1859  1.8624 -0.7882
17587TIP3   OH274175   0.620   0.714  14.342 -0.4425  0.0020  0.1979
17587TIP3    H174176   0.707   0.693  14.377  0.9524  3.7120 -0.5468
17587TIP3    H274177   0.569   0.739  14.419 -0.3930 -0.8005  0.4965
17588TIP3   OH274178   3.730   2.942   2.820  0.7381 -0.1612  0.5851
17588TIP3    H174179   3.778   3.024   2.832  1.7350 -0.7854  1.0096
17588TIP3    H274180   3.673   2.936   2.897  0.1585  0.4582  0.2102
17589TIP3   OH274181   2.228   1.989   3.717  0.5413 -0.1701 -0.0873
17589TIP3    H174182   2.138   1.983   3.684  0.2968  0.3997  0.4538
17589TIP3    H274183   2.254   1.898   3.731  0.1414 -0.3516 -0.4872
17590TIP3   OH274184   3.116   5.694   2.369  0.1642  0.6524  0.2516
17590TIP3    H174185   3.171   5.713   2.293 -0.3494  0.2745 -0.2263
17590TIP3    H274186   3.026   5.707   2.337 -0.0803 -0.0211  0.6437
17591TIP3   OH274187   3.733   6.494  10.199  0.7619 -0.0601  0.3770
17591TIP3    H174188   3.784   6.546  10.138  0.3405  1.2926  1.1301
17591TIP3    H274189   3.642   6.519  10.182  0.6931  1.1245  2.1876
17592TIP3   OH274190   6.592   5.826   4.638 -0.3778 -0.3721 -0.3873
17592TIP3    H174191   6.611   5.920   4.642 -1.4403 -0.0777 -1.6452
17592TIP3    H274192   6.554   5.806   4.724 -1.1710  0.5941 -0.4964
17593TIP3   OH274193   0.266   1.472  17.149 -0.2114  0.4250  0.0853
17593TIP3    H174194   0.331   1.441  17.086  0.0597  0.5142  0.3239
17593TIP3    H274195   0.188   1.420  17.130 -0.0206  0.1989 -0.0829
17594TIP3   OH274196   5.232   5.992   1.549 -0.5023  0.2956  0.7273
17594TIP3    H174197   5.250   5.940   1.627  0.5666  1.0222  0.9862
17594TIP3    H274198   5.222   6.082   1.582 -0.0054  0.6195  0.0235
17595TIP3   OH274199   0.819   4.300   1.388  0.8854 -0.4213 -0.8428
17595TIP3    H174200   0.727   4.279   1.405  0.2331  3.6156  1.9589
17595TIP3    H274201   0.822   4.319   1.294 -0.4355 -3.0026 -1.5230
17596TIP3   OH274202   3.465   3.447   2.551 -0.3233  0.1170 -0.6392
17596TIP3    H174203   3.548   3.424   2.593 -1.1382 -1.3972  0.2185
17596TIP3    H274204   3.418   3.497   2.618 -0.6676 -0.2475 -0.6092
17597TIP3   OH274205   2.866   3.047  12.642  0.2777 -0.3467  0.3422
17597TIP3    H174206   2.795   3.061  12.705  0.1547 -1.1770  0.4094
17597TIP3    H274207   2.829   3.071  12.558  0.2253  0.1372  0.5031
17598TIP3   OH274208   6.160   3.221  16.398  0.0990 -0.3368  0.5575
17598TIP3    H174209   6.187   3.302  16.442  0.3680  0.1565 -0.4918
17598TIP3    H274210   6.161   3.155  16.467  2.1558  0.0515  0.9605
17599TIP3   OH274211   0.747   6.526   0.602 -0.6032 -0.0039  0.1691
17599TIP3    H174212   0.822   6.529   0.662  1.2645  0.5197 -2.0299
17599TIP3    H274213   0.709   6.614   0.608 -1.6203 -0.5080  1.8831
17600TIP3   OH274214   4.291   6.732  12.317 -0.4965 -0.3149  0.6147
17600TIP3    H174215   4.313   6.711  12.408 -0.5074 -0.9603  0.4726
17600TIP3    H274216   4.306   6.826  12.310 -1.5540 -0.0368  1.5960
17601TIP3   OH274217   0.816   1.204  13.536 -0.3275 -0.3480  0.5352
17601TIP3    H174218   0.772   1.134  13.584  0.3560 -0.6235  0.7652
17601TIP3    H274219   0.860   1.160  13.463 -2.4940  0.2083 -1.2448
17602TIP3   OH274220   6.605   6.620  15.637  0.3429 -0.0228 -0.0271
17602TIP3    H174221   6.574   6.559  15.704 -1.9289  0.2269 -0.7733
17602TIP3    H274222   6.672   6.672  15.682 -0.9134 -0.0386  1.9817
17603TIP3   OH274223   3.145   2.310   6.650  0.3820 -0.2556 -0.4243
17603TIP3    H174224   3.058   2.341   6.675  0.7057  1.5971 -1.3803
17603TIP3    H274225   3.186   2.284   6.732 -0.2191  1.2020  0.3812
17604TIP3   OH274226   0.929   0.178   0.302 -0.7501  0.0080  0.5803
17604TIP3    H174227   0.908   0.153   0.393  0.3028 -0.3558  0.7344
17604TIP3    H274228   0.870   0.251   0.284 -1.1211 -0.0436  1.4892
17605TIP3   OH274229   0.012   5.977   6.372  0.0683 -0.7201 -0.0805
17605TIP3    H174230   0.105   5.986   6.395  0.1898 -0.4719 -0.6483
17605TIP3    H274231   0.004   6.024   6.290 -0.4801 -1.0889 -0.2386
17606TIP3   OH274232   4.429   2.796  12.158  0.6968  0.2226  0.1792
17606TIP3    H174233   4.513   2.842  12.159  0.6563  0.4787 -2.5120
17606TIP3    H274234   4.443   2.723  12.098 -0.7690 -0.2265  0.3537
17607TIP3   OH274235   4.589   1.212   1.253 -0.0566 -0.2831 -0.2945
17607TIP3    H174236   4.670   1.237   1.209 -0.5651 -0.4172 -1.3530
17607TIP3    H274237   4.617   1.169   1.334  1.0298 -2.3918 -1.6799
17608TIP3   OH274238   1.492   2.673  12.536  0.3783 -0.2169  0.5337
17608TIP3    H174239   1.436   2.596  12.528  2.8350 -2.0193 -0.4673
17608TIP3    H274240   1.552   2.668  12.462  2.9377  0.6535  2.3849
17609TIP3   OH274241   1.784   4.476  13.106 -0.4561 -0.0230  0.2714
17609TIP3    H174242   1.785   4.518  13.191 -2.2846 -1.3317  0.9901
17609TIP3    H274243   1.863   4.422  13.105 -0.3164  0.1634  1.0492
17610TIP3   OH274244   0.875   3.640   0.453  0.3021 -0.0356 -0.2760
17610TIP3    H174245   0.941   3.698   0.415 -0.1117  0.1079 -0.7793
17610TIP3    H274246   0.850   3.684   0.535 -1.0935  1.2949 -1.3666
17611TIP3   OH274247   4.883   1.066  11.459 -0.1304 -0.5329 -0.6162
17611TIP3    H174248   4.844   1.123  11.392 -0.3345 -0.4302 -0.4120
17611TIP3    H274249   4.809   1.018  11.495 -0.0961 -0.2200 -0.1152
17612TIP3   OH274250   4.216   1.169  14.472 -0.3288  0.0272 -0.3614
17612TIP3    H174251   4.257   1.254  14.488  1.4541 -1.0260  1.0997
17612TIP3    H274252   4.270   1.128  14.404 -1.8475  0.4420 -1.8979
17613TIP3   OH274253   5.210   2.571  11.722  0.5894 -0.5809 -0.9895
17613TIP3    H174254   5.249   2.630  11.657  1.4892  0.4840  0.4439
17613TIP3    H274255   5.148   2.626  11.769  0.8096 -1.0058 -0.1862
17614TIP3   OH274256   2.270   0.962  14.355 -0.0117 -0.3545  0.2734
17614TIP3    H174257   2.259   0.870  14.330 -1.5736  0.2009 -1.2787
17614TIP3    H274258   2.275   0.960  14.451 -1.5895 -1.9409  0.3714
17615TIP3   OH274259   6.197   5.444   6.379 -0.0865 -0.1366 -0.0103
17615TIP3    H174260   6.291   5.464   6.379  0.0463 -0.7362 -0.3343
17615TIP3    H274261   6.162   5.495   6.306  0.1462 -0.6126 -0.4606
17616TIP3   OH274262   0.732   2.969  11.145 -0.3859  0.2884 -0.0118
17616TIP3    H174263   0.737   3.039  11.080 -1.1479  0.0627 -0.3275
17616TIP3    H274264   0.679   3.006  11.215 -0.6115  0.1053 -0.0841
17617TIP3   OH274265   2.760   2.677   5.416  0.4822 -0.3673 -0.5810
17617TIP3    H174266   2.756   2.727   5.498  1.5355 -2.4937  0.8655
17617TIP3    H274267   2.696   2.607   5.427  2.2036 -2.0148 -0.5410
17618TIP3   OH274268   3.446   0.127   2.294 -0.1401 -0.0912 -0.0421
17618TIP3    H174269   3.538   0.138   2.318 -0.5032  0.4510  1.1868
17618TIP3    H274270   3.434   0.033   2.283  0.2430 -0.2982  1.1940
17619TIP3   OH274271   5.471   1.595   3.471 -0.5860 -0.4283  0.0163
17619TIP3    H174272   5.516   1.629   3.549  0.8944 -0.8949 -0.6033
17619TIP3    H274273   5.380   1.621   3.483 -0.2588  0.1068  1.5732
17620TIP3   OH274274   2.783   4.888  15.998 -0.4550  0.3474  0.8373
17620TIP3    H174275   2.773   4.930  15.912  0.5935  1.0483  1.0494
17620TIP3    H274276   2.700   4.907  16.043 -1.0880 -0.1777 -0.0714
17621TIP3   OH274277   5.002   1.452   5.176  0.1087 -0.1258 -0.5540
17621TIP3    H174278   4.944   1.506   5.229  0.9871 -1.1347  1.5884
17621TIP3    H274279   5.089   1.491   5.188  0.4343 -0.8003 -0.6425
17622TIP3   OH274280   1.353   4.212   4.613 -0.3735 -0.4379 -0.4303
17622TIP3    H174281   1.323   4.302   4.624 -1.3795 -0.8675  0.6443
17622TIP3    H274282   1.407   4.195   4.691 -0.5631 -0.9015 -0.3976
17623TIP3   OH274283   6.262   5.824  16.586  0.0047  0.2126 -0.3066
17623TIP3    H174284   6.292   5.744  16.629 -0.3792 -0.0797 -0.5787
17623TIP3    H274285   6.231   5.795  16.500  1.0012  0.8214 -0.8940
17624TIP3   OH274286   4.021   2.166  13.191  0.1774 -0.2110 -0.1534
17624TIP3    H174287   4.106   2.199  13.218  0.2533 -0.9285  0.5265
17624TIP3    H274288   3.958   2.219  13.239  0.3146 -1.7056  1.8430
17625TIP3   OH274289   4.566   2.549   5.009 -0.2923 -0.0799  0.8605
17625TIP3    H174290   4.604   2.579   4.926 -0.5934 -0.8612  0.4267
17625TIP3    H274291   4.575   2.623   5.068  1.1637  0.0199  0.5316
17626TIP3   OH274292   0.480   0.115   1.183 -0.1507 -0.0629  0.1666
17626TIP3    H174293   0.569   0.079   1.188 -0.3055 -0.3036  2.7551
17626TIP3    H274294   0.491   0.208   1.203 -0.5068 -0.1669  0.8645
17627TIP3   OH274295   0.175   1.324   4.639 -0.0920 -0.3552  0.1386
17627TIP3    H174296   0.178   1.242   4.688  2.9488 -0.3992  0.0779
17627TIP3    H274297   0.192   1.298   4.548  0.2869  0.2481  0.0297
17628TIP3   OH274298   5.979   5.274   2.413  1.0583 -0.4101  0.2909
17628TIP3    H174299   6.034   5.331   2.467  1.1208 -1.5500  1.4852
17628TIP3    H274300   6.030   5.258   2.334  1.1648  0.9187  0.0720
17629TIP3   OH274301   0.250   3.599   2.638  0.3559 -0.0377 -0.5516
17629TIP3    H174302   0.308   3.597   2.562 -0.8144  5.1885 -1.9793
17629TIP3    H274303   0.166   3.569   2.604  0.3613  0.1363 -0.7226
17630TIP3   OH274304   0.766   1.564   1.340 -0.4935  0.3501  0.2117
17630TIP3    H174305   0.684   1.603   1.310  0.0314  1.8898  0.7082
17630TIP3    H274306   0.776   1.594   1.430  1.3039  1.3924 -0.2892
17631TIP3   OH274307   2.831   0.136   4.834  0.0506  0.0079  0.0816
17631TIP3    H174308   2.761   0.196   4.808  0.4911  0.1448 -0.8278
17631TIP3    H274309   2.787   0.068   4.885 -0.6462  0.4149  0.0319
17632TIP3   OH274310   2.951   2.131   5.980 -0.9361  0.4247 -0.1288
17632TIP3    H174311   3.006   2.072   6.032  0.5897  0.5544 -1.4888
17632TIP3    H274312   2.871   2.142   6.031 -0.8715 -2.0531  0.6095
17633TIP3   OH274313   3.488   2.690  14.082 -0.1273 -0.3544 -0.2355
17633TIP3    H174314   3.413   2.737  14.045  0.6681  0.3184 -1.0429
17633TIP3    H274315   3.565   2.732  14.043  0.6346 -2.1340 -0.7705
17634TIP3   OH274316   0.880   0.099  13.790 -0.3000 -0.3061  0.0616
17634TIP3    H174317   0.898   0.167  13.854 -1.9159 -0.5264  0.7726
17634TIP3    H274318   0.967   0.065  13.767  0.5369  1.8353 -0.1898
17635TIP3   OH274319   1.501   1.401  11.410  0.0854 -0.2283 -0.0616
17635TIP3    H174320   1.495   1.451  11.491  1.0335  3.2244 -1.9199
17635TIP3    H274321   1.410   1.382  11.386 -0.2789  0.2165  0.9203
17636TIP3   OH274322   3.759   0.001  13.706  0.5307 -0.0278 -0.6419
17636TIP3    H174323   3.677   0.016  13.659 -0.0508 -0.3719  0.2457
17636TIP3    H274324   3.746   0.044  13.790  2.4184  2.6470 -1.5686
17637TIP3   OH274325   4.227   3.958   0.045 -0.0406 -0.5196 -0.0014
17637TIP3    H174326   4.220   4.053   0.038 -0.3764 -0.6076 -0.9823
17637TIP3    H274327   4.146   3.924   0.007  0.5637 -1.2234 -0.7116
17638TIP3   OH274328   6.211   3.175   5.391  0.6016  0.0071 -0.3307
17638TIP3    H174329   6.189   3.200   5.481  0.1879 -0.9749 -0.1425
17638TIP3    H274330   6.163   3.237   5.336 -0.2520 -0.2328  0.1198
17639TIP3   OH274331   1.322   1.144   4.537  0.3575 -0.2514 -0.3613
17639TIP3    H174332   1.359   1.084   4.602  1.1152 -1.2823 -1.6770
17639TIP3    H274333   1.350   1.231   4.565  1.0387 -0.7115  0.4359
17640TIP3   OH274334   4.080   6.214   4.466 -0.4422  0.0036  0.2942
17640TIP3    H174335   4.137   6.205   4.542  0.3417 -0.7034 -0.3616
17640TIP3    H274336   4.116   6.288   4.417  0.7098 -1.1836 -0.7507
17641TIP3   OH274337   1.950   1.790   1.736 -0.2147  0.4746 -0.0911
17641TIP3    H174338   1.962   1.699   1.765  2.2073  0.9749  0.6749
17641TIP3    H274339   1.929   1.838   1.816  1.3087  1.0131  0.0086
17642TIP3   OH274340   3.779   3.438   5.341 -0.3873 -0.0937 -0.0518
17642TIP3    H174341   3.830   3.384   5.402  0.5219  1.0484  0.2312
17642TIP3    H274342   3.716   3.484   5.397 -1.0502 -0.7122 -0.2733
17643TIP3   OH274343   1.546   4.875  12.366  0.1025  0.4691  0.2691
17643TIP3    H174344   1.561   4.964  12.335 -0.3182 -0.0871 -1.6372
17643TIP3    H274345   1.628   4.829  12.348 -0.7990 -0.3788 -2.1198
17644TIP3   OH274346   6.488   3.045  14.345 -0.0686  0.4362  0.5340
17644TIP3    H174347   6.542   3.093  14.282  2.1282 -1.3216  0.9576
17644TIP3    H274348   6.457   2.969  14.296 -0.0648  0.1348  0.9969
17645TIP3   OH274349   2.202   3.534  13.590  0.4502  0.2885 -1.0285
17645TIP3    H174350   2.213   3.620  13.632  0.3788  0.1045 -0.6211
17645TIP3    H274351   2.206   3.472  13.663 -0.0671 -0.0115 -1.2542
17646TIP3   OH274352   0.280   4.573  15.153  0.0973  0.2352  0.1308
17646TIP3    H174353   0.310   4.512  15.220 -0.0346 -2.7291 -2.3068
17646TIP3    H274354   0.326   4.546  15.073  0.3945  3.7034 -1.0625
17647TIP3   OH274355   6.002   0.326   4.746 -0.1463  0.2075  0.2098
17647TIP3    H174356   6.014   0.259   4.814 -2.3825 -0.6487 -0.1733
17647TIP3    H274357   6.036   0.285   4.667  0.2490  0.2931  0.3287
17648TIP3   OH274358   6.581   4.359   3.141 -0.5774 -0.0856  0.5800
17648TIP3    H174359   6.669   4.376   3.173 -0.0929 -0.6647 -0.3974
17648TIP3    H274360   6.535   4.442   3.153 -0.0300  0.0926  1.4917
17649TIP3   OH274361   6.210   5.012   4.183  0.5365 -0.0274 -0.2072
17649TIP3    H174362   6.171   4.924   4.176 -1.0932  0.6882 -0.6313
17649TIP3    H274363   6.209   5.046   4.093  2.3708 -0.0264 -0.2713
17650TIP3   OH274364   2.889   4.028  17.052  0.2217  0.0659 -0.4834
17650TIP3    H174365   2.808   4.000  17.095 -1.3516  2.1646 -1.8616
17650TIP3    H274366   2.907   3.958  16.988 -0.9713 -0.0750 -0.6975
17651TIP3   OH274367   4.937   2.634   4.535  0.4130  0.1143  0.5338
17651TIP3    H174368   4.853   2.658   4.497  0.7923  0.9141  0.1732
17651TIP3    H274369   4.991   2.609   4.460  0.7926  0.5423  0.6591
17652TIP3   OH274370   3.629   1.204   5.641 -0.0200  0.0014 -0.5508
17652TIP3    H174371   3.545   1.191   5.598  0.7827  0.2791 -2.2582
17652TIP3    H274372   3.606   1.240   5.727 -1.7933 -3.0572  0.4293
17653TIP3   OH274373   2.591   5.593   4.541 -0.6557 -0.4366  0.2827
17653TIP3    H174374   2.619   5.659   4.604 -2.9226  1.7479 -0.8415
17653TIP3    H274375   2.663   5.588   4.477 -0.5049  1.1142  0.2955
17654TIP3   OH274376   5.055   6.295  11.386  0.4886  0.5803  0.2601
17654TIP3    H174377   5.010   6.299  11.470 -0.1719  2.5898 -0.1362
17654TIP3    H274378   5.095   6.207  11.384  0.3774  0.4213  2.5594
17655TIP3   OH274379   6.456   6.388  11.560  0.2722  0.4414  0.7194
17655TIP3    H174380   6.446   6.372  11.466 -1.1144  1.6573  0.6092
17655TIP3    H274381   6.475   6.303  11.598 -1.7296 -0.5647 -0.3744
17656TIP3   OH274382   3.354   1.065   3.229  0.0078  0.3851  0.3267
17656TIP3    H174383   3.263   1.074   3.203 -0.0419  0.6962  0.6050
17656TIP3    H274384   3.366   1.128   3.300  0.4151  0.2846  0.3541
17657TIP3   OH274385   4.675   2.874  11.715  0.7415 -0.1259 -0.6117
17657TIP3    H174386   4.587   2.837  11.712  0.8880 -0.5534  0.1099
17657TIP3    H274387   4.717   2.842  11.636  0.0496  0.6016 -1.2864
17658TIP3   OH274388   4.600   5.815   4.009 -0.2679  0.0361  0.3784
17658TIP3    H174389   4.691   5.798   4.033  0.1308  1.6097  0.1013
17658TIP3    H274390   4.591   5.910   4.017 -2.1536 -0.1745  1.2937
17659TIP3   OH274391   0.974   4.888  14.893 -0.0366 -0.1451  0.7700
17659TIP3    H174392   0.895   4.875  14.947 -0.7379  1.0591  0.0784
17659TIP3    H274393   0.942   4.883  14.803  1.0476 -1.6424  0.4364
17660TIP3   OH274394   4.659   0.586  12.169 -1.0129 -0.1570  0.3437
17660TIP3    H174395   4.595   0.554  12.106 -1.5474  2.6512 -0.6864
17660TIP3    H274396   4.743   0.550  12.139 -1.5960 -0.8469 -0.4988
17661TIP3   OH274397   5.501   1.215   0.511 -0.8556 -0.1551  0.4009
17661TIP3    H174398   5.524   1.248   0.598 -0.7045  0.0110  0.2985
17661TIP3    H274399   5.569   1.152   0.490 -0.5981  0.1889  0.1834
17662TIP3   OH274400   0.361   2.026  16.522 -0.2260  0.6667 -0.1460
17662TIP3    H174401   0.385   2.037  16.430 -0.6499 -0.4548 -0.4148
17662TIP3    H274402   0.403   1.943  16.547  1.2829  1.7625  1.1740
17663TIP3   OH274403   4.561   3.017   3.269  0.1854 -0.9016 -0.2207
17663TIP3    H174404   4.543   2.942   3.325 -1.5965 -0.5648 -0.2781
17663TIP3    H274405   4.615   2.982   3.198  3.1501 -1.2016  1.9515
17664TIP3   OH274406   1.403   4.131   3.825 -0.2606  0.0443  0.3677
17664TIP3    H174407   1.361   4.082   3.896 -1.4425 -2.8491 -2.1263
17664TIP3    H274408   1.475   4.075   3.796 -0.6891  0.4314 -1.6076
17665TIP3   OH274409   1.296   1.584   1.210 -0.3279 -0.3317  0.1846
17665TIP3    H174410   1.293   1.564   1.116 -0.3600 -0.4566  0.2119
17665TIP3    H274411   1.212   1.626   1.229  0.8798  2.6044 -0.4925
17666TIP3   OH274412   5.641   5.445   5.024 -0.6538 -0.6005  0.3874
17666TIP3    H174413   5.624   5.478   5.112  0.2958  0.8077  0.0783
17666TIP3    H274414   5.664   5.523   4.973 -0.1763 -1.5127 -0.8508
17667TIP3   OH274415   5.890   5.713   5.736  0.4708  0.3967 -0.5583
17667TIP3    H174416   5.806   5.670   5.718  1.0661  0.1405 -3.0659
17667TIP3    H274417   5.881   5.799   5.695  1.2279  0.6154 -0.2708
17668TIP3   OH274418   2.281   2.999  12.599 -0.0987  0.2832 -0.6661
17668TIP3    H174419   2.360   2.945  12.589  0.7140  0.9159  1.6330
17668TIP3    H274420   2.222   2.947  12.653 -0.2811  0.7199 -0.4319
17669TIP3   OH274421   3.252   4.702   5.589  0.2984  0.0413  0.1191
17669TIP3    H174422   3.286   4.731   5.674  0.0752  0.1590  0.1695
17669TIP3    H274423   3.323   4.720   5.527  0.8029 -0.8541  0.4208
17670TIP3   OH274424   2.093   1.674  15.371  0.1927  0.7301  0.5992
17670TIP3    H174425   2.105   1.586  15.405 -2.2858 -0.6304 -1.6418
17670TIP3    H274426   2.160   1.683  15.303  0.7072  0.7428  1.1078
17671TIP3   OH274427   2.417   1.175   6.234  0.2139 -0.9709  0.2547
17671TIP3    H174428   2.324   1.175   6.210 -0.2804 -0.9434  2.0476
17671TIP3    H274429   2.429   1.095   6.284  0.1397  0.8626  3.4806
17672TIP3   OH274430   4.550   0.661   3.638 -0.1815  0.0011  1.1044
17672TIP3    H174431   4.600   0.595   3.590  2.2761 -0.0200  3.4447
17672TIP3    H274432   4.541   0.734   3.576  0.5125 -1.0175 -0.2407
17673TIP3   OH274433   6.481   3.310   3.077 -0.1008  0.2839  0.3128
17673TIP3    H174434   6.441   3.371   3.016 -1.1274  0.5432  1.2172
17673TIP3    H274435   6.457   3.343   3.164  0.6058 -0.5481  0.8513
17674TIP3   OH274436   3.969   0.726  12.623  0.1007  0.1443 -0.9937
17674TIP3    H174437   3.979   0.711  12.717  0.8869 -0.3059 -1.1408
17674TIP3    H274438   3.888   0.679  12.601  0.5708 -0.8136 -0.7562
17675TIP3   OH274439   4.767   5.159  10.789 -0.4240  0.2762 -0.2196
17675TIP3    H174440   4.696   5.116  10.742 -0.8759  0.3671  0.3652
17675TIP3    H274441   4.846   5.118  10.756 -0.5829  1.4304 -2.2362
17676TIP3   OH274442   0.608   1.198   5.546 -0.4075  0.0433  0.5685
17676TIP3    H174443   0.515   1.201   5.526 -0.1526 -0.1311 -0.7338
17676TIP3    H274444   0.642   1.283   5.515 -0.1077  0.0604  0.9275
17677TIP3   OH274445   6.507   1.342   1.717  0.1719 -0.7277  0.3229
17677TIP3    H174446   6.415   1.315   1.712 -0.1245  0.1207  0.8183
17677TIP3    H274447   6.528   1.374   1.629 -0.4260  0.2905  0.5285
17678TIP3   OH274448   1.784   4.034   4.525 -0.6904  0.4029 -0.3071
17678TIP3    H174449   1.800   4.121   4.490  2.3452  0.4898  0.9627
17678TIP3    H274450   1.799   3.975   4.451 -0.0305  0.8405 -0.5262
17679TIP3   OH274451   2.892   6.519  13.606  0.2586 -0.1479 -0.1367
17679TIP3    H174452   2.843   6.443  13.639 -0.6967  0.6603  0.3430
17679TIP3    H274453   2.913   6.570  13.685 -1.5873  1.5382 -0.6586
17680TIP3   OH274454   0.661   1.427   4.824  0.7419  0.3535  0.3372
17680TIP3    H174455   0.667   1.352   4.884 -1.1569  0.0175  0.1694
17680TIP3    H274456   0.571   1.456   4.832  0.9062  1.3397 -1.1571
17681TIP3   OH274457   2.805   4.263   1.317  0.2493  0.7650 -0.0654
17681TIP3    H174458   2.805   4.312   1.235 -0.8829  1.0551  0.0865
17681TIP3    H274459   2.782   4.174   1.293  0.7070  0.6724 -0.1570
17682TIP3   OH274460   6.755   3.997  15.096 -0.3443 -0.1557 -0.4416
17682TIP3    H174461   6.790   4.075  15.139 -0.2437 -0.6926  0.4800
17682TIP3    H274462   6.695   3.960  15.161 -2.0440  0.3231 -1.6854
17683TIP3   OH274463   5.843   3.109  16.087  0.6002  0.2522  0.0150
17683TIP3    H174464   5.754   3.075  16.081  1.4233 -2.2883  1.1486
17683TIP3    H274465   5.851   3.169  16.013 -1.8913  0.2306 -0.3437
17684TIP3   OH274466   1.362   0.109   1.584  0.7360 -0.0160  0.1204
17684TIP3    H174467   1.281   0.089   1.538  0.6717  0.2316  0.1272
17684TIP3    H274468   1.384   0.028   1.630 -0.2499  0.3493  1.2721
17685TIP3   OH274469   5.270   1.261   3.744  0.0329 -0.5409  0.0776
17685TIP3    H174470   5.200   1.197   3.760  0.0111 -0.7493 -0.7691
17685TIP3    H274471   5.293   1.247   3.652  0.1798  0.5203 -0.0562
17686TIP3   OH274472   0.673   3.767  15.664  0.4761  0.1888 -0.3435
17686TIP3    H174473   0.675   3.772  15.569  1.3300  0.5812 -0.3135
17686TIP3    H274474   0.713   3.682  15.684  0.2767  0.0964 -0.3262
17687TIP3   OH274475   2.862   4.089  16.678 -0.1175 -0.0758  0.3879
17687TIP3    H174476   2.904   4.072  16.594  0.1539 -0.2748  0.5596
17687TIP3    H274477   2.933   4.079  16.742 -0.1095  1.0190  0.5584
17688TIP3   OH274478   2.234   2.011  15.582 -0.3230  0.0925 -0.2781
17688TIP3    H174479   2.204   1.976  15.498  0.6378  0.1565 -0.6542
17688TIP3    H274480   2.248   1.934  15.636 -0.1925  0.0087 -0.4310
17689TIP3   OH274481   3.139   2.353  17.020  0.5984 -0.2230 -0.3372
17689TIP3    H174482   3.110   2.305  16.943  1.4926 -0.7677 -0.3523
17689TIP3    H274483   3.230   2.327  17.032  1.0968  1.4138 -0.2888
17690TIP3   OH274484   0.155   3.163  13.896 -0.9861  0.3239 -0.3164
17690TIP3    H174485   0.193   3.205  13.973  1.6508 -0.1733 -1.2089
17690TIP3    H274486   0.064   3.147  13.919 -0.2412 -0.0633  2.7999
17691TIP3   OH274487   0.796   5.291  15.437 -0.6202 -0.8176  0.7561
17691TIP3    H174488   0.889   5.272  15.448 -0.7621 -1.2685  1.2228
17691TIP3    H274489   0.785   5.379  15.472  0.0571  0.2278 -1.4915
17692TIP3   OH274490   3.424   1.531   0.726 -0.4344  0.7662 -0.1061
17692TIP3    H174491   3.502   1.481   0.702  0.3811  2.2601 -0.6660
17692TIP3    H274492   3.407   1.506   0.817 -0.1464 -0.6189 -0.4058
17693TIP3   OH274493   6.478   4.231  12.516  0.2418 -0.7796 -0.0567
17693TIP3    H174494   6.383   4.234  12.526  0.0862 -0.0150 -1.5998
17693TIP3    H274495   6.511   4.235  12.606 -1.1116  3.0950  0.4540
17694TIP3   OH274496   3.438   5.886   2.276  0.0834 -0.8578  0.0542
17694TIP3    H174497   3.511   5.905   2.217 -1.5706  0.9668 -1.5578
17694TIP3    H274498   3.439   5.957   2.340 -1.5364  0.5357 -1.3541
17695TIP3   OH274499   5.025   6.097  15.708  0.3059  0.0152 -0.0977
17695TIP3    H174500   5.033   6.109  15.802  1.1056  0.1339 -0.1762
17695TIP3    H274501   4.947   6.147  15.684  1.5781  2.2259  0.1046
17696TIP3   OH274502   6.488   5.161  13.600 -0.3290  0.6054 -0.0979
17696TIP3    H174503   6.531   5.127  13.678 -0.7118  0.0655 -0.1206
17696TIP3    H274504   6.424   5.094  13.576 -1.1726  1.3872 -0.0778
17697TIP3   OH274505   0.549   2.067  12.536 -0.2254 -0.6928 -0.0274
17697TIP3    H174506   0.613   2.030  12.597  0.2433 -0.0895 -0.1361
17697TIP3    H274507   0.466   2.025  12.559  0.5411 -2.9676 -1.1517
17698TIP3   OH274508   3.702   0.879  12.887  0.2183 -0.0688  0.3607
17698TIP3    H174509   3.712   0.917  12.800 -1.6490 -0.3266 -0.0024
17698TIP3    H274510   3.610   0.895  12.910  0.4886 -0.6663  1.9659
17699TIP3   OH274511   5.122   4.502  12.427 -0.4909 -0.3830  0.0415
17699TIP3    H174512   5.077   4.533  12.505 -1.8691 -1.2122 -0.3931
17699TIP3    H274513   5.053   4.488  12.362  0.4657 -0.9978 -0.8930
17700TIP3   OH274514   0.159   0.783   3.106  0.2766  0.3517 -0.5448
17700TIP3    H174515   0.167   0.690   3.130  0.2158  0.2985 -0.7287
17700TIP3    H274516   0.248   0.818   3.114  0.5754 -0.0534 -1.8430
17701TIP3   OH274517   1.332   0.046  11.940 -0.7527  0.9694 -0.3643
17701TIP3    H174518   1.325  -0.046  11.917  1.0521  0.6746  0.1394
17701TIP3    H274519   1.263   0.060  12.005 -0.0413 -0.4292  0.7275
17702TIP3   OH274520   0.998   2.419  13.348 -0.2155  0.1169 -0.3989
17702TIP3    H174521   1.066   2.373  13.299 -0.8961 -0.2690 -1.0146
17702TIP3    H274522   1.028   2.509  13.353  0.5041 -0.1219 -0.3530
17703TIP3   OH274523   3.186   0.211   2.070 -0.0448 -0.1541  0.2481
17703TIP3    H174524   3.095   0.182   2.068  0.5379 -2.1247 -1.0332
17703TIP3    H274525   3.227   0.159   2.139  0.5624 -0.8897 -0.6439
17704TIP3   OH274526   5.182   1.110  14.685  0.0113 -0.0811  0.3216
17704TIP3    H174527   5.183   1.067  14.770  0.3741 -1.8592 -0.5327
17704TIP3    H274528   5.161   1.201  14.704  2.2756  0.0812  2.5257
17705TIP3   OH274529   2.544   0.659  11.228 -0.3542  0.0392 -0.0395
17705TIP3    H174530   2.526   0.569  11.201 -0.3605 -0.0342  0.2085
17705TIP3    H274531   2.639   0.665  11.232 -0.3179  0.3375 -1.0446
17706TIP3   OH274532   2.091   2.061   2.262 -0.0974  0.0041  0.1400
17706TIP3    H174533   2.066   2.068   2.170 -0.1481 -0.3178  0.1293
17706TIP3    H274534   2.148   2.137   2.277 -0.0476  0.0285 -0.1689
17707TIP3   OH274535   1.902   5.528  15.278  0.5367  0.3844 -0.1439
17707TIP3    H174536   1.888   5.603  15.336 -0.6763 -0.4142  0.6536
17707TIP3    H274537   1.936   5.460  15.336 -0.1978 -0.2643 -0.4621
17708TIP3   OH274538   0.261   5.457   0.263  0.1467  0.4140  0.3971
17708TIP3    H174539   0.200   5.423   0.199  3.2202 -2.3106 -1.3748
17708TIP3    H274540   0.296   5.537   0.223  0.5015 -0.1265 -0.3935
17709TIP3   OH274541   3.196   1.205   4.468  0.1879  0.4284 -0.2336
17709TIP3    H174542   3.130   1.265   4.503  1.4838  1.7995 -0.0082
17709TIP3    H274543   3.151   1.156   4.400 -1.0608  1.3100 -0.0786
17710TIP3   OH274544   4.088   4.362  13.022 -0.1082  0.2302 -0.2592
17710TIP3    H174545   4.120   4.340  13.110  0.9165 -0.6769 -0.8280
17710TIP3    H274546   4.075   4.277  12.980  0.1406  0.6710 -1.2438
17711TIP3   OH274547   3.238   5.425  16.410  0.0964  0.3399  0.4028
17711TIP3    H174548   3.179   5.414  16.484  0.1246 -0.0716  0.3676
17711TIP3    H274549   3.233   5.518  16.387  0.4283  0.5615  1.2013
17712TIP3   OH274550   1.959   1.571   0.170 -0.3284  0.1045 -0.1813
17712TIP3    H174551   1.952   1.645   0.231 -2.0840  0.4748 -0.7769
17712TIP3    H274552   1.876   1.524   0.180 -0.2079 -0.4248 -1.5210
17713TIP3   OH274553   4.860   0.472  12.744  0.7053  0.4845 -0.2646
17713TIP3    H174554   4.775   0.458  12.703  0.2474 -1.2712  1.1622
17713TIP3    H274555   4.900   0.543  12.693 -0.6295 -0.2078 -2.4072
17714TIP3   OH274556   1.644   1.034  12.998 -0.7766  0.1094  0.0257
17714TIP3    H174557   1.720   1.092  12.993 -0.6142  0.0733  1.6486
17714TIP3    H274558   1.680   0.947  12.985 -0.4424  0.0487  1.2305
17715TIP3   OH274559   6.549   1.774  14.834  0.1770 -0.2332  0.5288
17715TIP3    H174560   6.462   1.735  14.823  0.0337  0.1475  0.2634
17715TIP3    H274561   6.602   1.736  14.764  0.2303 -0.4834  0.7053
17716TIP3   OH274562   3.225   0.579   5.454  0.9096 -0.0331  0.1988
17716TIP3    H174563   3.149   0.619   5.412  2.1325  1.9069 -0.2962
17716TIP3    H274564   3.191   0.499   5.494 -1.8814  1.8117  1.8990
17717TIP3   OH274565   1.864   0.117  14.728 -0.1687 -0.3296 -0.0658
17717TIP3    H174566   1.942   0.146  14.681 -0.2933 -0.2651 -0.2350
17717TIP3    H274567   1.828   0.198  14.766 -0.9439 -0.1214 -1.1750
17718TIP3   OH274568   4.178   3.022   3.613 -0.0567  0.4625 -0.0188
17718TIP3    H174569   4.159   2.992   3.524  1.5355 -0.0568 -0.2142
17718TIP3    H274570   4.266   2.989   3.632  0.1776  1.6948  1.2551
17719TIP3   OH274571   3.474   4.779  16.724 -0.1621  0.1463  0.4182
17719TIP3    H174572   3.388   4.781  16.765 -0.4374 -0.3776 -0.1262
17719TIP3    H274573   3.484   4.689  16.693 -1.4269  1.2070 -3.6630
17720TIP3   OH274574   0.313   4.096   2.093 -0.3443  0.0626 -0.6428
17720TIP3    H174575   0.259   4.173   2.113 -0.0855 -0.0465  0.5642
17720TIP3    H274576   0.347   4.068   2.178  2.4889  0.7582 -1.4408
17721TIP3   OH274577   3.019   4.750   3.340  0.0363  0.2770  0.2053
17721TIP3    H174578   3.048   4.802   3.266  1.2978 -0.8298 -0.1225
17721TIP3    H274579   3.054   4.795   3.417 -0.7258  1.0695  0.1084
17722TIP3   OH274580   2.448   1.805  16.608 -0.1879  0.1753  0.8786
17722TIP3    H174581   2.534   1.806  16.649  0.0205 -1.3603  0.5176
17722TIP3    H274582   2.460   1.854  16.526  0.0392  0.9471  1.3570
17723TIP3   OH274583   2.151   0.891  13.270  0.3819  0.2991 -0.0531
17723TIP3    H174584   2.123   0.804  13.245 -0.6195  0.6044 -0.0275
17723TIP3    H274585   2.081   0.949  13.240  1.7836  1.3018 -1.5889
17724TIP3   OH274586   4.854   1.076   1.591 -0.3183  0.3127  0.4761
17724TIP3    H174587   4.837   1.106   1.680  0.1541  1.4039  0.2049
17724TIP3    H274588   4.775   1.026   1.567  0.1562 -1.2740  2.0205
17725TIP3   OH274589   6.701   3.684  13.518  0.4973 -0.6344  0.3556
17725TIP3    H174590   6.626   3.625  13.510  0.0837 -0.2330  1.2287
17725TIP3    H274591   6.719   3.711  13.428 -0.7581 -0.2921  0.1899
17726TIP3   OH274592   5.287   5.047  13.261  0.1148 -0.1512 -0.6601
17726TIP3    H174593   5.333   5.114  13.313  0.5280  0.8525 -2.2602
17726TIP3    H274594   5.357   5.000  13.215 -0.1651 -1.7818  0.4840
17727TIP3   OH274595   1.007   6.506  12.182  0.0111  0.3195  0.0814
17727TIP3    H174596   1.061   6.430  12.161 -1.4265 -0.7183  0.0021
17727TIP3    H274597   0.983   6.542  12.096 -0.2579  0.1697  0.0936
17728TIP3   OH274598   2.066   3.148  16.009  0.1051 -0.0922 -0.1639
17728TIP3    H174599   2.117   3.105  16.078  1.3176 -2.8873 -2.5873
17728TIP3    H274600   2.131   3.192  15.954 -0.0916 -2.3935 -2.4115
17729TIP3   OH274601   5.362   4.514  16.962  0.0964 -0.9346 -0.0882
17729TIP3    H174602   5.421   4.524  17.037  0.3878  0.3642 -0.4759
17729TIP3    H274603   5.287   4.569  16.982  0.2558 -0.4410 -0.8282
17730TIP3   OH274604   4.844   6.689  14.737 -0.2215 -0.1449  0.0316
17730TIP3    H174605   4.788   6.752  14.691 -0.6267  0.6674  1.5654
17730TIP3    H274606   4.900   6.653  14.669  0.8055  2.6968 -0.7687
17731TIP3   OH274607   4.516   5.969   5.422 -0.3304  0.0830 -0.1718
17731TIP3    H174608   4.580   5.970   5.350  0.2421 -0.3622  0.3166
17731TIP3    H274609   4.437   5.932   5.383 -0.2767  0.5980 -0.7751
17732TIP3   OH274610   1.727   6.757  12.162  0.0713 -0.1450 -0.0136
17732TIP3    H174611   1.782   6.774  12.238 -0.2386  0.3574  0.1034
17732TIP3    H274612   1.656   6.821  12.169 -0.4132 -0.6510 -0.2760
17733TIP3   OH274613   6.329   1.367   2.515 -0.0214  0.3146  0.6752
17733TIP3    H174614   6.399   1.386   2.452  1.1588 -1.1651  1.4445
17733TIP3    H274615   6.255   1.339   2.461 -0.2313  2.3801 -0.1811
17734TIP3   OH274616   6.730   1.668  12.018 -0.1753  0.3076  0.3885
17734TIP3    H174617   6.824   1.676  12.006 -0.5750  1.8325 -2.2914
17734TIP3    H274618   6.718   1.578  12.049  1.9961 -0.6477 -1.3210
17735TIP3   OH274619   4.214   4.962   1.477  0.0826  0.2381  0.1164
17735TIP3    H174620   4.132   5.008   1.461 -0.0553 -0.3284 -0.8758
17735TIP3    H274621   4.281   5.030   1.473 -0.4051  0.9036  2.0530
17736TIP3   OH274622   6.738   6.379   3.091 -0.5928 -0.1602  0.2272
17736TIP3    H174623   6.754   6.339   3.176  1.0751 -0.2376 -0.0910
17736TIP3    H274624   6.700   6.464   3.110  1.2834  0.5272  1.1482
17737TIP3   OH274625   0.206   4.488   1.178 -0.1489  0.0829  0.3993
17737TIP3    H174626   0.126   4.454   1.217  0.8415 -0.1051  2.3410
17737TIP3    H274627   0.276   4.438   1.218  1.2683  3.1565  2.0980
17738TIP3   OH274628   2.040   0.417   4.339 -0.5503 -0.1899 -0.2426
17738TIP3    H174629   1.985   0.350   4.300  0.0654  0.3999 -2.2946
17738TIP3    H274630   1.986   0.496   4.339 -0.0173  0.2168 -1.5915
17739TIP3   OH274631   4.467   2.615  11.959  0.2893 -0.1098 -0.0147
17739TIP3    H174632   4.478   2.644  11.869  0.4679  1.0247  0.3595
17739TIP3    H274633   4.500   2.525  11.960  0.3861 -0.0896 -1.0507
17740TIP3   OH274634   0.341   2.393  12.887  1.0079 -0.1441  0.0080
17740TIP3    H174635   0.427   2.419  12.852  0.0504  0.9505 -1.7118
17740TIP3    H274636   0.279   2.432  12.825 -0.7127 -1.3611  0.9266
17741TIP3   OH274637   0.904   6.245   1.797 -0.1675 -0.4060  0.4860
17741TIP3    H174638   0.825   6.225   1.747  0.8226 -2.7430 -0.2909
17741TIP3    H274639   0.905   6.178   1.866  1.3626 -0.7359  0.1711
17742TIP3   OH274640   5.135   5.929  12.799  0.1464 -0.0656 -0.1598
17742TIP3    H174641   5.119   5.836  12.813 -0.7245  0.1485  0.3647
17742TIP3    H274642   5.200   5.932  12.729 -0.7889 -1.0488 -1.1108
17743TIP3   OH274643   5.162   2.309   5.621 -0.0405 -0.2679  0.1591
17743TIP3    H174644   5.226   2.376   5.596 -1.5198  0.7506 -1.0379
17743TIP3    H274645   5.130   2.274   5.539 -0.6193 -1.1793  0.7584
17744TIP3   OH274646   6.570   4.598   5.882 -0.1581 -0.3073 -0.1772
17744TIP3    H174647   6.612   4.660   5.941 -0.5013 -1.5054  1.4077
17744TIP3    H274648   6.624   4.600   5.803  1.2983  0.1860  0.7793
17745TIP3   OH274649   4.282   1.757  12.030 -0.5872  0.8180 -0.4592
17745TIP3    H174650   4.188   1.745  12.039 -0.5952  1.3785  0.2743
17745TIP3    H274651   4.296   1.850  12.045 -0.1919  1.2691 -3.0369
17746TIP3   OH274652   5.483   4.664  14.856 -0.0436 -0.4050 -0.4806
17746TIP3    H174653   5.540   4.621  14.919 -2.1191 -0.2869  1.6153
17746TIP3    H274654   5.528   4.746  14.834 -0.0528  0.4629  2.3489
17747TIP3   OH274655   1.278   3.882   1.760 -0.1033  0.0171 -0.0334
17747TIP3    H174656   1.291   3.870   1.854 -0.5337  0.6808  0.1164
17747TIP3    H274657   1.316   3.967   1.741 -2.6884  1.3035  0.1378
17748TIP3   OH274658   0.319   2.962   2.112 -0.0670 -0.3714  0.3039
17748TIP3    H174659   0.230   2.995   2.127  0.1166  0.1625  0.2739
17748TIP3    H274660   0.356   2.951   2.199 -0.4060 -1.2912  0.3323
17749TIP3   OH274661   4.469   3.011  15.961  0.3952 -0.1420 -0.3486
17749TIP3    H174662   4.443   3.076  16.026 -0.3132 -1.5103  0.8029
17749TIP3    H274663   4.398   3.011  15.897 -0.4821 -0.9307  0.5683
17750TIP3   OH274664   1.213   5.522  11.765  0.4040 -0.5632 -0.7648
17750TIP3    H174665   1.258   5.533  11.848 -0.0433 -0.6500 -0.5116
17750TIP3    H274666   1.172   5.436  11.771 -1.3075  0.2598 -0.2774
17751TIP3   OH274667   2.307   6.390   4.030 -0.4307  1.1267 -0.0748
17751TIP3    H174668   2.262   6.414   4.111 -1.5838 -0.2204 -0.2890
17751TIP3    H274669   2.324   6.296   4.038  1.1463  1.3295 -0.6074
17752TIP3   OH274670   3.208   0.792  12.400 -0.1151  0.0941  0.1090
17752TIP3    H174671   3.178   0.718  12.453  1.2275 -1.4782 -1.2389
17752TIP3    H274672   3.128   0.827  12.361 -0.7856 -0.5886  0.8229
17753TIP3   OH274673   0.887   3.124   5.298 -0.3885 -0.1801  0.2617
17753TIP3    H174674   0.813   3.078   5.258 -2.2577  2.0699  0.9262
17753TIP3    H274675   0.958   3.115   5.235 -1.5092 -1.5660 -0.8769
17754TIP3   OH274676   5.401   3.266   1.833 -0.0331 -0.4196  0.5279
17754TIP3    H174677   5.370   3.176   1.848  0.6336 -0.3521  2.6300
17754TIP3    H274678   5.495   3.263   1.850  0.6053  0.1050 -2.3854
17755TIP3   OH274679   6.124   0.637  14.532 -0.2425 -0.2038  0.4916
17755TIP3    H174680   6.208   0.663  14.494  2.0109 -3.1637  2.9717
17755TIP3    H274681   6.127   0.673  14.621 -2.0665  0.3857  0.3496
17756TIP3   OH274682   5.454   5.683  11.134 -0.2381 -0.4487  0.3663
17756TIP3    H174683   5.520   5.747  11.162 -1.8879  0.4553  2.4852
17756TIP3    H274684   5.410   5.726  11.061 -0.9222  0.6539  1.3757
17757TIP3   OH274685   4.293   5.753  12.814  0.0121 -0.3984  0.0761
17757TIP3    H174686   4.225   5.819  12.821 -0.4322 -0.9229  0.7795
17757TIP3    H274687   4.330   5.746  12.902 -0.1794 -1.3251  0.0972
17758TIP3   OH274688   3.600   6.365   4.709  0.0166  0.0566  0.1660
17758TIP3    H174689   3.665   6.350   4.778 -1.5885 -0.0639  1.7191
17758TIP3    H274690   3.544   6.435   4.743 -1.8834 -1.2085 -0.1783
17759TIP3   OH274691   3.773   3.021  12.491  0.9764 -0.2568  0.4650
17759TIP3    H174692   3.866   3.023  12.471  0.4993  0.6626 -2.0195
17759TIP3    H274693   3.751   2.928  12.497  1.8412 -0.5022 -0.1028
17760TIP3   OH274694   3.406   6.190   4.515 -0.3402  0.0135  0.0144
17760TIP3    H174695   3.414   6.234   4.600 -1.2433 -0.8487  0.5735
17760TIP3    H274696   3.439   6.254   4.452  0.5440  0.5966  1.0232
17761TIP3   OH274697   1.845   3.174  13.623 -0.8182  0.4985 -0.1430
17761TIP3    H174698   1.827   3.109  13.692 -2.2682  1.9983  0.9653
17761TIP3    H274699   1.812   3.133  13.543  2.3685 -1.9867 -0.4075
17762TIP3   OH274700   5.989   3.608  15.515  0.4906  0.3328  0.4159
17762TIP3    H174701   6.068   3.648  15.550  0.5857 -0.3488  1.0124
17762TIP3    H274702   5.996   3.516  15.541 -0.7960  0.3887  1.0137
17763TIP3   OH274703   4.664   0.471  11.332  0.4180  0.2440  0.0872
17763TIP3    H174704   4.711   0.507  11.257  0.6326  0.5105  0.3460
17763TIP3    H274705   4.704   0.386  11.347 -1.4991 -1.0726 -1.8466
17764TIP3   OH274706   6.416   3.577  15.767 -0.4402 -0.3716  0.0542
17764TIP3    H174707   6.460   3.536  15.842  1.1289 -1.2078 -1.2635
17764TIP3    H274708   6.470   3.654  15.748 -0.6356 -0.3554 -0.4271
17765TIP3   OH274709   3.814   5.542  14.782  0.4610 -0.3727 -0.2464
17765TIP3    H174710   3.756   5.506  14.715 -0.2003  0.4517 -0.1426
17765TIP3    H274711   3.800   5.486  14.858 -1.8638  1.0399  0.4691
17766TIP3   OH274712   1.740   0.637   1.196  0.0049  0.1656  0.0639
17766TIP3    H174713   1.805   0.706   1.212  1.7212 -1.3920  0.1245
17766TIP3    H274714   1.688   0.635   1.276 -0.6809  1.9572 -0.2767
17767TIP3   OH274715   1.680   4.660   0.055  0.6026 -0.5714 -0.3796
17767TIP3    H174716   1.721   4.714  -0.013  0.4902  0.3277  0.2463
17767TIP3    H274717   1.618   4.605   0.007 -0.8971  1.3995 -0.8482
17768TIP3   OH274718   3.655   4.186  12.111  0.1731  0.0745  0.5872
17768TIP3    H174719   3.663   4.113  12.173  0.9620 -0.5544 -0.2238
17768TIP3    H274720   3.674   4.264  12.164 -3.6506  0.1077  2.1932
17769TIP3   OH274721   5.267   6.453  12.422  0.1894 -0.0221 -0.8446
17769TIP3    H174722   5.184   6.445  12.468  0.1693 -1.1470 -1.0576
17769TIP3    H274723   5.289   6.546  12.430 -1.6403  0.5519 -1.7401
17770TIP3   OH274724   3.021   1.913   0.260 -0.1242  0.3881  0.1093
17770TIP3    H174725   3.036   1.980   0.193 -0.0363  1.1340  0.8600
17770TIP3    H274726   3.102   1.911   0.311  0.0729 -0.6705 -0.2193
17771TIP3   OH274727   2.837   2.813  14.632  0.4928  0.2866 -0.0175
17771TIP3    H174728   2.886   2.883  14.589  0.0493  1.1604  0.8511
17771TIP3    H274729   2.753   2.811  14.586  0.0381  1.1871  0.7280
17772TIP3   OH274730   4.973   3.891   2.144 -0.0967  0.3262  0.4567
17772TIP3    H174731   5.055   3.904   2.097 -0.2630  0.8297  0.2888
17772TIP3    H274732   4.967   3.967   2.203  0.5156 -0.7227  1.9215
17773TIP3   OH274733   4.031   1.710  12.093  0.4129 -0.3324  0.5102
17773TIP3    H174734   3.960   1.753  12.141  0.6413 -1.0802  1.5783
17773TIP3    H274735   4.016   1.617  12.108  0.9295 -0.5464 -0.2782
17774TIP3   OH274736   6.487   5.913   4.882  0.5211  0.1282  0.0785
17774TIP3    H174737   6.564   5.926   4.938  1.5224 -1.4393 -0.8503
17774TIP3    H274738   6.472   5.999   4.842  1.6804  0.5114  0.4130
17775TIP3   OH274739   3.776   1.074  11.002 -0.2605 -0.3584  0.0792
17775TIP3    H174740   3.803   0.993  11.046  1.5729  1.3937  2.3868
17775TIP3    H274741   3.708   1.111  11.058 -0.3454  0.2204 -0.3950
17776TIP3   OH274742   4.108   2.675  11.304 -0.1237 -0.0838 -0.2959
17776TIP3    H174743   4.032   2.706  11.254 -0.8657  0.1974  0.9474
17776TIP3    H274744   4.071   2.608  11.363  0.8216 -0.8039 -0.4975
17777TIP3   OH274745   1.090   3.221   3.006 -0.1324 -0.5580 -0.0223
17777TIP3    H174746   1.102   3.316   2.996  0.0684 -0.6874 -1.0313
17777TIP3    H274747   1.155   3.196   3.073  0.6803 -0.1809 -0.6514
17778TIP3   OH274748   1.554   6.373  14.024 -0.6692  0.3432  0.2123
17778TIP3    H174749   1.576   6.396  13.934 -0.9553 -0.7786 -0.1637
17778TIP3    H274750   1.601   6.290  14.039 -0.5944  0.5396  1.1028
17779TIP3   OH274751   0.959   0.433   5.086 -0.1885  0.4268  0.3237
17779TIP3    H174752   0.938   0.518   5.047 -1.3844 -0.8091 -1.9436
17779TIP3    H274753   0.874   0.398   5.114  0.1028 -0.5571  0.0222
17780TIP3   OH274754   5.933   1.353   4.886  0.1792 -0.4645  0.1486
17780TIP3    H174755   5.964   1.290   4.821 -2.2267 -0.6410 -0.9256
17780TIP3    H274756   5.882   1.301   4.948  0.5637  0.0430  0.9079
17781TIP3   OH274757   1.670   2.787   6.697 -0.1251 -0.5044  0.4301
17781TIP3    H174758   1.755   2.760   6.732  0.2994  2.0452  1.5890
17781TIP3    H274759   1.613   2.794   6.774 -0.7459 -0.0559 -0.0536
17782TIP3   OH274760   4.905   0.307  14.251  0.1731 -0.0881 -0.3537
17782TIP3    H174761   4.951   0.318  14.334 -0.5960  0.6687 -0.0069
17782TIP3    H274762   4.885   0.396  14.222 -2.0941 -0.3883  0.1129
17783TIP3   OH274763   2.899   4.379   0.074  0.7005  0.3023 -0.3031
17783TIP3    H174764   2.912   4.317   0.145  0.4026  0.3912 -0.1662
17783TIP3    H274765   2.953   4.346   0.003  2.5057  1.2440  0.5758
17784TIP3   OH274766   5.118   3.567  11.030 -0.4552  0.2937 -0.3459
17784TIP3    H174767   5.181   3.522  10.975  1.5494  0.8795  1.3505
17784TIP3    H274768   5.123   3.659  11.003 -0.0703  0.4469  0.2251
17785TIP3   OH274769   0.226   0.742   0.397 -0.0531 -0.2328 -0.4792
17785TIP3    H174770   0.162   0.672   0.402 -0.5127  0.2649  3.1372
17785TIP3    H274771   0.299   0.712   0.451 -0.0477  1.7803  0.7502
17786TIP3   OH274772   5.344   5.780  13.654  0.1215  0.4810 -0.1338
17786TIP3    H174773   5.336   5.840  13.581 -1.5742  0.4358 -0.0106
17786TIP3    H274774   5.293   5.703  13.628  1.6312 -0.6301  0.0235
17787TIP3   OH274775   0.726   2.360   2.381 -0.3504 -0.0188  0.1092
17787TIP3    H174776   0.684   2.288   2.427 -0.0884  0.2054  0.7060
17787TIP3    H274777   0.661   2.387   2.315 -0.9305 -0.0347  0.6578
17788TIP3   OH274778   1.221   5.797   5.001 -0.3093 -0.3937  0.2950
17788TIP3    H174779   1.127   5.805   5.018 -0.1454  4.7448  0.4399
17788TIP3    H274780   1.226   5.774   4.908 -1.7256 -0.3508  0.1763
17789TIP3   OH274781   3.808   0.363  16.791 -0.1564  0.0061  0.7561
17789TIP3    H174782   3.779   0.384  16.880 -1.5253  0.8568  0.1420
17789TIP3    H274783   3.824   0.448  16.750  1.2933 -0.3950  0.4233
17790TIP3   OH274784   4.744   2.610  14.821 -0.0385  0.1430 -0.2710
17790TIP3    H174785   4.654   2.634  14.800 -0.3645 -1.5260 -0.9931
17790TIP3    H274786   4.781   2.687  14.865 -1.3048  1.4450 -1.4019
17791TIP3   OH274787   1.934   3.756   4.816 -0.1467 -0.2316 -0.1519
17791TIP3    H174788   1.911   3.846   4.793 -0.2425 -0.3221 -0.4128
17791TIP3    H274789   1.932   3.755   4.911  0.7917  0.2859 -0.1159
17792TIP3   OH274790   0.243   2.999  14.389  0.0150  0.7268 -0.6165
17792TIP3    H174791   0.288   2.983  14.472 -2.1062 -1.2577  0.2386
17792TIP3    H274792   0.184   3.072  14.407  0.8873  1.5408 -0.9653
17793TIP3   OH274793   2.636   3.527   1.506 -0.3199 -0.0200  0.5197
17793TIP3    H174794   2.678   3.550   1.423  1.7714 -1.9343  0.9669
17793TIP3    H274795   2.574   3.458   1.483 -0.1662 -0.1417  0.4718
17794TIP3   OH274796   3.213   3.672  15.732 -0.3116 -0.6848  0.2607
17794TIP3    H174797   3.130   3.626  15.718  0.6736 -1.7375 -2.8905
17794TIP3    H274798   3.254   3.625  15.804 -1.2734 -1.9315  0.0427
17795TIP3   OH274799   0.764   6.030  14.396  0.5665 -0.1851  0.7526
17795TIP3    H174800   0.795   5.950  14.438 -0.3959 -0.8730  0.2071
17795TIP3    H274801   0.765   6.096  14.465  1.1973 -0.7180  1.2606
17796TIP3   OH274802   6.611   2.374   4.659  0.4592  0.0155  0.7088
17796TIP3    H174803   6.690   2.392   4.607 -1.5546  3.4212 -1.5238
17796TIP3    H274804   6.567   2.304   4.611  0.5992  0.2881  0.1714
17797TIP3   OH274805   2.767   0.465   0.543 -0.2134 -0.4918  0.3037
17797TIP3    H174806   2.832   0.399   0.568 -0.7049 -0.8943  0.5405
17797TIP3    H274807   2.767   0.462   0.447  0.8903  0.2856  0.2606
17798TIP3   OH274808   2.922   6.428   2.294  0.1617 -0.7029 -0.4802
17798TIP3    H174809   3.016   6.436   2.309 -0.1763 -0.3540  1.7185
17798TIP3    H274810   2.915   6.356   2.231  1.8116 -2.0344  0.7543
17799TIP3   OH274811   4.356   2.683   3.694 -0.0429  0.3064 -0.5507
17799TIP3    H174812   4.410   2.678   3.774  1.4857 -0.7478 -1.5944
17799TIP3    H274813   4.283   2.624   3.712  1.4345 -1.6817 -0.7037
17800TIP3   OH274814   6.754   5.408   5.095  0.5724  0.4358  0.2703
17800TIP3    H174815   6.823   5.354   5.136  1.4967  0.5800 -1.0229
17800TIP3    H274816   6.749   5.375   5.005 -2.2445 -0.6850  0.7286
17801TIP3   OH274817   0.175   4.678  12.217  0.3947  0.1668  0.4073
17801TIP3    H174818   0.197   4.588  12.193  0.9632 -0.1376  1.9598
17801TIP3    H274819   0.256   4.713  12.253  0.3485  1.5205 -0.7372
17802TIP3   OH274820   2.833   3.984  11.644 -0.0096  0.1236 -0.2392
17802TIP3    H174821   2.775   4.022  11.578  1.9854 -0.1991 -2.3010
17802TIP3    H274822   2.915   4.031  11.633  1.2799 -1.9748 -0.0738
17803TIP3   OH274823   0.043   4.239  11.351 -0.5914  0.1377  0.6069
17803TIP3    H174824  -0.042   4.281  11.359 -0.5719  0.2023  0.4803
17803TIP3    H274825   0.052   4.220  11.257 -1.8594 -2.7735  0.9693
17804TIP3   OH274826   4.430   2.765   5.374  0.3886 -0.2424  0.0868
17804TIP3    H174827   4.475   2.762   5.458  1.4067  1.6530 -0.3271
17804TIP3    H274828   4.500   2.753   5.309 -0.2166 -0.5991 -0.5049
17805TIP3   OH274829   0.381   3.116   0.335 -0.0823 -0.4483  0.7225
17805TIP3    H174830   0.394   3.064   0.256  0.8844  0.6669  0.1127
17805TIP3    H274831   0.332   3.193   0.306 -1.6353 -1.0363  1.6418
17806TIP3   OH274832   6.720   5.873   1.052 -0.1805 -0.1060 -0.2231
17806TIP3    H174833   6.772   5.951   1.031 -0.4518  0.0261 -0.4067
17806TIP3    H274834   6.781   5.800   1.038  0.3740  0.1183  0.8955
17807TIP3   OH274835   6.110   5.305  10.457 -0.4534 -0.4818  0.1972
17807TIP3    H174836   6.125   5.397  10.436 -2.6357  0.0612  0.7544
17807TIP3    H274837   6.051   5.274  10.389 -1.2605 -0.9074  1.0583
17808TIP3   OH274838   2.388   5.078   5.086  0.4065 -0.3759  0.1410
17808TIP3    H174839   2.393   4.984   5.100 -0.2087 -0.1335  2.3384
17808TIP3    H274840   2.469   5.100   5.041  0.6007 -1.9285 -0.3368
17809TIP3   OH274841   2.862   3.414  17.190 -0.5082  0.3153 -0.9144
17809TIP3    H174842   2.822   3.375  17.268  2.1365  0.7566  0.7908
17809TIP3    H274843   2.867   3.508  17.211 -0.2943  0.5249 -1.8665
17810TIP3   OH274844   6.610   0.788  14.235  0.3897 -0.0367  0.1560
17810TIP3    H174845   6.575   0.810  14.149 -1.2720 -1.0585  0.5316
17810TIP3    H274846   6.576   0.857  14.293 -2.1033 -1.6189  0.7291
17811TIP3   OH274847   5.694   2.101  11.456  0.1721  0.4236 -0.1325
17811TIP3    H174848   5.681   2.124  11.548 -0.3924  0.5635 -0.2488
17811TIP3    H274849   5.745   2.174  11.420  0.7301  0.1830  0.1598
17812TIP3   OH274850   0.009   3.293  15.377 -0.5442  0.1617  0.9159
17812TIP3    H174851   0.084   3.336  15.336  0.6375 -1.8078  0.8694
17812TIP3    H274852   0.028   3.297  15.471 -0.4329 -0.2527  0.9111
17813TIP3   OH274853   4.490   3.827   4.465  0.6479 -0.3331 -0.1504
17813TIP3    H174854   4.506   3.835   4.559 -2.2545  2.1361  0.2926
17813TIP3    H274855   4.545   3.895   4.425  1.2168 -0.7926 -0.1570
17814TIP3   OH274856   2.216   3.713   2.278  0.0910  0.1202  0.0136
17814TIP3    H174857   2.122   3.711   2.261 -0.1688  1.4454  1.0650
17814TIP3    H274858   2.232   3.637   2.334  0.2120 -1.7931 -2.4774
17815TIP3   OH274859   3.154   3.962  13.083  0.3459 -0.3387  0.4769
17815TIP3    H174860   3.246   3.944  13.068  0.0242 -0.4028 -1.7703
17815TIP3    H274861   3.137   4.045  13.037 -0.9110 -0.8283  0.0019
17816TIP3   OH274862   2.938   2.323  11.518 -0.1749 -0.0468  0.1604
17816TIP3    H174863   2.955   2.410  11.555 -2.2606 -0.2476  1.7771
17816TIP3    H274864   2.951   2.263  11.591 -0.3067 -0.9249 -0.5203
17817TIP3   OH274865   6.399   0.470   1.241  0.0785  0.0355  0.2988
17817TIP3    H174866   6.457   0.546   1.249  1.0836 -0.4584 -1.7314
17817TIP3    H274867   6.344   0.490   1.165  1.2229 -1.7482 -1.0760
17818TIP3   OH274868   5.012   1.816   1.703  0.0221  0.1332 -0.2369
17818TIP3    H174869   4.995   1.898   1.656  0.8789  0.0542 -0.7047
17818TIP3    H274870   4.990   1.747   1.640 -1.3578 -0.0264  0.3844
17819TIP3   OH274871   5.450   1.240  16.242 -0.0656  0.4193 -0.4494
17819TIP3    H174872   5.516   1.177  16.213 -1.0085 -0.6903 -0.2918
17819TIP3    H274873   5.445   1.227  16.336  1.3757  2.4072 -0.0560
17820TIP3   OH274874   4.366   1.428  11.139 -0.1479  0.0898 -0.3311
17820TIP3    H174875   4.335   1.374  11.066 -1.2352  1.1790 -0.7038
17820TIP3    H274876   4.297   1.493  11.153  0.9627  1.1852  0.3246
17821TIP3   OH274877   3.393   4.509  14.038 -0.0099 -0.1050 -0.3301
17821TIP3    H174878   3.462   4.535  14.099 -0.9802  1.4493  0.1631
17821TIP3    H274879   3.423   4.426  14.001  1.9834  0.4069  0.0598
17822TIP3   OH274880   1.392   4.413   0.834  0.6937 -0.8905 -0.2206
17822TIP3    H174881   1.297   4.406   0.833  0.6736 -0.8905  1.0267
17822TIP3    H274882   1.414   4.441   0.922  1.9013 -1.5982 -0.2651
17823TIP3   OH274883   3.516   3.472  16.080  0.0808 -0.0862  0.4651
17823TIP3    H174884   3.500   3.502  16.169  1.1093  0.1379  0.5895
17823TIP3    H274885   3.607   3.496  16.063 -0.4161  0.8389 -1.0315
17824TIP3   OH274886   6.265   4.547   2.277  0.2156  0.7292  0.3453
17824TIP3    H174887   6.324   4.497   2.333 -2.0210 -0.1453  2.1063
17824TIP3    H274888   6.283   4.516   2.189  0.5197 -1.5024  1.1284
17825TIP3   OH274889   2.635   6.715  14.935 -0.8108  0.1591  0.3547
17825TIP3    H174890   2.559   6.658  14.947  0.3800 -1.7418 -0.6350
17825TIP3    H274891   2.599   6.804  14.939 -2.6860 -0.6010  2.3049
17826TIP3   OH274892   1.013   4.150   1.069  0.1288  0.1896 -0.1273
17826TIP3    H174893   0.922   4.136   1.041  0.3347 -0.7157 -0.3720
17826TIP3    H274894   1.044   4.063   1.094  0.5679  0.6710  1.0753
17827TIP3   OH274895   5.574   2.212   3.681  0.1004  0.5183  0.6883
17827TIP3    H174896   5.530   2.182   3.760 -1.0502  1.0313  0.2751
17827TIP3    H274897   5.626   2.288   3.709 -1.7812  1.8847  0.6564
17828TIP3   OH274898   2.349   5.893  15.838 -0.5129 -0.3588  0.2555
17828TIP3    H174899   2.323   5.913  15.748 -1.0426  1.2605  0.7243
17828TIP3    H274900   2.277   5.926  15.892 -0.3236 -1.5373  1.2730
17829TIP3   OH274901   5.027   6.393  16.839 -0.1770 -0.5638 -0.1235
17829TIP3    H174902   5.075   6.459  16.789 -0.5955 -0.8289 -0.8959
17829TIP3    H274903   4.962   6.443  16.889  0.9565 -0.1934  1.0231
17830TIP3   OH274904   5.995   0.121  16.299  0.3734  0.0759 -0.2724
17830TIP3    H174905   5.925   0.187  16.289  0.7716  0.4536 -0.6052
17830TIP3    H274906   6.044   0.126  16.217  0.6467 -0.3656 -0.1402
17831TIP3   OH274907   1.426   6.370  12.991  0.0253 -0.1112  0.2154
17831TIP3    H174908   1.407   6.320  13.070 -0.1493  0.2837  0.4306
17831TIP3    H274909   1.413   6.461  13.018 -0.9287 -0.0206 -0.5078
17832TIP3   OH274910   0.904   0.726  11.543  0.0937  0.2622 -0.0749
17832TIP3    H174911   0.986   0.743  11.590 -0.4292 -0.5224  1.1945
17832TIP3    H274912   0.839   0.781  11.588 -0.5915 -1.1487  0.7477
17833TIP3   OH274913   0.336   4.499  14.696  0.0609  0.2397  0.9072
17833TIP3    H174914   0.256   4.547  14.716  0.3398  1.1719 -0.1489
17833TIP3    H274915   0.378   4.550  14.627  0.5623 -1.3158  0.0258
17834TIP3   OH274916   3.702   1.282   2.002  0.9468  0.5697 -0.5598
17834TIP3    H174917   3.732   1.200   1.962  0.4694  0.1199 -0.0059
17834TIP3    H274918   3.686   1.259   2.093 -0.7331  0.8779 -0.7604
17835TIP3   OH274919   6.425   6.152   4.602  0.2854  0.1841 -0.5230
17835TIP3    H174920   6.368   6.227   4.585 -2.2237 -1.6149 -0.5129
17835TIP3    H274921   6.366   6.082   4.631  2.2427 -2.4053 -2.2922
17836TIP3   OH274922   5.532   0.389   4.272 -0.4754 -0.3537  0.6147
17836TIP3    H174923   5.572   0.422   4.352 -0.1976 -0.2480  0.4335
17836TIP3    H274924   5.467   0.455   4.249 -1.7110 -1.1585  1.6324
17837TIP3   OH274925   6.545   6.288   3.489 -0.1495  0.3777 -0.0155
17837TIP3    H174926   6.516   6.300   3.398  1.7193 -0.4854 -0.7878
17837TIP3    H274927   6.501   6.208   3.518 -0.6279  0.5646 -0.2333
17838TIP3   OH274928   2.493   5.362  11.965 -0.3942  0.8403 -0.0716
17838TIP3    H174929   2.411   5.408  11.982 -0.0539  1.5259 -0.2543
17838TIP3    H274930   2.471   5.300  11.895 -1.1448 -0.1321  0.9958
17839TIP3   OH274931   0.769   3.176   0.950  0.0448  0.2909 -0.3120
17839TIP3    H174932   0.710   3.102   0.965 -0.3895  0.6640 -0.1654
17839TIP3    H274933   0.800   3.164   0.860  1.3671 -1.0431  0.2852
17840TIP3   OH274934   3.110   5.244  10.548 -0.1530  0.4693  0.0200
17840TIP3    H174935   3.016   5.236  10.534 -0.1362 -0.9685  0.5410
17840TIP3    H274936   3.120   5.324  10.600 -1.0553  0.8159 -0.3326
17841TIP3   OH274937   3.957   1.245  15.394  0.8112 -0.1467 -0.0336
17841TIP3    H174938   3.969   1.340  15.406 -0.0282  0.0549 -0.7340
17841TIP3    H274939   3.935   1.213  15.482  2.0826  0.1303  0.4202
17842TIP3   OH274940   2.015   3.845  13.237 -0.0588  0.0310 -0.1332
17842TIP3    H174941   1.981   3.803  13.316  2.0956 -0.0374  0.8440
17842TIP3    H274942   1.986   3.936  13.245 -0.8516 -0.2308  0.1221
17843TIP3   OH274943   4.774   4.477   4.982 -0.0575  0.4242 -0.0614
17843TIP3    H174944   4.834   4.548   4.962 -1.3770  1.3970 -0.7273
17843TIP3    H274945   4.761   4.432   4.898 -2.9962  2.4521 -0.8436
17844TIP3   OH274946   4.914   6.263  11.622 -0.0746 -0.5966  0.2255
17844TIP3    H174947   4.872   6.177  11.625 -0.4908 -0.3686  2.4389
17844TIP3    H274948   4.844   6.324  11.642  0.7524  0.0265  1.2878
17845TIP3   OH274949   0.978   0.448  16.251 -0.1333 -0.6282  0.1636
17845TIP3    H174950   1.069   0.460  16.223 -0.3620 -0.2620 -0.4611
17845TIP3    H274951   0.982   0.379  16.317  0.4261 -1.6510 -0.8964
17846TIP3   OH274952   4.680   6.091  13.455  0.0285  0.0249  0.4474
17846TIP3    H174953   4.760   6.045  13.479  0.4847  0.7981  0.4380
17846TIP3    H274954   4.682   6.172  13.506 -1.6965 -0.7882  1.9389
17847TIP3   OH274955   3.346   2.103  14.199 -0.0944  0.3855  0.3563
17847TIP3    H174956   3.372   2.180  14.250  0.9484 -1.4945  2.8124
17847TIP3    H274957   3.406   2.103  14.124 -2.0195  3.4979 -1.4293
17848TIP3   OH274958   1.883   5.432  12.849  0.3038  0.1229  0.2486
17848TIP3    H174959   1.951   5.392  12.794 -0.3750  1.3416 -1.5626
17848TIP3    H274960   1.927   5.450  12.932  1.3919 -1.7050  0.1424
17849TIP3   OH274961   5.015   5.657   3.652  0.1192  0.2668  0.1112
17849TIP3    H174962   5.040   5.651   3.560 -0.7811 -0.0192 -0.1283
17849TIP3    H274963   5.048   5.577   3.692 -2.6209 -1.4643 -0.7785
17850TIP3   OH274964   4.188   4.391   2.802  0.0448 -0.1267 -0.2801
17850TIP3    H174965   4.233   4.471   2.774 -0.0178  0.3977  1.0369
17850TIP3    H274966   4.101   4.421   2.829  0.1247 -0.5981  0.5036
17851TIP3   OH274967   5.881   2.827  12.675  0.0020  0.1149  0.3761
17851TIP3    H174968   5.963   2.877  12.680 -0.7316  1.4296 -0.1430
17851TIP3    H274969   5.835   2.864  12.599 -1.4120 -0.0460  1.1199
17852TIP3   OH274970   6.458   4.724   4.035  0.0733  0.3745 -0.1298
17852TIP3    H174971   6.452   4.787   3.964 -1.1964 -0.2335 -0.5964
17852TIP3    H274972   6.368   4.714   4.065  0.4809 -0.0075  1.0160
17853TIP3   OH274973   1.659   3.824  12.110 -0.1346  0.2989 -0.0181
17853TIP3    H174974   1.645   3.730  12.125  0.3754 -0.2721 -2.6121
17853TIP3    H274975   1.592   3.848  12.046 -0.9574  2.0038  1.4239
17854TIP3   OH274976   5.799   2.168  15.268  0.6391 -0.6678  0.1199
17854TIP3    H174977   5.760   2.135  15.187  0.2532 -1.7107  0.7136
17854TIP3    H274978   5.769   2.108  15.336  1.9507 -0.5382  0.8603
17855TIP3   OH274979   5.303   4.438   1.873 -0.0552  0.3226  0.1479
17855TIP3    H174980   5.374   4.503   1.870 -1.1071  1.5099 -0.0630
17855TIP3    H274981   5.265   4.442   1.785  0.7602 -1.6626 -0.3395
17856TIP3   OH274982   1.111   3.104  15.111  0.3602 -0.0016 -0.5736
17856TIP3    H174983   1.027   3.150  15.109  0.5381  0.3164 -0.8523
17856TIP3    H274984   1.173   3.166  15.072  0.8715  0.0434  0.3104
17857TIP3   OH274985   6.312   6.144  12.308 -0.3174  0.1564 -0.1552
17857TIP3    H174986   6.292   6.073  12.369  2.6676 -0.5694  0.1530
17857TIP3    H274987   6.400   6.173  12.333  0.2811  1.0955 -2.9204
17858TIP3   OH274988   2.047   5.544  12.524  0.3142  0.1385  0.1807
17858TIP3    H174989   1.980   5.581  12.581  1.1657 -0.8750  1.9113
17858TIP3    H274990   2.109   5.616  12.509 -1.1206  1.1001 -1.4858
17859TIP3   OH274991   5.173   4.891   5.123  0.3612 -0.0698 -0.7397
17859TIP3    H174992   5.256   4.845   5.133  0.1680 -0.4415 -0.7992
17859TIP3    H274993   5.108   4.821   5.116 -0.0118  0.2234 -0.2221
17860TIP3   OH274994   4.464   6.331   3.923 -0.3811  0.7084  0.3412
17860TIP3    H174995   4.513   6.402   3.964 -0.7616  0.6102  0.9769
17860TIP3    H274996   4.515   6.309   3.844  0.4813  0.7529  0.8715
17861TIP3   OH274997   0.136   4.452  14.354  0.1061  0.0525 -0.0748
17861TIP3    H174998   0.152   4.438  14.448 -0.7203 -0.3954  0.0127
17861TIP3    H274999   0.092   4.537  14.351 -0.8403 -0.4094  0.0730
17862TIP3   OH275000   3.569   1.508  12.849 -0.0312 -0.3307 -0.3252
17862TIP3    H175001   3.651   1.460  12.842  0.4496  0.5852 -1.3423
17862TIP3    H275002   3.562   1.532  12.942  0.5506 -0.9041 -0.1290
17863TIP3   OH275003   1.370   4.039   0.932 -0.7554 -0.1292 -0.1146
17863TIP3    H175004   1.373   4.096   0.855 -0.7900 -0.2054 -0.1724
17863TIP3    H275005   1.440   4.073   0.989  1.3182 -1.8911 -1.4406
17864TIP3   OH275006   5.773   6.183  10.420  0.8390  0.1290  0.0478
17864TIP3    H175007   5.714   6.151  10.489  2.0480 -0.7855  0.7097
17864TIP3    H275008   5.789   6.275  10.443  0.4498  0.1017  0.4399
17865TIP3   OH275009   6.010   4.270   3.110  0.7967 -0.2934  0.3905
17865TIP3    H175010   6.068   4.197   3.133  0.3766 -0.1503  2.0796
17865TIP3    H275011   5.922   4.236   3.127  0.5165  0.1597 -0.1478
17866TIP3   OH275012   3.567   5.030  12.571 -0.3425 -0.6421 -0.4157
17866TIP3    H175013   3.539   5.115  12.604 -2.3711 -0.6955 -1.8533
17866TIP3    H275014   3.613   4.990  12.645 -2.5349  0.2022  1.5311
17867TIP3   OH275015   0.166   5.202   3.215  0.0877 -0.0456 -1.0205
17867TIP3    H175016   0.155   5.152   3.135  1.7147 -0.3631 -1.0717
17867TIP3    H275017   0.176   5.293   3.186  0.3134 -0.1125 -1.1512
17868TIP3   OH275018   3.653   4.048   1.940  0.0010  0.4678 -0.1221
17868TIP3    H175019   3.680   4.115   1.877 -0.0538  0.1249 -0.5190
17868TIP3    H275020   3.713   3.975   1.925 -0.1714  0.2863  0.0488
17869TIP3   OH275021   5.019   3.558   3.909 -0.0122 -0.2929 -0.0681
17869TIP3    H175022   5.055   3.471   3.897  0.4711 -0.1020 -0.0247
17869TIP3    H275023   5.092   3.617   3.892 -0.5818  0.1452 -1.1276
17870TIP3   OH275024   2.753   3.971  14.093 -0.4734 -0.6347  0.4825
17870TIP3    H175025   2.743   4.024  14.014  0.2328  0.4427  1.0922
17870TIP3    H275026   2.665   3.936  14.109 -0.9319  0.2332 -0.0235
17871TIP3   OH275027   5.203   3.604  14.750  0.1451 -0.6934 -0.1455
17871TIP3    H175028   5.122   3.620  14.702  0.5229  0.1571 -0.5253
17871TIP3    H275029   5.240   3.691  14.764  1.1236 -1.0842 -0.2164
17872TIP3   OH275030   6.569   5.809  13.580  0.5224  0.2215  0.5329
17872TIP3    H175031   6.540   5.897  13.556 -0.6521 -0.1613  0.4792
17872TIP3    H275032   6.644   5.792  13.524  0.6888  1.1414  0.4636
17873TIP3   OH275033   1.694   3.976  16.938  0.2771 -0.3645  0.8485
17873TIP3    H175034   1.641   3.911  16.984  0.9341 -0.0260  2.1215
17873TIP3    H275035   1.775   3.930  16.915  0.7655 -0.0162  1.7978
17874TIP3   OH275036   3.035   2.771  15.744  0.1549  0.4270 -0.0138
17874TIP3    H175037   3.056   2.864  15.732  0.6235  0.0858 -2.2338
17874TIP3    H275038   3.098   2.741  15.809  1.1168  1.3055 -0.5069
17875TIP3   OH275039   3.184   3.642   2.178  0.2190  0.3322  0.0955
17875TIP3    H175040   3.208   3.632   2.086  1.2788  1.1678  0.2656
17875TIP3    H275041   3.244   3.586   2.225 -0.1825  0.0702  0.2990
17876TIP3   OH275042   0.086   0.526   4.353  0.2407 -0.0645 -0.3997
17876TIP3    H175043   0.138   0.511   4.431 -1.9548  1.4235  1.4668
17876TIP3    H275044   0.031   0.448   4.344 -0.7586  0.4949  0.6392
17877TIP3   OH275045   2.976   5.717  11.381 -0.2638  0.6246  0.1421
17877TIP3    H175046   2.953   5.768  11.459 -0.2997 -1.5732  1.6316
17877TIP3    H275047   3.036   5.775  11.332 -0.3638  2.1157  1.6900
17878TIP3   OH275048   4.388   3.018   4.674 -0.0945  0.3881 -0.0616
17878TIP3    H175049   4.346   3.077   4.612 -0.4449 -1.5020 -1.7108
17878TIP3    H275050   4.481   3.018   4.649 -0.1401  0.0307 -0.2252
17879TIP3   OH275051   0.598   4.064   2.768  0.2436 -0.0320  0.2688
17879TIP3    H175052   0.560   4.138   2.721 -2.4804 -0.4939  1.5466
17879TIP3    H275053   0.612   4.097   2.857  1.4152 -0.3640  0.2262
17880TIP3   OH275054   2.776   4.481   0.807  0.0548  0.0319 -0.3613
17880TIP3    H175055   2.746   4.572   0.799 -1.7271 -0.4790  0.1304
17880TIP3    H275056   2.790   4.468   0.900  1.1082  0.0237 -0.5099
17881TIP3   OH275057   1.769   6.546   3.321  0.0946  0.6834 -0.1971
17881TIP3    H175058   1.771   6.641   3.329 -1.1917  0.6608  0.7984
17881TIP3    H275059   1.685   6.521   3.360  1.0031 -0.9726  0.8124
17882TIP3   OH275060   1.436   4.274   5.857 -0.8676 -0.4071 -0.1016
17882TIP3    H175061   1.501   4.279   5.787  1.1229 -0.1187  1.6817
17882TIP3    H275062   1.438   4.360   5.899 -1.2908 -0.8733  0.9231
17883TIP3   OH275063   6.735   3.424   2.135  0.3169 -0.2522  0.2606
17883TIP3    H175064   6.802   3.401   2.200  1.4461  1.6341 -0.1370
17883TIP3    H275065   6.689   3.498   2.174 -3.7794 -3.3339  1.9125
17884TIP3   OH275066   2.278   0.257  15.085  0.0445  0.6587 -0.2248
17884TIP3    H175067   2.284   0.264  14.990 -1.0866 -1.1523 -0.4844
17884TIP3    H275068   2.311   0.169  15.105  0.1085  0.9450  1.0487
17885TIP3   OH275069   1.509   2.067  13.741  0.5478  0.1742  0.2540
17885TIP3    H175070   1.565   2.019  13.802  0.3135  1.1963  1.3159
17885TIP3    H275071   1.443   2.108  13.796 -0.3662  0.1980 -0.8276
17886TIP3   OH275072   1.923   4.554  14.074  0.9890  0.2671 -0.4220
17886TIP3    H175073   1.976   4.592  14.144 -0.7120  1.5851  0.2238
17886TIP3    H275074   1.877   4.481  14.115  0.2079  0.8639 -0.2079
17887TIP3   OH275075   1.569   0.635   3.203  0.3958  0.0390  0.7339
17887TIP3    H175076   1.663   0.649   3.194  0.4532 -1.2799 -1.8951
17887TIP3    H275077   1.536   0.639   3.113 -1.7808 -1.2227  1.3996
17888TIP3   OH275078   2.847   5.856   0.555 -0.3498 -0.2497 -0.3226
17888TIP3    H175079   2.832   5.793   0.485  0.8146  0.2681 -1.0771
17888TIP3    H275080   2.809   5.937   0.522  0.5916  0.1052 -0.5762
17889TIP3   OH275081   2.089   1.015  11.113  0.4809 -0.4522 -0.4262
17889TIP3    H175082   2.170   0.974  11.084  1.8610  1.9823 -0.2738
17889TIP3    H275083   2.095   1.105  11.080 -2.0100 -0.1039 -0.1141
17890TIP3   OH275084   5.214   2.571   6.120 -0.4728 -0.4337 -0.0902
17890TIP3    H175085   5.308   2.589   6.115  0.0324 -2.7617  0.1025
17890TIP3    H275086   5.193   2.527   6.038 -1.4347  0.1183 -0.1607
17891TIP3   OH275087   6.540   2.004  16.487  1.0769  0.0165  0.2788
17891TIP3    H175088   6.467   2.052  16.526  1.6447  0.0136  1.3896
17891TIP3    H275089   6.584   2.068  16.430 -0.0671 -0.1242 -0.7997
17892TIP3   OH275090   3.914   6.695   2.000 -0.1916 -0.4300 -0.1364
17892TIP3    H175091   3.992   6.645   2.026  0.4067  0.2391 -0.5855
17892TIP3    H275092   3.845   6.630   1.992  0.7000 -1.2936 -1.2653
17893TIP3   OH275093   0.413   4.206   6.511 -0.5214 -0.1508  0.5301
17893TIP3    H175094   0.454   4.120   6.523 -2.0790 -0.9123  0.7744
17893TIP3    H275095   0.326   4.186   6.475 -0.2555  1.4527 -1.1176
17894TIP3   OH275096   5.524   1.657  13.040  0.3990  0.3596 -0.4811
17894TIP3    H175097   5.571   1.629  12.961 -1.7766 -4.4921 -0.3814
17894TIP3    H275098   5.433   1.661  13.013 -0.1888  0.3215  1.3783
17895TIP3   OH275099   4.418   5.859   3.826  0.1888  0.2357 -0.0751
17895TIP3    H175100   4.349   5.845   3.891 -1.1768  2.0963 -1.0670
17895TIP3    H275101   4.499   5.856   3.877 -0.7372  0.0050  1.4435
17896TIP3   OH275102   1.938   5.651  16.283 -0.1280  0.7015 -0.1796
17896TIP3    H175103   2.006   5.693  16.230  0.7682  1.3934  1.4414
17896TIP3    H275104   1.966   5.665  16.374 -2.5774  1.2804  0.5735
17897TIP3   OH275105   3.758   0.447   3.476 -0.1087 -0.2510  0.1297
17897TIP3    H175106   3.719   0.397   3.405  0.9857 -1.6122  0.4396
17897TIP3    H275107   3.839   0.483   3.439  0.2975 -0.6935  0.5582
17898TIP3   OH275108   5.610   2.731  14.629  0.0564 -0.5045 -0.4621
17898TIP3    H175109   5.565   2.781  14.560  1.1542  0.2327 -0.6595
17898TIP3    H275110   5.585   2.775  14.710  0.4906 -0.0225 -0.5810
17899TIP3   OH275111   3.925   4.147  11.634  0.2397 -0.3603  0.6573
17899TIP3    H175112   3.913   4.053  11.649 -1.3283 -0.1585  0.9319
17899TIP3    H275113   3.863   4.168  11.564 -0.2823  0.6457  1.3835
17900TIP3   OH275114   4.468   4.137   3.524 -0.7339 -0.1697 -0.0130
17900TIP3    H175115   4.538   4.158   3.586 -0.7148 -0.6567  0.1336
17900TIP3    H275116   4.464   4.042   3.525 -2.8209 -0.1412  1.5927
17901TIP3   OH275117   4.971   1.924   3.548  0.0490 -0.0726 -0.0184
17901TIP3    H175118   4.908   1.986   3.511  1.0199 -0.0569 -1.7617
17901TIP3    H275119   5.017   1.888   3.472  0.3952 -1.9956  1.0246
17902TIP3   OH275120   5.258   4.537  16.480 -0.1329  0.8178  0.3632
17902TIP3    H175121   5.195   4.607  16.493 -1.9687 -0.0927 -2.7983
17902TIP3    H275122   5.285   4.544  16.389  1.1287 -1.4010  0.4841
17903TIP3   OH275123   0.014   5.516  11.820  0.2443  0.1159  0.2992
17903TIP3    H175124   0.060   5.463  11.886 -0.1314  2.3446  2.5031
17903TIP3    H275125   0.021   5.465  11.740  1.6876 -2.2563  1.7988
17904TIP3   OH275126   0.056   2.663  11.615 -0.4459 -0.0554  0.4587
17904TIP3    H175127  -0.002   2.613  11.557  1.8843 -2.3835 -0.0757
17904TIP3    H275128   0.143   2.655  11.575  0.4167  2.9174  1.4319
17905TIP3   OH275129   5.710   4.160   1.874 -0.2588  0.0583  0.4582
17905TIP3    H175130   5.676   4.200   1.955 -0.7391 -0.7203  0.6502
17905TIP3    H275131   5.695   4.226   1.807 -0.9833  0.2313  0.7805
17906TIP3   OH275132   5.502   0.113  16.162 -0.1019  0.2683  0.8571
17906TIP3    H175133   5.579   0.064  16.191 -1.2589 -1.8811  0.4991
17906TIP3    H275134   5.454   0.051  16.107 -0.8094  2.3836 -1.0576
17907TIP3   OH275135   6.406   4.055  14.746 -0.1547 -0.5896  0.0176
17907TIP3    H175136   6.342   4.125  14.739 -0.6174 -1.0154 -0.0832
17907TIP3    H275137   6.473   4.076  14.681  0.1195  0.1726  0.5371
17908TIP3   OH275138   2.310   2.938   4.923  0.6192  0.2170 -0.0892
17908TIP3    H175139   2.367   2.884   4.868  1.2267  0.9348 -0.1830
17908TIP3    H275140   2.235   2.882   4.941  1.4480 -0.8443  0.2220
17909TIP3   OH275141   3.865   6.037   4.908  0.0099 -0.3507  0.2783
17909TIP3    H175142   3.889   6.000   4.993  2.5202 -0.9437 -0.6081
17909TIP3    H275143   3.910   5.982   4.844 -2.3835 -0.3730 -1.5454
17910TIP3   OH275144   0.927   2.678   2.847  0.3124  0.4924  0.1573
17910TIP3    H175145   0.840   2.693   2.884  0.1105 -0.3125  0.0413
17910TIP3    H275146   0.980   2.752   2.877 -0.5116  1.1962 -0.0948
17911TIP3   OH275147   4.759   2.344   4.867 -0.2986 -0.6300  0.4729
17911TIP3    H175148   4.816   2.336   4.790 -2.3053 -0.2838 -1.1315
17911TIP3    H275149   4.785   2.427   4.908  1.6613 -1.4404  0.9642
17912TIP3   OH275150   2.972   4.555   6.157  0.5841  0.6527  0.0183
17912TIP3    H175151   3.045   4.493   6.157 -0.1669 -0.2727  0.6019
17912TIP3    H275152   2.984   4.607   6.236  0.7683  0.6988 -0.0397
17913TIP3   OH275153   1.859   2.625  12.743 -0.1864  0.4213 -0.0002
17913TIP3    H175154   1.812   2.708  12.732  2.6137  1.8924 -1.9786
17913TIP3    H275155   1.871   2.592  12.654  0.1870 -1.3183  0.6492
17914TIP3   OH275156   2.179   5.526   2.951  0.3436  0.6338  0.5232
17914TIP3    H175157   2.142   5.456   2.897  0.0646 -0.7400  2.4000
17914TIP3    H275158   2.103   5.568   2.991  0.4317  2.7843 -1.3813
17915TIP3   OH275159   2.829   3.795  14.729 -0.2792  0.0355 -0.5149
17915TIP3    H175160   2.751   3.743  14.744 -0.9769  1.2053  0.0667
17915TIP3    H275161   2.814   3.876  14.779  1.1528  0.4161 -0.6541
17916TIP3   OH275162   4.627   0.982  11.485 -0.7858  0.0399  0.0726
17916TIP3    H175163   4.595   1.042  11.418 -0.7844  2.3665  2.0572
17916TIP3    H275164   4.583   0.899  11.465 -2.4521  1.2337 -1.5218
17917TIP3   OH275165   1.272   3.389  14.711  0.0899  0.1791 -0.0620
17917TIP3    H175166   1.241   3.474  14.680  1.4834  0.5463 -0.5064
17917TIP3    H275167   1.342   3.365  14.650 -1.3567 -2.0827 -0.9702
17918TIP3   OH275168   6.600   6.756   2.621 -0.0168 -0.1724 -0.2982
17918TIP3    H175169   6.591   6.661   2.614 -0.3363 -0.0800 -1.4019
17918TIP3    H275170   6.517   6.790   2.588 -0.1948  0.4870  0.7821
17919TIP3   OH275171   0.534   4.482  12.310  0.0412  0.4910 -0.8972
17919TIP3    H175172   0.627   4.463  12.305 -0.1747 -0.4617 -1.5685
17919TIP3    H275173   0.518   4.544  12.238  0.5321  2.4012  0.5713
17920TIP3   OH275174   1.188   4.199   2.635  0.1592 -0.7681  0.3079
17920TIP3    H175175   1.280   4.176   2.649  0.0358 -1.5540 -0.0906
17920TIP3    H275176   1.185   4.294   2.645  1.4016 -0.4589 -1.6548
17921TIP3   OH275177   4.241   2.116  11.968  0.1130  0.5751  0.6286
17921TIP3    H175178   4.153   2.110  11.931  0.5117 -1.7934 -0.0922
17921TIP3    H275179   4.248   2.207  11.997 -1.8573  1.3541 -1.0475
17922TIP3   OH275180   2.037   2.033   4.698  0.3224 -0.0323  0.2524
17922TIP3    H175181   2.024   2.127   4.699  0.5561  0.0472 -1.1711
17922TIP3    H275182   2.093   2.015   4.773 -3.4235  0.2703  3.3945
17923TIP3   OH275183   2.171   3.866  15.962  0.4904  0.1714 -0.3045
17923TIP3    H175184   2.249   3.813  15.945  0.0782 -0.2900 -0.8013
17923TIP3    H275185   2.199   3.956  15.949  0.6384 -0.0622 -1.7212
17924TIP3   OH275186   2.057   1.090   5.206 -0.5110  0.5525  0.1076
17924TIP3    H175187   2.117   1.137   5.148 -0.0225 -0.0859  0.0839
17924TIP3    H275188   1.988   1.154   5.227 -0.4877  0.9123 -0.8612
17925TIP3   OH275189   0.099   0.412   0.202  0.6739 -0.1002 -0.5474
17925TIP3    H175190   0.070   0.324   0.180 -0.6952  0.2585 -0.2415
17925TIP3    H275191   0.054   0.469   0.140  1.1665  0.4329 -0.4269
17926TIP3   OH275192   2.987   0.326  11.730  0.1334  0.7032 -0.5214
17926TIP3    H175193   3.068   0.332  11.680 -1.6010  0.0152 -3.6243
17926TIP3    H275194   2.924   0.289  11.670 -2.2257 -0.0217  2.1875
17927TIP3   OH275195   2.913   6.340   0.824 -0.0723 -0.5547 -0.4210
17927TIP3    H175196   2.883   6.428   0.849  1.2642 -0.5604  1.4588
17927TIP3    H275197   2.907   6.339   0.729 -0.3887  1.4760 -0.4772
17928TIP3   OH275198   0.870   3.248  15.162 -0.1326  0.3639  0.2218
17928TIP3    H175199   0.821   3.268  15.082  0.9554 -1.1359 -0.8657
17928TIP3    H275200   0.889   3.334  15.200 -0.1582  1.1583 -1.4506
17929TIP3   OH275201   3.845   2.022   1.787  0.1003  0.5833 -0.3102
17929TIP3    H175202   3.936   1.993   1.782 -0.3659 -1.0692  0.3355
17929TIP3    H275203   3.800   1.955   1.839 -1.4624  1.4496 -0.4609
17930TIP3   OH275204   6.748   0.619   1.244  0.6965  0.2780 -0.5370
17930TIP3    H175205   6.752   0.567   1.164  1.6125 -1.0172  0.3219
17930TIP3    H275206   6.838   0.647   1.259  0.3253  1.6169 -0.6269
17931TIP3   OH275207   0.265   6.742   0.434  0.5334 -0.3660 -0.5785
17931TIP3    H175208   0.317   6.756   0.513 -2.3888  3.4842  0.9520
17931TIP3    H275209   0.319   6.780   0.364  1.0299  0.9681  0.4739
17932TIP3   OH275210   1.862   4.000  14.220  0.0044 -0.4429 -0.3256
17932TIP3    H175211   1.833   3.915  14.253 -1.3009 -0.1269 -0.5991
17932TIP3    H275212   1.782   4.052  14.215  0.6294  0.4701 -1.1528
17933TIP3   OH275213   0.072   1.326   1.063 -0.3547 -0.4937 -0.5960
17933TIP3    H175214   0.024   1.266   1.121 -1.5316  1.0346  0.0759
17933TIP3    H275215   0.148   1.353   1.114 -1.0905  0.4075  0.0522
17934TIP3   OH275216   1.901   6.160  10.781 -0.2872 -0.5392 -0.4557
17934TIP3    H175217   1.869   6.076  10.749 -0.0355 -1.2602  1.0708
17934TIP3    H275218   1.992   6.163  10.754 -0.0322 -1.2076  0.2996
17935TIP3   OH275219   4.154   2.429  11.125 -0.7153  0.2015  0.6457
17935TIP3    H175220   4.087   2.497  11.133  0.7272  1.6257  1.1410
17935TIP3    H275221   4.230   2.476  11.090  0.5441 -1.0234  1.6911
17936TIP3   OH275222   6.103   3.861  15.358 -0.0189  0.1789  0.2691
17936TIP3    H175223   6.138   3.828  15.441  0.2027  0.2538  0.2043
17936TIP3    H275224   6.179   3.866  15.300 -0.3008 -0.6069 -0.1836
17937TIP3   OH275225   1.009   4.793  13.903  0.2631  0.0021 -0.3734
17937TIP3    H175226   0.993   4.845  13.825 -1.4225  1.3407  0.7899
17937TIP3    H275227   1.082   4.837  13.947  0.0766  0.2560 -0.3221
17938TIP3   OH275228   2.240   6.282  15.119  0.1791  0.1663  0.1810
17938TIP3    H175229   2.210   6.302  15.030  1.6954  1.1415 -0.1649
17938TIP3    H275230   2.198   6.200  15.141  0.3470 -0.4977 -1.7613
17939TIP3   OH275231   6.343   1.161  13.986 -0.6688  0.3973  0.1196
17939TIP3    H175232   6.263   1.166  14.038 -0.5950 -1.9978  0.5496
17939TIP3    H275233   6.314   1.177  13.896 -1.6103 -0.1934  0.3005
17940TIP3   OH275234   5.898   1.365   3.866  0.4446 -0.1758 -0.6539
17940TIP3    H175235   5.905   1.461   3.867  0.0534 -0.1043  1.6679
17940TIP3    H275236   5.807   1.349   3.842  0.2911  0.0895 -0.2736
17941TIP3   OH275237   6.304   4.257  14.339 -0.8318  0.0700 -0.6037
17941TIP3    H175238   6.283   4.320  14.271 -0.3967  1.2466  0.3183
17941TIP3    H275239   6.342   4.309  14.410 -1.6043 -1.0497  0.7008
17942TIP3   OH275240   0.341   5.623   2.714 -0.1387  0.1646  0.5731
17942TIP3    H175241   0.254   5.623   2.755  0.7286  1.2430  2.5455
17942TIP3    H275242   0.388   5.553   2.758 -0.1909 -0.9624 -1.0609
17943TIP3   OH275243   3.480   1.460   5.799 -0.1543 -0.3354  0.4181
17943TIP3    H175244   3.573   1.454   5.822  0.5711  2.1858 -1.4212
17943TIP3    H275245   3.452   1.544   5.837 -0.9431  0.1878 -1.2369
17944TIP3   OH275246   2.582   6.189  15.843 -0.3852 -0.1372  0.3836
17944TIP3    H175247   2.505   6.138  15.819 -1.2073  1.3421 -0.2276
17944TIP3    H275248   2.616   6.223  15.761 -0.9411  1.7799  0.8991
17945TIP3   OH275249   0.330   6.509  15.133  0.6368  0.7063 -0.2555
17945TIP3    H175250   0.277   6.521  15.212 -1.6658  0.3421 -1.6432
17945TIP3    H275251   0.410   6.466  15.163 -0.6157 -0.3277  1.7503
17946TIP3   OH275252   0.297   5.677   4.308 -0.5180 -0.4101  0.4415
17946TIP3    H175253   0.305   5.772   4.300 -3.1980 -0.1849 -0.6119
17946TIP3    H275254   0.342   5.656   4.389  3.1686  1.2214 -0.9658
17947TIP3   OH275255   5.107   3.486  16.851  0.3588  0.1734 -0.4061
17947TIP3    H175256   5.015   3.494  16.827  0.3421  1.0192 -0.1061
17947TIP3    H275257   5.138   3.576  16.856  1.2954 -0.1157 -0.8513
17948TIP3   OH275258   6.602   4.358  11.378 -0.6814  0.8080  0.7002
17948TIP3    H175259   6.617   4.452  11.378 -1.6891  0.9887 -0.1811
17948TIP3    H275260   6.526   4.346  11.321 -0.6702 -0.5212  0.9375
17949TIP3   OH275261   3.526   4.481   4.240 -0.5484  0.1984 -0.2739
17949TIP3    H175262   3.602   4.479   4.183  1.2311  0.2777  1.9748
17949TIP3    H275263   3.532   4.401   4.292 -0.9828  1.0668  1.1745
17950TIP3   OH275264   2.361   4.209   1.597 -0.0027  0.2980  0.0265
17950TIP3    H175265   2.286   4.251   1.555  0.9279  1.2403 -0.7440
17950TIP3    H275266   2.424   4.279   1.609  1.0595 -0.6212 -0.0437
17951TIP3   OH275267   4.307   4.452  11.721  0.0307 -0.0311 -0.9421
17951TIP3    H175268   4.292   4.547  11.718 -0.5885 -0.1392 -1.5491
17951TIP3    H275269   4.325   4.428  11.630  0.9742 -0.3792 -0.6681
17952TIP3   OH275270   5.971   3.920   1.345 -0.0887 -0.0458 -0.1019
17952TIP3    H175271   6.062   3.945   1.327 -0.4789  0.9415 -0.8014
17952TIP3    H275272   5.944   3.869   1.269  0.1537 -1.1573  0.5328
17953TIP3   OH275273   6.304   1.914   5.357  0.6397  0.4146  0.1484
17953TIP3    H175274   6.309   1.864   5.276  2.2470  1.1733 -0.2510
17953TIP3    H275275   6.211   1.936   5.366  0.3110 -0.4168 -1.0258
17954TIP3   OH275276   6.022   1.347  12.480  0.4019  0.7636 -0.4402
17954TIP3    H175277   6.042   1.421  12.537 -1.2002  0.7452  0.1945
17954TIP3    H275278   6.068   1.366  12.398 -0.0741  2.5232 -0.3303
17955TIP3   OH275279   6.768   2.043  12.211 -0.4220  0.4120 -0.2392
17955TIP3    H175280   6.808   2.125  12.238  0.3611  0.2321 -0.8357
17955TIP3    H275281   6.691   2.034  12.267 -0.1055  1.1869  0.3238
17956TIP3   OH275282   1.414   4.216  11.053 -0.5579  0.3230  0.2322
17956TIP3    H175283   1.426   4.122  11.069  0.8144  0.8280  2.5081
17956TIP3    H275284   1.502   4.248  11.033 -0.9332  1.2106 -0.0157
17957TIP3   OH275285   2.944   6.335  16.592  0.2861 -0.4246 -0.2065
17957TIP3    H175286   2.894   6.254  16.583 -2.7204  1.2562 -0.1724
17957TIP3    H275287   2.931   6.381  16.509  4.1766 -0.9589 -1.3178
17958TIP3   OH275288   4.587   3.112   1.786  0.0125  0.3939  0.2920
17958TIP3    H175289   4.649   3.066   1.842 -0.0529 -0.2302 -0.1413
17958TIP3    H275290   4.540   3.042   1.741 -0.3715  0.8833 -0.0646
17959TIP3   OH275291   5.937   6.174  11.195 -0.6866  0.2565 -0.3867
17959TIP3    H175292   5.872   6.176  11.265 -0.7379 -0.5031 -0.4060
17959TIP3    H275293   5.893   6.213  11.120 -0.6420  1.0455 -0.0229
17960TIP3   OH275294   5.941   5.299  17.182  0.4907 -0.2569 -0.1193
17960TIP3    H175295   5.980   5.332  17.101  0.4986 -0.5079 -0.2187
17960TIP3    H275296   5.853   5.271  17.156  0.2341  0.3306  0.1101
17961TIP3   OH275297   3.812   5.360  12.753 -0.3714 -0.0776 -0.1341
17961TIP3    H175298   3.812   5.274  12.794 -1.6098  0.1112  0.2980
17961TIP3    H275299   3.896   5.399  12.778 -0.0143 -0.9650  0.0664
17962TIP3   OH275300   0.413   1.195  16.285 -0.4454  0.0562  0.2946
17962TIP3    H175301   0.370   1.232  16.362 -2.7151  0.7245 -1.1971
17962TIP3    H275302   0.424   1.102  16.306 -1.3138  0.1626  1.3063
17963TIP3   OH275303   0.893   1.745  16.967 -0.8278  0.6346  0.1631
17963TIP3    H175304   0.973   1.786  17.001 -1.1377  1.1371  0.2870
17963TIP3    H275305   0.822   1.790  17.011 -1.1981  0.5102 -0.3044
17964TIP3   OH275306   2.430   4.019   1.221 -0.4280  0.1393  0.1450
17964TIP3    H175307   2.339   3.992   1.217  0.1241 -2.0699  0.9696
17964TIP3    H275308   2.470   3.980   1.143 -0.0153  0.3444  0.2520
17965TIP3   OH275309   6.789   2.740   5.241  0.4744  0.3484 -0.0389
17965TIP3    H175310   6.730   2.814   5.226  0.4439  0.1317 -1.0503
17965TIP3    H275311   6.759   2.673   5.179 -1.6448 -1.8101  3.0491
17966TIP3   OH275312   3.276   3.066  14.939  0.0055  0.3337 -0.4790
17966TIP3    H175313   3.294   2.976  14.912  0.3872  1.2253 -3.6298
17966TIP3    H275314   3.181   3.067  14.954 -0.0802 -0.5135 -0.8709
17967TIP3   OH275315   5.281   2.251  12.146  0.2648 -0.2744  0.8318
17967TIP3    H175316   5.242   2.209  12.069  0.5742 -1.2511  1.1886
17967TIP3    H275317   5.374   2.260  12.124  0.0230  1.2417  0.3296
17968TIP3   OH275318   4.979   5.993   3.968 -0.0373  0.5522 -0.2537
17968TIP3    H175319   5.046   6.036   3.915  0.9273 -0.6292 -0.0460
17968TIP3    H275320   4.954   5.915   3.917 -1.2462  0.9543 -0.3151
17969TIP3   OH275321   2.170   5.008  16.227  0.4896  0.0894  0.2943
17969TIP3    H175322   2.220   4.986  16.305  2.6642  1.2417 -0.6820
17969TIP3    H275323   2.117   5.083  16.252  0.8582  0.1931  0.7723
17970TIP3   OH275324   1.824   1.844   0.239  0.0844  0.6601  0.5684
17970TIP3    H175325   1.905   1.858   0.287  0.9030  0.5013 -0.7124
17970TIP3    H275326   1.804   1.929   0.200  0.0761  0.5046  0.2270
17971TIP3   OH275327   1.091   6.737   1.655  0.3919  0.1608 -0.4581
17971TIP3    H175328   1.140   6.787   1.721 -0.6458 -0.0400  0.4945
17971TIP3    H275329   1.149   6.665   1.632  2.2823  2.1493 -2.4747
17972TIP3   OH275330   4.939   5.289   5.064 -0.3215 -0.0054  0.5324
17972TIP3    H175331   4.993   5.225   5.111 -0.3992  0.1429  0.8235
17972TIP3    H275332   4.849   5.259   5.077 -0.5216  1.2606  2.3585
17973TIP3   OH275333   6.248   2.858  16.216 -0.3464  0.1751  0.2464
17973TIP3    H175334   6.272   2.849  16.308 -1.4339 -1.2585  0.4211
17973TIP3    H275335   6.158   2.890  16.218 -0.3248  0.2851 -0.3290
17974TIP3   OH275336   4.344   3.707  12.748  0.2287  0.0982  0.0048
17974TIP3    H175337   4.297   3.703  12.832  1.1904 -1.5119  0.5077
17974TIP3    H275338   4.424   3.756  12.768  0.1521  0.2822 -0.1374
17975TIP3   OH275339   2.765   4.424   2.749 -0.3924  0.0225 -0.4672
17975TIP3    H175340   2.677   4.439   2.783  0.4685 -0.7136  2.3403
17975TIP3    H275341   2.817   4.497   2.784  0.1357  0.5321 -2.2105
17976TIP3   OH275342   3.598   6.638  12.638 -0.2536  0.3409  0.4864
17976TIP3    H175343   3.561   6.656  12.725  0.5145  2.5149  0.4352
17976TIP3    H275344   3.639   6.721  12.613 -0.6175 -0.1735 -2.0416
17977TIP3   OH275345   6.279   5.112  12.078 -0.1359  0.5713  0.7120
17977TIP3    H175346   6.265   5.207  12.084 -1.8226  0.4198 -0.3676
17977TIP3    H275347   6.258   5.079  12.166 -2.7665  0.8608  0.2592
17978TIP3   OH275348   5.527   3.409  13.396 -0.0161 -0.4339 -0.4023
17978TIP3    H175349   5.476   3.470  13.450 -0.2387 -0.1082 -0.9759
17978TIP3    H275350   5.469   3.334  13.382 -0.0796 -0.3749 -0.4592
17979TIP3   OH275351   3.212   5.652  15.812 -0.6858 -0.4817  0.4313
17979TIP3    H175352   3.259   5.589  15.866 -0.9516  0.6328  2.0187
17979TIP3    H275353   3.127   5.611  15.796  0.5563 -2.3795 -2.2096
17980TIP3   OH275354   0.753   0.157   6.169  0.1994 -0.0840  0.3746
17980TIP3    H175355   0.708   0.076   6.194 -0.8208  0.4250  0.2248
17980TIP3    H275356   0.719   0.223   6.229 -0.0389  0.5277 -0.4263
17981TIP3   OH275357   6.021   2.281   3.861 -0.0253 -0.1289  0.4052
17981TIP3    H175358   6.005   2.236   3.944 -2.0311  0.9713  0.6797
17981TIP3    H275359   5.938   2.325   3.841  0.9907  1.1777 -1.2261
17982TIP3   OH275360   5.188   1.484  15.014  0.3990 -0.1119 -0.0999
17982TIP3    H175361   5.156   1.398  14.989  0.1323 -0.3313  0.9661
17982TIP3    H275362   5.116   1.523  15.063  0.0063  1.2469 -1.6515
17983TIP3   OH275363   2.714   5.211   0.466 -0.5816 -0.1425 -0.3927
17983TIP3    H175364   2.701   5.119   0.445  1.1491 -0.5055  0.0610
17983TIP3    H275365   2.755   5.248   0.387  0.2915 -0.1445  0.0565
17984TIP3   OH275366   0.871   3.251  14.459 -0.4907  0.1016 -0.1924
17984TIP3    H175367   0.797   3.286  14.507 -0.6077  0.1300 -0.3929
17984TIP3    H275368   0.834   3.180  14.406 -0.2948 -0.1846  0.0491
17985TIP3   OH275369   0.911   3.167   3.428 -0.5104 -0.3588  0.3580
17985TIP3    H175370   0.942   3.122   3.350  0.6219  0.1691  0.4788
17985TIP3    H275371   0.876   3.250   3.396  0.4593  0.1010  0.4350
17986TIP3   OH275372   6.726   2.588   2.072  0.1874 -0.3320 -0.7049
17986TIP3    H175373   6.810   2.633   2.082 -0.8110  1.1522  2.0204
17986TIP3    H275374   6.670   2.627   2.139 -1.8717 -3.1886 -0.5803
17987TIP3   OH275375   5.654   5.772  13.151  0.5787 -0.0563 -0.2370
17987TIP3    H175376   5.612   5.857  13.136 -0.9120 -0.6700  0.2455
17987TIP3    H275377   5.715   5.762  13.079  1.3106  1.7347  0.0700
17988TIP3   OH275378   1.015   5.184  15.337 -0.5146 -0.8357 -0.6965
17988TIP3    H175379   1.032   5.269  15.295  0.4441 -1.1468 -0.9670
17988TIP3    H275380   0.944   5.146  15.286  0.6042 -1.1880 -2.0629
17989TIP3   OH275381   0.033   5.196   4.605 -0.6710 -0.2209  0.0258
17989TIP3    H175382  -0.028   5.248   4.552 -2.2168 -1.2293  0.7343
17989TIP3    H275383   0.088   5.152   4.540 -0.5253  0.8970 -0.6296
17990TIP3   OH275384   3.214   0.218  13.165  0.1475  0.1564  0.2042
17990TIP3    H175385   3.215   0.123  13.157  0.6400  0.1899 -0.1056
17990TIP3    H275386   3.181   0.249  13.081 -0.4227  0.2457  0.4560
17991TIP3   OH275387   0.495   0.043  14.323  0.6530  0.0419  0.2377
17991TIP3    H175388   0.564   0.003  14.377  0.6810  0.3715  0.4478
17991TIP3    H275389   0.542   0.085  14.251  0.6285 -0.2328  0.0576
17992TIP3   OH275390   3.790   3.940   5.326  0.2339 -0.3471  0.5401
17992TIP3    H175391   3.726   3.903   5.264 -0.3491 -1.5710  1.8284
17992TIP3    H275392   3.748   4.019   5.359 -0.1681 -0.5923  0.6189
17993TIP3   OH275393   1.647   4.452  12.861 -0.5633 -0.6037 -0.7158
17993TIP3    H175394   1.727   4.417  12.821  0.3225  0.0577  0.4250
17993TIP3    H275395   1.666   4.455  12.955 -0.9937  1.8930 -0.6380
17994TIP3   OH275396   3.362   1.217   0.667 -0.7291  0.6673 -0.0088
17994TIP3    H175397   3.394   1.133   0.701 -0.3526 -0.1536 -2.2143
17994TIP3    H275398   3.441   1.270   0.656 -0.7807  0.7308 -0.0724
17995TIP3   OH275399   2.982   0.980  13.214 -0.2041 -0.4023  0.4620
17995TIP3    H175400   2.907   0.957  13.160 -1.5388  2.6522  0.8005
17995TIP3    H275401   2.971   0.932  13.295 -0.8777 -1.2282 -0.1094
17996TIP3   OH275402   6.157   3.716   0.356  0.9368  0.7752 -0.5379
17996TIP3    H175403   6.076   3.706   0.407  2.1742  0.4029  1.4527
17996TIP3    H275404   6.192   3.627   0.349 -0.1687  0.4833 -3.8516
17997TIP3   OH275405   4.415   2.220   3.291 -0.5513 -0.0477  0.7286
17997TIP3    H175406   4.334   2.177   3.319 -0.7868  0.8596  1.4820
17997TIP3    H275407   4.399   2.313   3.302  0.0370  0.2521 -0.6663
17998TIP3   OH275408   0.929   6.071  10.866 -0.0662 -0.3780 -0.1287
17998TIP3    H175409   0.873   5.995  10.853 -0.1424 -0.1426 -1.3323
17998TIP3    H275410   0.869   6.146  10.863  0.2204 -0.1663 -0.8033
17999TIP3   OH275411   5.570   6.119  14.230 -0.1152  0.1578  0.1783
17999TIP3    H175412   5.647   6.080  14.272 -0.0307 -0.7587 -0.7936
17999TIP3    H275413   5.520   6.045  14.197 -0.9690  0.7896  0.0109
18000TIP3   OH275414   4.163   4.304  13.273  0.0148  0.2794 -0.2816
18000TIP3    H175415   4.112   4.340  13.346 -0.2066 -0.3616 -0.1171
18000TIP3    H275416   4.254   4.306  13.304 -0.0094  0.5827 -0.2269
18001TIP3   OH275417   6.001   1.039  11.466 -0.1623 -0.4336  0.2536
18001TIP3    H175418   6.059   0.974  11.506 -1.4020 -1.8830 -0.2310
18001TIP3    H275419   5.949   1.073  11.539 -1.6518 -2.2721  0.1007
18002TIP3   OH275420   6.354   0.223   2.145  0.2139  0.1958 -0.5879
18002TIP3    H175421   6.272   0.177   2.162  0.8023 -0.7541 -0.2846
18002TIP3    H275422   6.333   0.284   2.074 -0.8331  0.1957 -0.2921
18003TIP3   OH275423   5.645   3.476  15.268 -0.0873 -0.3540  0.2674
18003TIP3    H175424   5.661   3.452  15.359 -2.3360  0.5658  0.9732
18003TIP3    H275425   5.564   3.431  15.245  0.9339 -1.3765 -1.6640
18004TIP3   OH275426   0.425   3.136  15.616  0.6640  0.4569 -0.1394
18004TIP3    H175427   0.383   3.160  15.699  2.5121  1.8624  0.4534
18004TIP3    H275428   0.514   3.111  15.641  0.8920 -0.2544 -1.5845
18005TIP3   OH275429   4.369   3.511   2.522 -0.1738 -0.4098 -0.1060
18005TIP3    H175430   4.299   3.447   2.510  0.2123 -1.1423  1.2666
18005TIP3    H275431   4.355   3.544   2.611 -0.1905  1.2343 -0.6806
18006TIP3   OH275432   1.723   1.278   5.078  0.1646  0.3735  0.7618
18006TIP3    H175433   1.765   1.300   4.995 -0.4891  0.7254  0.5209
18006TIP3    H275434   1.780   1.316   5.145  1.8193 -1.6401  0.6162
18007TIP3   OH275435   5.609   2.181  12.168 -0.9517 -0.3771  0.5834
18007TIP3    H175436   5.555   2.119  12.120  0.4909 -0.2813 -1.2696
18007TIP3    H275437   5.649   2.130  12.238 -1.5250 -1.0049  0.4566
18008TIP3   OH275438   0.011   4.059   3.173  0.5221  0.5479 -0.2480
18008TIP3    H175439   0.057   3.975   3.162  1.1468  0.8424  0.0700
18008TIP3    H275440   0.080   4.125   3.167  0.2811  0.9546  1.0886
18009TIP3   OH275441   0.427   4.779  15.511  0.5525 -0.2127  0.2357
18009TIP3    H175442   0.503   4.721  15.518  0.7455 -0.3866 -2.4146
18009TIP3    H275443   0.352   4.721  15.519  0.5685  0.0325  3.4884
18010TIP3   OH275444   3.458   5.124  14.469  0.4139  0.3468  0.0664
18010TIP3    H175445   3.447   5.092  14.558  1.7773  1.5435  0.7173
18010TIP3    H275446   3.426   5.215  14.473 -0.7689  0.0027 -1.0177
18011TIP3   OH275447   5.668   4.330   0.380 -0.0113 -0.5255 -0.3425
18011TIP3    H175448   5.704   4.242   0.380  0.7959 -0.2500  1.8394
18011TIP3    H275449   5.724   4.379   0.320 -0.2699 -1.3750 -1.3139
18012TIP3   OH275450   6.478   5.208  12.343 -0.5219 -0.3216 -0.1882
18012TIP3    H175451   6.566   5.189  12.311 -0.2381 -1.2528  1.0432
18012TIP3    H275452   6.433   5.123  12.341 -1.5853  0.2489 -1.3284
18013TIP3   OH275453   5.841   3.630   3.188  0.2211  0.3767 -0.7769
18013TIP3    H175454   5.879   3.553   3.230  0.9662 -0.1474 -2.3311
18013TIP3    H275455   5.809   3.683   3.260 -0.8723 -1.6493  0.3428
18014TIP3   OH275456   2.042   0.053  16.253 -0.2277 -0.2776  0.0749
18014TIP3    H175457   2.079   0.041  16.166 -0.7246 -0.9767 -0.0455
18014TIP3    H275458   2.076  -0.020  16.305 -1.3573 -0.9062 -0.0246
18015TIP3   OH275459   5.899   5.084   6.634 -0.3997 -0.3681 -1.1624
18015TIP3    H175460   5.918   5.063   6.726 -0.5287  1.5896 -0.6484
18015TIP3    H275461   5.843   5.013   6.604  0.8791 -1.8467 -0.1974
18016TIP3   OH275462   0.221   4.325   2.975 -0.3374 -0.0019 -0.5206
18016TIP3    H175463   0.264   4.375   3.044  1.8448 -0.4761 -1.4386
18016TIP3    H275464   0.146   4.379   2.949 -0.8897  0.4257  1.8026
18017TIP3   OH275465   2.414   2.114   5.044 -0.0036  0.1606  0.1528
18017TIP3    H175466   2.351   2.112   5.117 -0.3158 -1.4667 -0.1194
18017TIP3    H275467   2.376   2.057   4.978  0.0157  2.0267 -1.5563
18018TIP3   OH275468   3.729   4.484  14.188 -0.2729  0.2221 -0.3909
18018TIP3    H175469   3.786   4.501  14.264  0.3470 -0.4652 -0.6910
18018TIP3    H275470   3.688   4.400  14.208  0.0732 -0.0759 -0.9212
18019TIP3   OH275471   1.890   1.498  12.046 -0.5592  0.0726 -0.4380
18019TIP3    H175472   1.924   1.465  12.130 -1.3982  1.1948  0.3855
18019TIP3    H275473   1.853   1.421  12.003 -0.2307 -0.5107  0.2948
18020TIP3   OH275474   2.605   6.655   5.108  0.1388  0.1070 -0.6095
18020TIP3    H175475   2.684   6.701   5.080  1.3316 -1.4442  0.0712
18020TIP3    H275476   2.541   6.724   5.123  1.6047  1.4725 -0.4010
18021TIP3   OH275477   6.620   2.091   3.751 -0.0207 -0.2151 -0.1970
18021TIP3    H175478   6.594   2.059   3.838 -1.4139 -1.3789 -0.9863
18021TIP3    H275479   6.699   2.041   3.730  0.3455  0.0984  0.4056
18022TIP3   OH275480   0.732   1.991   5.086 -0.2440  0.0914 -0.2697
18022TIP3    H175481   0.689   1.989   5.000 -0.5360  0.8836 -0.1439
18022TIP3    H275482   0.682   1.928   5.139 -2.5518  2.3728  0.4669
18023TIP3   OH275483   0.973   1.349  14.695 -0.3697 -0.3781 -0.3338
18023TIP3    H175484   0.956   1.258  14.672  0.5745 -0.8816  0.8860
18023TIP3    H275485   1.020   1.384  14.619 -0.8713 -0.8538 -0.8687
18024TIP3   OH275486   5.636   6.495  16.508 -0.3955 -0.4839 -0.2927
18024TIP3    H175487   5.631   6.590  16.499 -0.8023 -0.4671  0.0713
18024TIP3    H275488   5.611   6.479  16.599  1.8536 -0.7747  0.3226
18025TIP3   OH275489   6.276   0.164   1.847 -0.4696 -0.4558  0.1095
18025TIP3    H175490   6.301   0.228   1.781 -1.6333  0.1888  0.2736
18025TIP3    H275491   6.186   0.142   1.826 -0.1708 -1.8756  0.2051
18026TIP3   OH275492   6.509   1.383  13.142  0.1095  0.2273 -0.1404
18026TIP3    H175493   6.593   1.400  13.099 -0.2357  3.4580  0.2000
18026TIP3    H275494   6.460   1.331  13.079  0.3506  3.0804 -2.9515
18027TIP3   OH275495   5.695   5.711  16.135 -0.0899  0.0783 -0.1893
18027TIP3    H175496   5.691   5.789  16.079  1.4146 -0.2004 -0.7213
18027TIP3    H275497   5.680   5.744  16.223 -0.3478  0.8442 -0.5106
18028TIP3   OH275498   1.851   6.065  13.802 -0.2339  0.1035 -0.4225
18028TIP3    H175499   1.907   6.140  13.823 -0.1228 -0.6275  2.3723
18028TIP3    H275500   1.772   6.080  13.854 -0.5940 -1.2596 -0.5563
18029TIP3   OH275501   4.016   2.670  13.399 -0.1602 -0.1429 -0.2048
18029TIP3    H175502   3.995   2.644  13.309  0.5126 -0.2088 -0.3407
18029TIP3    H275503   3.986   2.596  13.453  0.9402 -0.8390 -0.5178
18030TIP3   OH275504   6.002   0.665   1.341  0.0680 -0.2452  0.3803
18030TIP3    H175505   6.028   0.600   1.407 -1.8196 -1.4081  0.0779
18030TIP3    H275506   6.084   0.703   1.310  1.0855 -0.7164  2.3425
18031TIP3   OH275507   2.144   0.686  16.572 -0.6607  0.5615  0.6460
18031TIP3    H175508   2.091   0.764  16.590  0.3705  1.2998  0.5193
18031TIP3    H275509   2.163   0.650  16.659  0.6778  1.6865  0.8442
18032TIP3   OH275510   4.812   0.898  11.817 -0.1980  0.0054  0.6524
18032TIP3    H175511   4.843   0.958  11.885 -0.4934  1.1057 -0.1526
18032TIP3    H275512   4.798   0.954  11.741 -1.2306 -0.9691  0.0970
18033TIP3   OH275513   3.371   0.058   1.114  0.5490 -0.0495  0.1445
18033TIP3    H175514   3.313  -0.011   1.082  0.1225 -0.1040  1.0102
18033TIP3    H275515   3.361   0.130   1.052 -3.2043  1.3732  2.1066
18034TIP3   OH275516   3.693   5.983  14.915 -0.0621 -0.2914 -0.1559
18034TIP3    H175517   3.666   5.971  15.006  3.2185  0.5709  1.0818
18034TIP3    H275518   3.765   6.046  14.920  0.1313 -0.0980 -3.4029
18035TIP3   OH275519   3.042   0.478   1.291  0.3221 -0.6131  0.1638
18035TIP3    H175520   3.056   0.465   1.197 -0.8116  2.7168 -0.6061
18035TIP3    H275521   2.960   0.432   1.310 -0.0760 -0.3163 -0.7735
18036TIP3   OH275522   0.485   1.694  12.834 -0.0832 -0.2313  0.0666
18036TIP3    H175523   0.447   1.637  12.901  0.7719 -0.4773  0.3561
18036TIP3    H275524   0.428   1.682  12.758 -3.4382  2.9570  1.7732
18037TIP3   OH275525   1.611   1.082   1.206  0.3869 -0.2008 -0.2813
18037TIP3    H175526   1.598   1.171   1.172  0.2995 -0.7471 -1.7418
18037TIP3    H275527   1.703   1.079   1.230  0.3693  0.3150 -0.1304
18038TIP3   OH275528   3.978   1.244   5.012  0.2437 -0.0606  0.3101
18038TIP3    H175529   4.060   1.195   5.000 -0.7922 -1.9987  0.7317
18038TIP3    H275530   3.990   1.291   5.094  0.2147 -2.0169  1.5062
18039TIP3   OH275531   2.609   2.185  15.080  0.6960 -0.0717 -0.3232
18039TIP3    H175532   2.620   2.203  14.987  0.1762  1.8476 -0.0470
18039TIP3    H275533   2.688   2.137  15.105  1.3764  0.4116 -1.4941
18040TIP3   OH275534   3.861   4.784  16.091 -0.0200  0.0117 -0.2752
18040TIP3    H175535   3.844   4.759  16.182  0.3089  0.9232  0.0511
18040TIP3    H275536   3.956   4.790  16.085 -0.0586  0.3960 -0.5560
18041TIP3   OH275537   2.357   0.698   2.856 -0.1632 -0.7581 -0.1722
18041TIP3    H175538   2.434   0.756   2.858 -0.5686 -0.1662 -1.2374
18041TIP3    H275539   2.358   0.660   2.768  0.0669 -2.3578  0.4870
18042TIP3   OH275540   3.776   5.994   3.608  0.2382  0.2242  0.1001
18042TIP3    H175541   3.784   6.011   3.514  0.2788  0.2795  0.1133
18042TIP3    H275542   3.787   5.899   3.616  1.7537  0.3737  0.2011
18043TIP3   OH275543   2.223   3.439  15.206 -0.0228  0.5482 -0.2287
18043TIP3    H175544   2.259   3.516  15.251  2.7213  0.8280 -2.6019
18043TIP3    H275545   2.258   3.365  15.254  1.4096  0.8510 -0.7295
18044TIP3   OH275546   3.655   5.289   0.546  0.0735 -0.6102 -0.4487
18044TIP3    H175547   3.684   5.307   0.636 -0.2351 -2.8205  0.1511
18044TIP3    H275548   3.724   5.234   0.509 -1.6923 -3.2569 -0.0823
18045TIP3   OH275549   0.763   1.617   4.263 -0.0787  0.5229  0.6198
18045TIP3    H175550   0.790   1.693   4.314 -0.9251  0.2363  1.5364
18045TIP3    H275551   0.716   1.654   4.188 -2.1259  0.9322  2.0067
18046TIP3   OH275552   2.741   2.423   1.037 -0.3178  0.7679  0.1674
18046TIP3    H175553   2.685   2.438   0.960  1.1036 -0.0612 -1.0879
18046TIP3    H275554   2.824   2.465   1.014  0.4694 -0.4008  0.7799
18047TIP3   OH275555   0.680   1.761  14.126  0.1668  0.3816  0.3175
18047TIP3    H175556   0.716   1.747  14.038 -0.5397  1.9094 -0.2527
18047TIP3    H275557   0.589   1.785  14.111 -0.5342 -1.3265  1.6217
18048TIP3   OH275558   2.791   5.686  10.176  0.1139 -0.7633 -0.0229
18048TIP3    H175559   2.792   5.769  10.223  0.3897 -1.9314  2.1847
18048TIP3    H275560   2.705   5.683  10.134 -0.3107  0.1641  0.7464
18049TIP3   OH275561   3.301   5.749   0.974 -0.7898 -0.1495 -0.1642
18049TIP3    H175562   3.361   5.689   1.019  0.4116  0.7933 -0.4460
18049TIP3    H275563   3.263   5.697   0.903 -1.0398 -1.0287  0.6008
18050TIP3   OH275564   1.455   5.404   1.582  0.1565  0.0373  0.1881
18050TIP3    H175565   1.480   5.372   1.669 -0.5947 -0.9341  0.0741
18050TIP3    H275566   1.527   5.377   1.525 -1.0962 -2.9413 -0.1864
18051TIP3   OH275567   4.997   2.186   0.190  0.0158  0.1939  0.8027
18051TIP3    H175568   5.048   2.219   0.117  0.4554 -0.8126  0.6370
18051TIP3    H275569   5.053   2.199   0.266  0.4023 -0.6396  0.6631
18052TIP3   OH275570   0.502   6.620  11.969 -0.9149  0.5118 -0.0705
18052TIP3    H175571   0.464   6.533  11.958 -2.2048  1.0006  0.3435
18052TIP3    H275572   0.449   6.676  11.912  0.6377  0.8632 -1.2505
18053TIP3   OH275573   4.102   1.270   1.147  0.2470 -0.3639  0.6636
18053TIP3    H175574   4.068   1.275   1.236  1.4282  0.9221  1.0652
18053TIP3    H275575   4.194   1.294   1.154  0.1590  0.6745 -1.0171
18054TIP3   OH275576   1.853   0.717  13.989  0.5541 -0.7756  0.1609
18054TIP3    H175577   1.877   0.758  14.072  1.2067 -0.9522  0.0640
18054TIP3    H275578   1.757   0.714  13.991  0.5068  0.3571  0.3588
18055TIP3   OH275579   5.907   5.317  14.487  0.2342 -0.1097 -0.2437
18055TIP3    H175580   6.002   5.321  14.493  0.1346  0.9235  1.1012
18055TIP3    H275581   5.878   5.407  14.497 -0.8863 -0.3339 -1.1768
18056TIP3   OH275582   2.932   2.794  16.185 -0.0395 -0.0989  0.0360
18056TIP3    H175583   2.901   2.883  16.206 -1.8294 -0.9458  1.2168
18056TIP3    H275584   2.895   2.777  16.098  1.3018  0.7091 -0.7309
18057TIP3   OH275585   0.027   0.475  16.694 -0.1557  0.2607 -0.7539
18057TIP3    H175586   0.045   0.410  16.762 -1.2838 -0.6798 -1.3167
18057TIP3    H275587   0.099   0.464  16.631  1.1476  1.4487  0.4591
18058TIP3   OH275588   1.177   1.803  15.460 -0.1695 -0.1295 -0.1879
18058TIP3    H175589   1.272   1.803  15.470 -0.0238  0.6413 -1.3400
18058TIP3    H275590   1.145   1.749  15.531  1.0561  0.5993  0.9614
18059TIP3   OH275591   2.119   1.807  11.774 -0.4591  0.2191  0.1229
18059TIP3    H175592   2.032   1.841  11.755  0.2231  1.5640 -0.7438
18059TIP3    H275593   2.106   1.747  11.848 -1.9872  1.0257  0.5432
18060TIP3   OH275594   0.929   6.582  10.175 -0.5017  0.6052 -0.1268
18060TIP3    H175595   1.005   6.544  10.219  0.4446  1.2835 -1.1228
18060TIP3    H275596   0.854   6.555  10.228  0.5913  1.5266  2.0113
18061TIP3   OH275597   4.521   4.826   2.010 -0.2490  0.4131 -0.3987
18061TIP3    H175598   4.521   4.909   2.058 -0.9968  0.6571 -0.7958
18061TIP3    H275599   4.552   4.849   1.922 -0.0662  0.1965 -0.3907
18062TIP3   OH275600   3.219   1.779  13.554 -0.1820 -0.0701 -0.4011
18062TIP3    H175601   3.212   1.714  13.484  0.0533 -0.6681  0.1141
18062TIP3    H275602   3.171   1.739  13.627  0.5643  0.0167  0.1449
18063TIP3   OH275603   4.303   4.097  15.850 -0.2754 -0.0081  0.0730
18063TIP3    H175604   4.393   4.087  15.880  0.3378 -1.3672 -1.9754
18063TIP3    H275605   4.290   4.192  15.843  0.3009  0.2660  2.2023
18064TIP3   OH275606   1.253   3.275   2.660  0.6688 -0.0889 -0.2383
18064TIP3    H175607   1.172   3.231   2.635  1.0873 -1.0044 -0.0145
18064TIP3    H275608   1.230   3.368   2.661 -1.0196 -0.4407  2.1091
18065TIP3   OH275609   2.132   6.248   2.396  0.0895  0.4145 -0.0648
18065TIP3    H175610   2.061   6.308   2.421  0.4986  0.6273  0.6263
18065TIP3    H275611   2.093   6.161   2.402 -0.4939  0.5959 -1.0195
18066TIP3   OH275612   2.920   3.534   1.888  0.2914 -0.5255 -0.4011
18066TIP3    H175613   2.952   3.470   1.953 -0.2002 -0.0999  0.2786
18066TIP3    H275614   2.850   3.488   1.842  2.5653 -1.9255 -2.7709
18067TIP3   OH275615   0.564   6.333  12.020 -0.1992  0.3831  0.3082
18067TIP3    H175616   0.531   6.367  12.103  0.3919  1.7265  0.0047
18067TIP3    H275617   0.641   6.282  12.044 -1.7135 -1.7767  0.8865
18068TIP3   OH275618   1.928   5.025   3.025 -0.0860 -0.4271 -0.0075
18068TIP3    H175619   2.002   4.994   2.973 -0.6617 -0.7009 -0.6829
18068TIP3    H275620   1.964   5.098   3.076  0.4576 -0.0488 -0.9052
18069TIP3   OH275621   0.789   4.344  14.937  0.1943  0.3676 -0.0271
18069TIP3    H175622   0.817   4.278  15.000 -1.3680 -1.3129 -0.9877
18069TIP3    H275623   0.867   4.362  14.884  0.5360 -1.1240 -0.0645
18070TIP3   OH275624   2.923   5.585   2.562 -0.0906  0.4577 -0.2983
18070TIP3    H175625   2.865   5.565   2.488  1.0903 -0.6844 -0.9805
18070TIP3    H275626   2.969   5.664   2.535 -0.2043  0.4689 -0.4665
18071TIP3   OH275627   1.216   0.718  16.234  1.2229 -0.1105  0.2999
18071TIP3    H175628   1.172   0.754  16.157  0.6029  1.9891  1.5657
18071TIP3    H275629   1.260   0.640  16.201  2.2780  1.5178 -2.5511
18072TIP3   OH275630   3.465   0.990  13.074  0.4877 -0.0597  0.0855
18072TIP3    H175631   3.381   0.991  13.029 -0.0242 -3.2609  0.6843
18072TIP3    H275632   3.446   0.951  13.159  1.9522  2.9081  1.9380
18073TIP3   OH275633   4.949   3.126   5.157 -0.5158 -0.0404  0.5618
18073TIP3    H175634   4.883   3.185   5.195  0.5509  0.5854  1.4810
18073TIP3    H275635   4.898   3.051   5.126 -2.2302  2.1167 -2.4677
18074TIP3   OH275636   6.605   1.942   2.628 -0.4722  0.5600  0.2946
18074TIP3    H175637   6.543   1.877   2.659 -0.9715  0.6640 -0.4538
18074TIP3    H275638   6.649   1.901   2.554 -2.4464  1.8302 -1.7210
18075TIP3   OH275639   2.803   5.055   3.402 -0.0618 -0.0614  0.1201
18075TIP3    H175640   2.890   5.033   3.435  0.9116 -0.5451 -2.5574
18075TIP3    H275641   2.795   5.150   3.414  0.8563 -0.0067  0.3329
18076TIP3   OH275642   0.365   2.613   3.893  0.2789  0.2950 -0.7489
18076TIP3    H175643   0.456   2.618   3.922 -0.0718  0.2375  0.4041
18076TIP3    H275644   0.350   2.696   3.848  0.8240  0.4170 -0.7169
18077TIP3   OH275645   4.023   0.018   0.383  0.1092  0.2045  0.4982
18077TIP3    H175646   4.052   0.078   0.452  0.2019 -0.9290  1.4810
18077TIP3    H275647   4.070   0.047   0.305 -0.4062  1.8554  0.7654
18078TIP3   OH275648   3.474   4.916   3.201 -0.0232  0.0839  0.2088
18078TIP3    H175649   3.461   4.830   3.161 -1.0860 -0.2062  1.1235
18078TIP3    H275650   3.554   4.949   3.161 -0.3360 -0.7440 -1.1554
18079TIP3   OH275651   5.581   4.290   5.507 -0.0759 -0.2927  0.2106
18079TIP3    H175652   5.639   4.348   5.457  0.7025 -2.0379 -1.0152
18079TIP3    H275653   5.641   4.232   5.555 -0.7982 -1.5601 -0.3754
18080TIP3   OH275654   4.414   2.033  12.284  0.0108 -0.3500  0.7620
18080TIP3    H175655   4.334   2.085  12.290 -0.1074 -0.5960  1.4220
18080TIP3    H275656   4.386   1.943  12.299 -0.1013 -0.9342 -2.3847
18081TIP3   OH275657   2.380   2.709   3.859  0.7654  0.2254 -0.4973
18081TIP3    H175658   2.358   2.784   3.913 -2.6016 -0.3533 -0.8157
18081TIP3    H275659   2.369   2.741   3.769 -0.1104 -0.4310 -0.6417
18082TIP3   OH275660   2.925   4.315  11.562 -0.2413 -0.4692 -0.5552
18082TIP3    H175661   2.871   4.391  11.585 -0.3778  0.2241 -2.8956
18082TIP3    H275662   2.873   4.269  11.496  0.7547 -1.4637 -0.6665
18083TIP3   OH275663   6.190   2.495  17.176 -0.4899  0.4146 -0.0117
18083TIP3    H175664   6.128   2.423  17.165  0.6867 -0.7447  0.5480
18083TIP3    H275665   6.162   2.561  17.114 -0.5366 -1.2837 -1.8888
18084TIP3   OH275666   5.156   1.098   4.611 -0.6118 -0.4801  0.1311
18084TIP3    H175667   5.217   1.107   4.684 -0.0796 -0.2107 -0.3329
18084TIP3    H275668   5.096   1.172   4.620 -1.1303 -0.9753  0.8216
18085TIP3   OH275669   1.720   4.054  12.408  0.4067 -0.5269 -0.3887
18085TIP3    H175670   1.670   3.978  12.378 -0.9850  0.2990 -0.2180
18085TIP3    H275671   1.655   4.123  12.417  1.3204  0.1344  1.4397
18086TIP3   OH275672   0.621   3.133   3.422  0.8800  0.2890  0.5921
18086TIP3    H175673   0.583   3.199   3.479  0.3560  0.2794  0.2644
18086TIP3    H275674   0.715   3.151   3.423  0.5836  2.1685 -0.8697
18087TIP3   OH275675   3.261   1.275  16.531  0.4614  0.1578 -0.2466
18087TIP3    H175676   3.354   1.297  16.525  0.7838 -1.3821 -1.9336
18087TIP3    H275677   3.259   1.190  16.576 -0.1117  0.1545 -0.2711
18088TIP3   OH275678   2.229   1.016   0.723  0.1890  0.1048 -0.0171
18088TIP3    H175679   2.244   1.108   0.705 -0.0976  0.5691  1.8655
18088TIP3    H275680   2.191   0.981   0.642 -0.0459  1.7168 -0.6359
18089TIP3   OH275681   1.081   3.722   2.847  0.6942 -0.0258 -0.1510
18089TIP3    H175682   0.998   3.731   2.799 -0.2877  0.7748  1.5777
18089TIP3    H275683   1.089   3.804   2.896  1.2910 -1.0405  1.5360
18090TIP3   OH275684   5.229   2.910  13.483 -0.2756 -0.0347 -0.0900
18090TIP3    H175685   5.228   2.880  13.392 -1.1455  0.3483 -0.2184
18090TIP3    H275686   5.178   2.991  13.482  0.2473  0.3154  0.6307
18091TIP3   OH275687   0.979   4.514  14.831  0.3202  0.0775 -0.1084
18091TIP3    H175688   1.056   4.480  14.786  0.1307  0.3128 -0.6180
18091TIP3    H275689   0.960   4.597  14.788  0.1763  0.3408  0.4566
18092TIP3   OH275690   1.780   0.360  11.841 -0.7494 -0.2998  0.0095
18092TIP3    H175691   1.821   0.277  11.868  1.6767  0.4973 -0.9448
18092TIP3    H275692   1.759   0.404  11.924  1.7972 -0.1322  0.6578
18093TIP3   OH275693   1.178   6.405  13.611 -0.1692  0.0262  0.2566
18093TIP3    H175694   1.258   6.369  13.649  0.5381 -0.6943 -1.8014
18093TIP3    H275695   1.130   6.329  13.577 -0.4778  0.6697 -0.8013
18094TIP3   OH275696   4.538   4.431  15.749 -0.2864  0.1560 -0.1508
18094TIP3    H175697   4.604   4.447  15.816 -1.5645  1.3587  0.9008
18094TIP3    H275698   4.587   4.420  15.668  1.4156 -2.6012  1.1161
18095TIP3   OH275699   1.322   6.275  17.099 -0.2245  0.0963  0.2057
18095TIP3    H175700   1.263   6.202  17.119  0.2440  0.2526  2.3116
18095TIP3    H275701   1.410   6.240  17.115  0.0691  0.8315  0.2340
18096TIP3   OH275702   6.042   6.559   5.445 -0.1421 -0.4932  0.3164
18096TIP3    H175703   6.031   6.509   5.526 -2.1906 -3.0434 -1.3755
18096TIP3    H275704   6.116   6.517   5.401 -0.7580 -0.9339 -0.3210
18097TIP3   OH275705   0.643   3.571   4.835  0.1564  0.3055  0.5579
18097TIP3    H175706   0.737   3.571   4.849  0.1788  0.5319  0.4053
18097TIP3    H275707   0.606   3.604   4.917  0.3498  2.8017 -0.2959
18098TIP3   OH275708   4.262   3.634   5.541 -0.1160  0.1727  0.2303
18098TIP3    H175709   4.236   3.669   5.456 -1.8988  0.0980  0.7087
18098TIP3    H275710   4.183   3.591   5.574  0.4562  0.4797  2.0707
18099TIP3   OH275711   6.594   4.355  13.978 -0.0476  0.3384 -0.0012
18099TIP3    H175712   6.553   4.293  13.918 -2.6091  1.7000  0.2088
18099TIP3    H275713   6.581   4.316  14.065 -0.5689  0.5892  0.0348
18100TIP3   OH275714   2.523   5.220   1.016  0.3575 -0.1435  0.3679
18100TIP3    H175715   2.521   5.306   0.974 -1.1251 -0.9058 -1.2913
18100TIP3    H275716   2.607   5.182   0.989  0.2563  0.1290 -0.3661
18101TIP3   OH275717   0.143   6.318   1.344  0.1625 -0.3936 -0.3784
18101TIP3    H175718   0.209   6.378   1.379  0.8524 -0.2938 -1.8055
18101TIP3    H275719   0.099   6.368   1.275  0.6144 -1.4399 -1.4521
18102TIP3   OH275720   5.183   2.015   5.595 -0.3463 -0.6044  0.3288
18102TIP3    H175721   5.137   1.989   5.516 -0.2223 -0.6010  0.2552
18102TIP3    H275722   5.164   2.108   5.605  0.5600 -0.3280 -0.3286
18103TIP3   OH275723   3.665   2.874   1.016 -0.0979 -0.4773  0.0283
18103TIP3    H175724   3.584   2.885   1.066  0.3249  0.3356  0.5561
18103TIP3    H275725   3.649   2.797   0.961 -2.5586  1.5733 -2.4395
18104TIP3   OH275726   1.919   3.532  15.343 -0.0894  0.2116 -0.7570
18104TIP3    H175727   1.947   3.618  15.313 -0.0828  0.4856  0.0293
18104TIP3    H275728   1.826   3.542  15.364  0.0556  0.1961 -0.0783
18105TIP3   OH275729   4.255   3.698   0.077 -0.4860  0.3217  0.3127
18105TIP3    H175730   4.242   3.793   0.078  0.3481  0.4450  0.7061
18105TIP3    H275731   4.223   3.671  -0.009 -0.9528  0.9209  0.2849
18106TIP3   OH275732   1.935   1.060   3.967 -0.4850 -0.4775 -0.2669
18106TIP3    H175733   1.866   1.107   4.014 -1.4462 -2.7435  0.7433
18106TIP3    H275734   1.958   1.118   3.894 -1.7316  1.4075  0.7500
18107TIP3   OH275735   0.535   3.235   0.121 -0.3515  1.0277  0.0737
18107TIP3    H175736   0.623   3.232   0.083  0.0069 -0.7829  0.8855
18107TIP3    H275737   0.481   3.185   0.060 -0.2528  0.0393  0.7615
18108TIP3   OH275738   0.371   1.181   1.380 -0.0026  0.5811 -0.3373
18108TIP3    H175739   0.465   1.172   1.394 -0.1382  1.1543  1.1685
18108TIP3    H275740   0.332   1.151   1.462 -1.1402  0.3427 -0.9448
18109TIP3   OH275741   2.339   0.185   1.564 -0.1878 -0.2148  0.3187
18109TIP3    H175742   2.246   0.206   1.556 -0.6731 -2.0981  0.6178
18109TIP3    H275743   2.360   0.199   1.656  0.0102  0.8622  0.1179
18110TIP3   OH275744   4.160   6.197  13.909  0.1839 -0.0515 -0.0675
18110TIP3    H175745   4.250   6.216  13.882  0.4499 -2.2697 -1.0331
18110TIP3    H275746   4.168   6.117  13.962 -1.1361  0.2234  0.5853
18111TIP3   OH275747   2.052   0.353   3.987  0.5541  0.2337  0.8205
18111TIP3    H175748   2.047   0.270   4.034  0.2667 -1.2898 -1.7049
18111TIP3    H275749   1.968   0.395   4.005  0.0228 -0.7908  0.8429
18112TIP3   OH275750   0.572   6.668   6.233 -0.3352  0.0622  0.7434
18112TIP3    H175751   0.664   6.657   6.258 -0.1679 -2.2360 -0.5876
18112TIP3    H275752   0.568   6.635   6.143 -2.4842  0.0479  0.7976
18113TIP3   OH275753   2.122   1.483   0.581 -0.1812 -0.1808 -0.7977
18113TIP3    H175754   2.186   1.412   0.581 -0.8720 -0.8132 -0.6270
18113TIP3    H275755   2.090   1.487   0.671 -0.5700 -0.0442 -0.9413
18114TIP3   OH275756   3.876   3.712  11.282  0.5750  0.0016  0.4470
18114TIP3    H175757   3.796   3.736  11.328  1.0124  0.2756  1.0842
18114TIP3    H275758   3.913   3.640  11.333  1.4274  0.7704  0.9558
18115TIP3   OH275759   4.010   5.922   2.351 -0.1951  0.2724  0.4196
18115TIP3    H175760   4.076   5.963   2.407  2.0964 -0.5988 -1.4752
18115TIP3    H275761   3.970   5.855   2.405  2.1917 -0.7714  0.9667
18116TIP3   OH275762   3.686   3.857   0.358  0.6536 -0.1735 -0.4380
18116TIP3    H175763   3.748   3.880   0.428  0.8519 -1.1177 -0.2961
18116TIP3    H275764   3.625   3.931   0.356  0.2595 -0.4071  1.1729
18117TIP3   OH275765   6.054   5.996  13.242 -0.1459  0.2656 -0.0835
18117TIP3    H175766   6.102   5.995  13.159 -0.0618  0.8089 -0.0445
18117TIP3    H275767   6.054   6.088  13.268 -0.2729  0.1120  0.4620
18118TIP3   OH275768   5.022   0.279  15.635 -0.1120  1.0103  0.0230
18118TIP3    H175769   4.942   0.300  15.586  0.2617 -0.5982 -1.3636
18118TIP3    H275770   5.009   0.189  15.665  0.5969  1.2248  1.0134
18119TIP3   OH275771   4.506   1.227  10.755 -0.2688 -0.1802 -0.3682
18119TIP3    H175772   4.534   1.206  10.666 -0.2454 -1.3217 -0.1058
18119TIP3    H275773   4.540   1.315  10.771 -0.2370  0.0156 -1.4681
18120TIP3   OH275774   1.016   6.486   2.236  0.5466 -0.0618  0.1117
18120TIP3    H175775   1.099   6.438   2.237 -0.4770 -1.9805  2.6275
18120TIP3    H275776   1.037   6.569   2.280  1.1643 -0.5308  0.7381
18121TIP3   OH275777   2.085   0.475   6.001  0.3790 -0.0242  0.3523
18121TIP3    H175778   2.149   0.459   6.070  1.9477  2.1303 -0.4743
18121TIP3    H275779   2.112   0.418   5.929  0.4053 -0.2891  0.5761
18122TIP3   OH275780   5.067   1.043   2.758  0.0867  0.3857 -0.2251
18122TIP3    H175781   5.077   1.112   2.823  3.5258  0.1524 -0.3305
18122TIP3    H275782   5.081   0.962   2.807 -1.1817 -0.0705 -0.5935
18123TIP3   OH275783   2.979   4.785   0.662 -0.2401  0.1573 -0.4346
18123TIP3    H175784   3.053   4.729   0.685 -0.2607  0.6684  0.9836
18123TIP3    H275785   2.907   4.724   0.644 -0.0846 -0.3009  0.4375
18124TIP3   OH275786   3.266   3.904  13.976  0.2490  0.0876  0.2429
18124TIP3    H175787   3.195   3.840  13.965  1.4833 -1.6034  1.4035
18124TIP3    H275788   3.326   3.886  13.904  0.0321  0.7711 -0.1129
18125TIP3   OH275789   3.072   4.672   5.886 -0.1623 -0.6574  0.8406
18125TIP3    H175790   3.063   4.616   5.963  1.1112 -0.9712  0.7907
18125TIP3    H275791   2.983   4.684   5.854 -0.4765 -2.9500  0.6674
18126TIP3   OH275792   0.276   3.089   4.011 -0.0254 -0.5952  0.6684
18126TIP3    H175793   0.251   3.147   4.083 -0.7033 -0.1521  0.0828
18126TIP3    H275794   0.197   3.040   3.991 -0.5950  1.0288 -1.4063
18127TIP3   OH275795   4.241   0.247  15.193 -0.1709  0.1622 -0.0204
18127TIP3    H175796   4.291   0.309  15.247  0.3373 -0.5081  0.2983
18127TIP3    H275797   4.226   0.172  15.250  1.1888 -0.9677 -1.0696
18128TIP3   OH275798   1.165   4.733  13.540 -0.0404 -0.3734 -0.0205
18128TIP3    H175799   1.230   4.719  13.609  0.1868  0.3823 -0.0745
18128TIP3    H275800   1.153   4.828  13.538 -0.7230 -0.4639 -0.4045
18129TIP3   OH275801   3.715   5.734   1.906  0.0603  0.1153 -0.1972
18129TIP3    H175802   3.768   5.803   1.947  1.2530 -1.2224  0.5989
18129TIP3    H275803   3.748   5.727   1.817 -0.7795  1.2646 -0.6179
18130TIP3   OH275804   4.635   6.780   2.905  0.1684  0.0153  0.2352
18130TIP3    H175805   4.606   6.689   2.914  0.5714 -0.2704 -1.1256
18130TIP3    H275806   4.729   6.777   2.924  0.5719 -0.2137 -1.6280
18131TIP3   OH275807   5.094   1.277   5.530 -0.6009 -0.5758  0.1890
18131TIP3    H175808   5.027   1.345   5.518 -0.8540 -0.9150 -0.3413
18131TIP3    H275809   5.049   1.207   5.578 -0.9864 -1.3115 -1.1819
18132TIP3   OH275810   0.665   0.378  13.777 -0.0695  0.1428 -0.1930
18132TIP3    H175811   0.659   0.330  13.695 -1.5999  0.1362 -0.0964
18132TIP3    H275812   0.641   0.314  13.844  0.1302  0.4314  0.1577
18133TIP3   OH275813   3.709   1.804   1.899  0.0105  0.0961  0.4527
18133TIP3    H175814   3.652   1.739   1.939  1.7290 -1.8376 -0.1129
18133TIP3    H275815   3.650   1.855   1.843 -1.3483 -1.1203  0.7123
18134TIP3   OH275816   1.498   0.123   5.680 -0.3172 -0.3649  0.0993
18134TIP3    H175817   1.428   0.128   5.744  0.0355  0.5553  0.4260
18134TIP3    H275818   1.460   0.158   5.599 -0.2643  0.0531  0.2534
18135TIP3   OH275819   0.934   5.750  14.222  0.1566  0.1913 -0.2789
18135TIP3    H175820   0.881   5.810  14.171 -1.0211  0.5173  1.2644
18135TIP3    H275821   0.957   5.680  14.161 -2.8303 -0.4370 -0.8399
18136TIP3   OH275822   1.491   5.452   5.215 -0.2873 -0.0637  0.1774
18136TIP3    H175823   1.453   5.370   5.186 -0.1386 -0.1250  0.1553
18136TIP3    H275824   1.478   5.512   5.142 -0.5046 -0.0332  0.2395
18137TIP3   OH275825   0.154   1.805  12.291 -0.1883 -0.0300 -0.0879
18137TIP3    H175826   0.124   1.895  12.289  0.0522  0.0512 -0.1350
18137TIP3    H275827   0.249   1.812  12.304 -0.2659 -0.2936  0.6384
18138TIP3   OH275828   4.492   4.482  16.226  0.0493  0.3587 -0.3567
18138TIP3    H175829   4.564   4.419  16.232 -1.1472 -1.0657 -0.3550
18138TIP3    H275830   4.535   4.567  16.224  1.6762 -0.3746  0.9705
18139TIP3   OH275831   0.688   6.643  14.277 -0.1951 -0.4437  0.4320
18139TIP3    H175832   0.660   6.597  14.198  1.6017 -0.5870 -0.1741
18139TIP3    H275833   0.757   6.587  14.314 -0.2578  0.1635  1.4898
18140TIP3   OH275834   5.072   1.048  13.533 -0.0747 -0.0859  0.0041
18140TIP3    H175835   5.149   0.991  13.531  0.4795  0.6698 -0.5873
18140TIP3    H275836   5.057   1.064  13.626 -0.1589 -1.0846  0.1728
18141TIP3   OH275837   0.561   0.631  16.035  0.6440  0.6135  0.0320
18141TIP3    H175838   0.655   0.638  16.055  0.7092  0.6632 -0.2781
18141TIP3    H275839   0.559   0.611  15.941  0.4091 -1.5637  0.4508
18142TIP3   OH275840   5.083   5.383   2.231 -0.6316  0.3953  0.5790
18142TIP3    H175841   4.997   5.347   2.254  0.0213 -2.0546 -0.5188
18142TIP3    H275842   5.105   5.339   2.149  1.8470  0.6843  1.0362
18143TIP3   OH275843   5.052   4.332   2.025 -0.6714  0.1265  0.4779
18143TIP3    H175844   4.978   4.327   1.964 -0.3331  0.0437  0.0696
18143TIP3    H275845   5.130   4.321   1.970 -0.4077 -1.8222  1.1441
18144TIP3   OH275846   0.972   6.320  16.825 -0.3003 -0.0774 -0.0516
18144TIP3    H175847   0.978   6.287  16.735 -0.9774 -0.5517  0.0662
18144TIP3    H275848   1.051   6.372  16.837  0.0557 -0.4382 -0.7475
18145TIP3   OH275849   5.365   5.816   2.863  0.3410  0.9130 -0.2446
18145TIP3    H175850   5.282   5.842   2.823 -0.5238 -0.7901  0.3386
18145TIP3    H275851   5.401   5.751   2.803  0.2469  0.1757  0.4706
18146TIP3   OH275852   6.299   0.992   4.922 -0.2288  0.5548  0.3790
18146TIP3    H175853   6.370   0.943   4.964  0.0023  0.1264 -0.4892
18146TIP3    H275854   6.336   1.078   4.903 -0.6411  1.1181  1.9258
18147TIP3   OH275855   6.606   1.998   1.452  0.5449 -0.2604  0.2428
18147TIP3    H175856   6.644   1.920   1.413  0.3835 -0.2004 -0.0393
18147TIP3    H275857   6.572   1.969   1.536  3.2423  0.1661  1.5637
18148TIP3   OH275858   4.467   0.130  13.500  0.2112  0.4712  0.1786
18148TIP3    H175859   4.545   0.167  13.458 -0.5385 -0.8259 -2.6494
18148TIP3    H275860   4.415   0.206  13.526 -0.1210  1.5400 -3.1301
18149TIP3   OH275861   4.323   0.898  15.966 -0.8823 -0.1874 -0.0311
18149TIP3    H175862   4.417   0.904  15.978 -1.0364  1.5215  0.5105
18149TIP3    H275863   4.311   0.819  15.914  0.7478 -1.0934  0.8737
18150TIP3   OH275864   1.274   2.267  15.282  0.2259 -0.3636 -0.0261
18150TIP3    H175865   1.257   2.355  15.317 -0.0120 -0.6628  0.6324
18150TIP3    H275866   1.226   2.208  15.341 -1.2094 -0.8204 -1.5609
18151TIP3   OH275867   6.722   1.923  10.890 -0.0248  0.1020  0.1299
18151TIP3    H175868   6.731   1.865  10.814 -0.3626  1.0305 -0.6561
18151TIP3    H275869   6.691   2.006  10.852  0.8977  0.9389  1.1568
18152TIP3   OH275870   0.408   6.007   0.857 -0.5221 -0.1853 -0.2027
18152TIP3    H175871   0.501   5.986   0.849 -0.6356 -0.3468 -1.2288
18152TIP3    H275872   0.394   6.080   0.797 -0.5289  1.7000  1.9531
18153TIP3   OH275873   4.606   1.183   3.245 -0.1679 -0.1921  0.3678
18153TIP3    H175874   4.618   1.151   3.156  3.5113 -1.3828  1.1241
18153TIP3    H275875   4.661   1.261   3.250 -0.4525 -0.0403  1.5819
18154TIP3   OH275876   3.209   2.284  15.283 -0.2903  0.4055  0.0083
18154TIP3    H175877   3.215   2.362  15.229  1.4225  0.7501  0.6496
18154TIP3    H275878   3.148   2.308  15.353  0.6837  1.4097  0.5429
18155TIP3   OH275879   2.717   3.217   2.164 -0.0566 -0.0133  0.2698
18155TIP3    H175880   2.724   3.124   2.141 -0.6095 -0.5367  2.0443
18155TIP3    H275881   2.801   3.254   2.138  0.0295 -0.9195 -0.8243
18156TIP3   OH275882   5.793   0.042   4.744 -0.0143 -0.0534 -0.0780
18156TIP3    H175883   5.804   0.122   4.796  0.6715 -0.8619  1.0481
18156TIP3    H275884   5.875  -0.005   4.754 -0.9197 -1.6008  0.5002
18157TIP3   OH275885   6.065   2.159  15.273  0.1216  0.0339 -0.0551
18157TIP3    H175886   6.061   2.137  15.366 -0.0197 -1.3695 -0.3684
18157TIP3    H275887   5.973   2.167  15.246  0.1451 -0.1822 -0.2050
18158TIP3   OH275888   2.935   2.543  14.638 -0.4566  0.4052  0.5171
18158TIP3    H175889   2.927   2.639  14.636  0.7311  0.5046 -0.2834
18158TIP3    H275890   2.846   2.512  14.619 -0.5476  1.3589 -0.7706
18159TIP3   OH275891   2.743   1.275  14.025  0.3790 -0.2725  0.1182
18159TIP3    H175892   2.669   1.321  14.065 -0.1002 -0.7496 -0.2074
18159TIP3    H275893   2.727   1.280  13.931  1.2922  0.4968 -0.0179
18160TIP3   OH275894   1.743   1.271  15.722 -0.2230  0.2798 -0.6802
18160TIP3    H175895   1.737   1.205  15.792  0.8604  1.0197  0.1383
18160TIP3    H275896   1.653   1.278  15.689 -0.5626 -0.8208 -0.0499
18161TIP3   OH275897   4.773   6.669  15.410  0.3085 -0.3182 -0.5435
18161TIP3    H175898   4.767   6.715  15.326 -0.7441 -0.6554 -0.6646
18161TIP3    H275899   4.795   6.579  15.386  1.3028 -0.1310 -0.3701
18162TIP3   OH275900   3.846   1.064  14.117 -0.2146 -1.1312 -0.3591
18162TIP3    H175901   3.765   1.087  14.072  0.6916 -0.9209 -1.9424
18162TIP3    H275902   3.825   1.075  14.210 -0.7747  3.2303 -0.8100
18163TIP3   OH275903   0.766   6.082  13.020  0.4465  0.0551  0.0046
18163TIP3    H175904   0.750   6.100  12.927 -1.4159 -0.8679  0.0917
18163TIP3    H275905   0.813   6.159  13.052  0.7349  0.5834 -1.5894
18164TIP3   OH275906   0.885   1.840   4.392  0.8493 -0.1972 -0.0785
18164TIP3    H175907   0.892   1.925   4.347 -1.5301  0.7182  1.0974
18164TIP3    H275908   0.915   1.857   4.481 -0.6928 -0.2545  0.4802
18165TIP3   OH275909   1.520   5.818  11.945  0.1480 -0.7778 -0.4511
18165TIP3    H175910   1.554   5.904  11.971  1.2178 -0.9203 -1.3030
18165TIP3    H275911   1.497   5.828  11.853  1.1108 -1.6311 -0.8017
18166TIP3   OH275912   4.921   1.238  14.456 -0.2592 -0.5153  0.2389
18166TIP3    H175913   4.859   1.217  14.526  0.1651 -2.3672  0.1033
18166TIP3    H275914   5.007   1.236  14.498 -0.0719 -0.7446 -0.1513
18167TIP3   OH275915   2.496   2.871  10.788 -0.0955  0.4063  0.6701
18167TIP3    H175916   2.422   2.822  10.823  0.6382 -0.0562  1.6637
18167TIP3    H275917   2.462   2.958  10.770 -1.0781 -0.0485  0.2612
18168TIP3   OH275918   2.620   0.953   0.873  0.5655  0.0135  0.1793
18168TIP3    H175919   2.585   0.944   0.784  0.5370  0.5851  0.1297
18168TIP3    H275920   2.544   0.971   0.927  0.5770 -0.3898  0.3319
18169TIP3   OH275921   1.121   3.028  16.587 -0.0492  0.5042 -0.4600
18169TIP3    H175922   1.104   2.946  16.633  0.0432  1.3765  1.2523
18169TIP3    H275923   1.217   3.038  16.590 -0.0917  0.8800 -0.2445
18170TIP3   OH275924   3.899   4.605  11.497 -0.1963 -0.2337  0.8836
18170TIP3    H175925   3.829   4.567  11.550 -1.5126  0.6436 -0.1402
18170TIP3    H275926   3.976   4.603  11.553 -1.3240 -0.1474  2.4968
18171TIP3   OH275927   3.115   2.342  16.431  0.1319  0.6900 -0.4306
18171TIP3    H175928   3.061   2.402  16.380 -2.7234 -0.6605  0.7738
18171TIP3    H275929   3.140   2.391  16.509  1.1208  1.4869 -1.2310
18172TIP3   OH275930   5.602   2.391  13.991  0.5244  0.2777  0.0185
18172TIP3    H175931   5.515   2.369  13.958  0.4011  1.2923 -0.3905
18172TIP3    H275932   5.631   2.314  14.038 -0.5331 -0.1322  0.0107
18173TIP3   OH275933   6.255   1.614   0.885 -0.0343 -0.5750 -0.0576
18173TIP3    H175934   6.303   1.576   0.959  0.2855 -1.6490 -0.7843
18173TIP3    H275935   6.176   1.651   0.924  1.5779  1.7166  1.2563
18174TIP3   OH275936   5.060   6.340  15.920  0.0926 -0.1674  0.0654
18174TIP3    H175937   5.067   6.407  15.988 -1.9516  0.8562 -0.6500
18174TIP3    H275938   5.099   6.381  15.842  1.9065 -1.1212  0.4292
18175TIP3   OH275939   5.858   3.874  16.141 -0.1720 -0.1008  0.0672
18175TIP3    H175940   5.879   3.803  16.081 -0.9200  1.3422 -2.0195
18175TIP3    H275941   5.769   3.855  16.171 -1.0920  0.7558 -1.8893
18176TIP3   OH275942   4.835   1.313   1.123 -0.2674 -0.4089 -0.5480
18176TIP3    H175943   4.858   1.298   1.031 -0.3438 -0.4607 -0.5593
18176TIP3    H275944   4.870   1.399   1.144  1.5657 -1.2281 -0.0353
18177TIP3   OH275945   1.496   4.646  16.920 -0.0599 -0.0304 -0.2430
18177TIP3    H175946   1.528   4.719  16.868 -1.4579  0.6997 -0.1281
18177TIP3    H275947   1.535   4.568  16.880  0.9052  0.7197 -0.7857
18178TIP3   OH275948   0.711   5.858  12.265  0.2788 -0.0979 -0.0270
18178TIP3    H175949   0.793   5.840  12.219 -0.8996 -0.0855 -2.3211
18178TIP3    H275950   0.666   5.773  12.266  0.4196 -0.1699  1.4689
18179TIP3   OH275951   1.144   5.370   1.191 -0.0148  0.6302  0.3522
18179TIP3    H175952   1.181   5.322   1.116 -0.7366  0.7690 -0.1032
18179TIP3    H275953   1.150   5.309   1.264  0.8283  0.5394  0.2200
18180TIP3   OH275954   2.820   5.795   1.428 -0.0089 -0.3885 -0.4932
18180TIP3    H175955   2.880   5.857   1.386  0.3345 -0.8563 -0.7025
18180TIP3    H275956   2.859   5.780   1.515 -0.4828  0.2387 -0.1580
18181TIP3   OH275957   5.433   4.773   2.058 -0.2392 -0.2258  0.2088
18181TIP3    H175958   5.376   4.832   2.108 -0.8686 -0.6668  0.0301
18181TIP3    H275959   5.412   4.791   1.966 -0.1653 -0.4617  0.1437
18182TIP3   OH275960   2.229   5.859  10.457  0.1106  0.3625 -0.2129
18182TIP3    H175961   2.169   5.895  10.392  1.5642  1.0226 -1.2429
18182TIP3    H275962   2.314   5.897  10.435  0.5197  1.3503  2.6217
18183TIP3   OH275963   5.869   1.669   2.405  0.5418 -0.1021  0.0082
18183TIP3    H175964   5.820   1.665   2.323 -0.2536  0.8538  0.4201
18183TIP3    H275965   5.876   1.578   2.434  1.4952 -0.5341 -1.4874
18184TIP3   OH275966   4.036   6.539   0.411 -0.0753 -0.0575 -0.0319
18184TIP3    H175967   4.013   6.631   0.395 -2.3390 -0.2657  1.5725
18184TIP3    H275968   4.039   6.531   0.507 -0.0699 -1.6918 -0.1408
18185TIP3   OH275969   4.186   3.693   0.357 -0.3995  0.3648  0.7990
18185TIP3    H175970   4.178   3.605   0.393  0.1515  0.9962  2.5508
18185TIP3    H275971   4.177   3.681   0.262  0.4396 -1.6547  0.9317
18186TIP3   OH275972   1.605   3.963  15.273 -0.6732  0.7109 -0.3182
18186TIP3    H175973   1.697   3.968  15.244 -0.7309  0.2925 -0.5921
18186TIP3    H275974   1.604   4.008  15.357  0.4171 -1.7323  1.1222
18187TIP3   OH275975   2.884   4.407   2.015 -0.5078  0.3388  0.0433
18187TIP3    H175976   2.898   4.410   1.920 -2.4196 -0.8107 -0.3219
18187TIP3    H275977   2.866   4.314   2.033 -0.3045  0.5754  1.5115
18188TIP3   OH275978   6.258   0.599   1.564 -0.5206  0.1146  0.1146
18188TIP3    H175979   6.328   0.661   1.545  0.8998 -1.2540  0.6705
18188TIP3    H275980   6.200   0.647   1.624  0.1258  1.1372 -0.0456
18189TIP3   OH275981   6.768   3.505  12.877 -0.1941  0.1267 -0.2970
18189TIP3    H175982   6.700   3.534  12.816 -0.7201  0.5187  0.4653
18189TIP3    H275983   6.753   3.555  12.956  0.8544  0.0554 -0.0316
18190TIP3   OH275984   3.728   4.190   0.540 -0.8699  0.7872 -0.4446
18190TIP3    H175985   3.683   4.233   0.612 -1.8714  0.8211 -1.0699
18190TIP3    H275986   3.802   4.248   0.519 -0.1797  0.4463  0.9541
18191TIP3   OH275987   4.363   4.833  16.288 -0.0136  0.5048 -0.3877
18191TIP3    H175988   4.402   4.919  16.273  0.3659  0.3149 -0.5101
18191TIP3    H275989   4.342   4.832  16.381 -0.4666  0.9085 -0.4772
18192TIP3   OH275990   2.962   2.118   5.217  0.0270  0.7545 -0.7233
18192TIP3    H175991   2.887   2.172   5.240 -1.5722 -0.8799 -1.8498
18192TIP3    H275992   2.925   2.033   5.195  2.3219 -0.4385 -0.2962
18193TIP3   OH275993   6.557   6.520   2.058  0.2604 -0.1340  0.0641
18193TIP3    H175994   6.467   6.552   2.063  0.5015  0.3763  2.6918
18193TIP3    H275995   6.608   6.584   2.108  1.9754 -0.8717 -0.6311
18194TIP3   OH275996   2.196   5.992   4.870 -0.3057 -0.0549 -0.1452
18194TIP3    H175997   2.249   6.059   4.913  0.0040 -1.0485  1.0816
18194TIP3    H275998   2.123   6.041   4.832 -0.2824  0.9521  1.0188
18195TIP3   OH275999   0.496   6.335   3.417 -0.3061  0.0207  0.2774
18195TIP3    H176000   0.540   6.266   3.367 -2.2765 -2.8027  2.1267
18195TIP3    H276001   0.567   6.390   3.449  1.4964 -1.7059 -0.5197
18196TIP3   OH276002   2.253   3.687  14.867  0.4211 -0.0890  0.5995
18196TIP3    H176003   2.193   3.710  14.939  0.4390 -0.5845  0.7762
18196TIP3    H276004   2.264   3.769  14.819  0.1478  0.1733  0.9703
18197TIP3   OH276005   3.659   3.453   5.619 -0.2165 -0.3495  0.5865
18197TIP3    H176006   3.656   3.498   5.704  0.1479 -0.7498  0.8185
18197TIP3    H276007   3.741   3.403   5.621 -0.9467 -1.6035  0.6591
18198TIP3   OH276008   0.165   5.858   4.590  0.1399  0.6306  0.5372
18198TIP3    H176009   0.090   5.917   4.586 -1.3745 -1.2389 -0.4034
18198TIP3    H276010   0.218   5.879   4.513 -0.6517  0.4316 -0.0659
18199TIP3   OH276011   1.544   2.424   4.533  0.3127  0.0072  0.2734
18199TIP3    H176012   1.553   2.442   4.626  2.1997  0.1715  0.1110
18199TIP3    H276013   1.632   2.398   4.505  0.5993  2.8841 -2.0558
18200TIP3   OH276014   3.330   4.494   5.283  0.5897  0.1514 -0.1640
18200TIP3    H176015   3.276   4.506   5.361 -2.1718 -1.9001 -1.6108
18200TIP3    H276016   3.394   4.428   5.308 -1.9872 -2.5619 -0.2800
18201TIP3   OH276017   6.358   5.842   1.352  0.0443 -0.3088  0.1411
18201TIP3    H176018   6.348   5.757   1.395 -1.3104 -0.6734 -0.8052
18201TIP3    H276019   6.423   5.827   1.284  1.3811 -0.0080  1.2976
18202TIP3   OH276020   5.776   4.062  14.380  0.1099  0.2960 -0.2289
18202TIP3    H176021   5.731   3.979  14.365  1.6986 -0.2556 -2.4038
18202TIP3    H276022   5.828   4.048  14.459 -1.9376  0.3095  1.1978
18203TIP3   OH276023   1.128   5.278   4.211  0.3058 -0.0367  0.2614
18203TIP3    H176024   1.127   5.312   4.122 -0.0153 -0.2540  0.1808
18203TIP3    H276025   1.091   5.348   4.265 -0.2917 -0.2279  0.1054
18204TIP3   OH276026   3.252   2.032   6.564 -0.8209  0.2647 -0.0645
18204TIP3    H176027   3.178   2.009   6.620 -0.0655 -0.6715  0.5740
18204TIP3    H276028   3.301   1.951   6.553 -1.5297  0.1142 -3.0513
18205TIP3   OH276029   3.456   3.692  13.231 -0.3624  0.0323 -0.4534
18205TIP3    H176030   3.377   3.649  13.199  0.0122 -0.2585 -0.9819
18205TIP3    H276031   3.432   3.721  13.320 -0.4003 -1.8544  0.1875
18206TIP3   OH276032   2.478   1.769   3.616 -0.3928  0.0150  0.1692
18206TIP3    H176033   2.530   1.693   3.588  0.5737  1.3139 -1.7802
18206TIP3    H276034   2.417   1.785   3.544  0.2509  1.7839 -0.0469
18207TIP3   OH276035   5.107   1.088  12.913 -0.4883 -0.0182  0.2330
18207TIP3    H176036   5.170   1.104  12.983  0.2727  1.7358 -0.7711
18207TIP3    H276037   5.143   1.135  12.838 -1.4906 -1.4963 -1.2251
18208TIP3   OH276038   5.984   5.193  16.727  0.3656  0.2812  0.1513
18208TIP3    H176039   6.051   5.146  16.776  0.6780  0.9801  0.4102
18208TIP3    H276040   5.902   5.172  16.772  0.2569 -1.3512 -0.7407
18209TIP3   OH276041   4.883   6.537  16.101 -0.0363 -0.2791 -0.4270
18209TIP3    H176042   4.811   6.591  16.069  0.9662  1.3995  0.0430
18209TIP3    H276043   4.861   6.449  16.072 -1.5168  0.4338 -1.6197
18210TIP3   OH276044   5.223   0.720  15.161 -0.0616 -0.1769  0.2322
18210TIP3    H176045   5.193   0.681  15.079 -1.1353 -0.5099  0.7726
18210TIP3    H276046   5.318   0.727  15.150  0.0040 -1.6743 -0.4256
18211TIP3   OH276047   0.913   3.805   5.411  0.0056  0.1213 -0.4308
18211TIP3    H176048   0.854   3.880   5.417 -0.6006 -0.1112 -2.5832
18211TIP3    H276049   0.952   3.798   5.499 -2.2269  1.0276  0.7174
18212TIP3   OH276050   3.499   3.744   6.064 -0.1238  0.1359  0.6143
18212TIP3    H176051   3.421   3.771   6.112  0.4842  0.2363  1.5707
18212TIP3    H276052   3.570   3.751   6.127  0.4867 -1.0867  0.0955
18213TIP3   OH276053   2.409   1.631   1.822 -0.7907  0.4839  0.7295
18213TIP3    H176054   2.403   1.725   1.839 -1.4149  0.1697  2.3426
18213TIP3    H276055   2.499   1.607   1.845 -0.2990  0.8544 -0.7071
18214TIP3   OH276056   5.442   6.136  15.496  0.4572  0.6207 -0.1109
18214TIP3    H176057   5.533   6.163  15.510  0.7757  0.2201 -1.3302
18214TIP3    H276058   5.417   6.092  15.578  2.4147 -2.1154 -0.8550
18215TIP3   OH276059   0.307   1.837   4.876 -0.0781 -0.4812 -0.1990
18215TIP3    H176060   0.213   1.834   4.861 -0.0609 -0.4346 -0.3153
18215TIP3    H276061   0.329   1.931   4.876 -0.1454 -0.4571  0.5283
18216TIP3   OH276062   3.015   1.358  16.013  0.3054 -0.3744  0.5433
18216TIP3    H176063   3.003   1.412  16.091 -0.3545 -2.5300  2.0239
18216TIP3    H276064   3.109   1.341  16.008  0.2731 -0.8270  1.3302
18217TIP3   OH276065   0.352   1.162  12.352 -0.3963 -0.0108 -0.5213
18217TIP3    H176066   0.388   1.078  12.323  0.3056 -0.6911  2.0669
18217TIP3    H276067   0.258   1.149  12.352 -0.4312 -0.0176 -2.2205
18218TIP3   OH276068   4.184   0.534  16.153  0.3470  0.2423 -0.2693
18218TIP3    H176069   4.123   0.585  16.100  0.5378 -0.3677 -1.1014
18218TIP3    H276070   4.258   0.516  16.094 -0.0579 -1.6353 -0.2750
18219TIP3   OH276071   4.195   3.732  14.929  0.3429  0.3584  0.3544
18219TIP3    H176072   4.107   3.718  14.963 -0.3183 -1.1975 -1.7819
18219TIP3    H276073   4.182   3.752  14.836  2.2393 -1.0339 -0.2831
18220TIP3   OH276074   2.628   6.293   2.481  0.3667 -0.2899  0.6808
18220TIP3    H176075   2.660   6.330   2.564  0.6171  0.6559  0.1676
18220TIP3    H276076   2.580   6.214   2.508 -0.2559  0.4391  1.7985
18221TIP3   OH276077   2.606   4.894  12.279  0.3027 -0.4358 -0.3001
18221TIP3    H176078   2.694   4.916  12.308 -0.3620  0.4423  1.1850
18221TIP3    H276079   2.581   4.965  12.220  0.3475 -0.3407 -0.2045
18222TIP3   OH276080   4.682   1.230  11.811 -0.4296 -0.3113 -0.3154
18222TIP3    H176081   4.613   1.165  11.794 -1.3777  0.2304  1.1914
18222TIP3    H276082   4.644   1.313  11.782  1.1738 -0.4703 -3.2093
18223TIP3   OH276083   4.045   5.222   0.897 -0.3287 -0.2420 -0.0843
18223TIP3    H176084   4.035   5.176   0.980  1.9431  0.5266  0.6886
18223TIP3    H276085   4.139   5.229   0.885 -0.6036  1.8577 -1.4997
18224TIP3   OH276086   0.355   0.189   0.765  0.5038 -0.2480 -0.6759
18224TIP3    H176087   0.362   0.094   0.751  0.5671 -0.3565  0.0695
18224TIP3    H276088   0.345   0.225   0.677  0.8546 -0.9136 -0.9963
18225TIP3   OH276089   0.408   5.904   1.697  0.2814 -0.0794 -0.5730
18225TIP3    H176090   0.470   5.897   1.625 -0.1552  0.0014 -0.9626
18225TIP3    H276091   0.398   5.998   1.711  2.7153 -0.0186  1.6692
18226TIP3   OH276092   1.378   4.074  16.494 -0.5114  0.0836  0.6372
18226TIP3    H176093   1.471   4.049  16.496 -0.9568 -1.7316  1.1381
18226TIP3    H276094   1.366   4.117  16.410  0.5171 -0.8687 -0.0214
18227TIP3   OH276095   1.542   1.094  15.402  0.3898  0.5448 -0.3752
18227TIP3    H176096   1.556   1.173  15.348  1.5170  0.5094 -0.1565
18227TIP3    H276097   1.614   1.036  15.377 -1.1367 -0.9621 -1.4589
18228TIP3   OH276098   3.408   6.259   5.770  0.2277 -0.2414 -0.3367
18228TIP3    H176099   3.455   6.191   5.817 -1.8632 -1.1847  0.4946
18228TIP3    H276100   3.474   6.328   5.755  2.9745 -3.0890 -2.8566
18229TIP3   OH276101   1.298   2.880   1.953  0.2368 -0.1388 -0.4752
18229TIP3    H176102   1.238   2.832   2.011  1.5654  1.3330  2.3296
18229TIP3    H276103   1.243   2.945   1.910 -0.5608 -0.2617  0.3174
18230TIP3   OH276104   5.539   6.670   5.713  0.1842 -0.8134  0.0653
18230TIP3    H176105   5.619   6.685   5.763  0.5733  0.1516 -0.8113
18230TIP3    H276106   5.475   6.730   5.751  0.6262  0.3030 -0.8861
18231TIP3   OH276107   5.285   5.628  11.367 -0.2830 -0.6907 -0.2140
18231TIP3    H176108   5.293   5.708  11.314 -2.9460 -1.2542 -1.6462
18231TIP3    H276109   5.357   5.572  11.337  2.0145  1.2973  1.2385
18232TIP3   OH276110   5.307   4.969   4.857  0.1783  0.0219 -0.2573
18232TIP3    H176111   5.271   4.897   4.806 -3.1223  1.5966 -0.4144
18232TIP3    H276112   5.269   4.959   4.944  1.2863  0.4710  0.2970
18233TIP3   OH276113   0.209   5.496  10.671  0.7629  0.6541  0.1703
18233TIP3    H176114   0.281   5.439  10.642  1.5177  1.9885 -0.6548
18233TIP3    H276115   0.249   5.554  10.736  0.2828  1.0074  0.1554
18234TIP3   OH276116   4.026   4.038   4.334  0.6780  0.8943  0.0964
18234TIP3    H176117   4.079   3.997   4.265  0.3485 -3.1038  1.9555
18234TIP3    H276118   4.073   4.020   4.415 -0.6789  2.3279  1.2608
18235TIP3   OH276119   1.886   5.584   5.601  0.3396  0.1093  0.1686
18235TIP3    H176120   1.913   5.494   5.620  2.5712  0.7016  0.1239
18235TIP3    H276121   1.830   5.577   5.524 -1.5614 -1.4412  1.5987
18236TIP3   OH276122   5.230   1.878  14.637 -0.7360  0.0781  0.1105
18236TIP3    H176123   5.217   1.784  14.636  1.5730 -0.3105  0.7976
18236TIP3    H276124   5.277   1.896  14.718  1.4062  1.3740 -1.2921
18237TIP3   OH276125   1.367   0.246   3.535  0.0728 -0.4161 -0.1905
18237TIP3    H176126   1.454   0.212   3.552  0.5770  1.2290  0.6694
18237TIP3    H276127   1.332   0.268   3.621 -0.8269 -0.1834 -0.5978
18238TIP3   OH276128   6.443   4.660   4.762 -0.1892 -0.3320 -0.0898
18238TIP3    H176129   6.431   4.585   4.703 -1.2620  0.7827 -1.3431
18238TIP3    H276130   6.529   4.645   4.802 -0.1719 -1.9863 -0.6512
18239TIP3   OH276131   0.361   4.422  15.764 -0.1798 -0.3488  0.5940
18239TIP3    H176132   0.409   4.382  15.838  0.8292  1.3394  0.9183
18239TIP3    H276133   0.270   4.423  15.793 -0.2181 -2.1710  0.6527
18240TIP3   OH276134   1.636   1.923   5.160  0.2451  0.2347 -0.7918
18240TIP3    H176135   1.625   1.930   5.065  0.1474 -0.1918 -0.8139
18240TIP3    H276136   1.565   1.976   5.196  0.5318  0.7333 -0.9599
18241TIP3   OH276137   4.031   0.392   0.101  0.0242  0.4021 -0.2097
18241TIP3    H176138   4.064   0.388   0.011  0.6088 -1.2330  0.0369
18241TIP3    H276139   4.026   0.485   0.121 -0.7309  0.8264 -2.1432
18242TIP3   OH276140   1.145   3.241   1.554  0.3359 -0.5256  0.3761
18242TIP3    H176141   1.239   3.224   1.561 -0.0804 -3.3181  0.0736
18242TIP3    H276142   1.118   3.262   1.644  1.3904  1.6132  0.2692
18243TIP3   OH276143   1.422   3.059  16.977 -0.2562  0.0737  0.1257
18243TIP3    H176144   1.380   3.125  16.922 -3.4356 -1.4020  0.5453
18243TIP3    H276145   1.478   3.109  17.036 -2.7656  2.5200  0.6516
18244TIP3   OH276146   5.177   2.377  13.357 -0.2003 -0.2708 -0.3559
18244TIP3    H176147   5.190   2.316  13.429  0.2962  0.1420 -0.0908
18244TIP3    H276148   5.219   2.334  13.282  1.2352  0.2727  0.1009
18245TIP3   OH276149   1.549   2.653  16.095 -0.2500 -0.2908 -0.2112
18245TIP3    H176150   1.559   2.588  16.025  1.8329 -0.4350  0.1460
18245TIP3    H276151   1.585   2.611  16.173 -0.7564  0.5652  0.5093
18246TIP3   OH276152   5.922   4.951  11.935  0.0711 -0.3507  0.0774
18246TIP3    H176153   5.908   5.042  11.961  2.2349  0.2716 -0.7323
18246TIP3    H276154   5.846   4.929  11.882 -0.0908  1.2740 -0.3959
18247TIP3   OH276155   2.035   3.210  11.957  0.6188  0.3103 -0.1356
18247TIP3    H176156   2.027   3.261  11.877  0.6151  2.0569  0.9367
18247TIP3    H276157   2.119   3.237  11.995  0.1329  0.3014  0.9773
18248TIP3   OH276158   2.155   5.793  16.619  0.5837 -0.0859  0.3072
18248TIP3    H176159   2.084   5.736  16.649  0.4062 -0.5710 -0.9699
18248TIP3    H276160   2.224   5.782  16.685 -1.7130  3.1099  3.6068
18249TIP3   OH276161   3.955   5.023   1.412 -0.5837 -0.5015  0.4526
18249TIP3    H176162   3.910   5.036   1.329 -2.4241 -1.6646  1.2165
18249TIP3    H276163   3.906   5.078   1.474 -1.6259 -2.5191  1.4911
18250TIP3   OH276164   3.501   2.413   2.726 -0.3323  0.1005 -0.1597
18250TIP3    H176165   3.411   2.387   2.708 -0.1010 -1.3365  0.6124
18250TIP3    H276166   3.496   2.508   2.741 -1.5848  0.1634 -0.8139
18251TIP3   OH276167   1.027   6.683   1.084  0.3171  0.5696 -0.2623
18251TIP3    H176168   1.112   6.717   1.112  0.4487 -0.0956  0.1821
18251TIP3    H276169   0.965   6.719   1.147  0.4632 -0.0357  0.2389
18252TIP3   OH276170   1.167   5.172   1.685 -0.3396 -0.2237  0.4432
18252TIP3    H176171   1.167   5.077   1.669 -0.7406 -0.1931  0.2400
18252TIP3    H276172   1.246   5.188   1.737  0.9418 -0.3512 -1.3727
18253TIP3   OH276173   5.857   2.268   0.397 -0.3700  0.3297 -0.4080
18253TIP3    H176174   5.942   2.302   0.371 -0.0580 -1.5755 -2.2036
18253TIP3    H276175   5.798   2.293   0.326 -0.9412  0.2142  0.0131
18254TIP3   OH276176   0.422   4.803  12.254  0.1023  0.0633 -0.2074
18254TIP3    H176177   0.430   4.738  12.324 -3.2883 -1.5806 -1.1205
18254TIP3    H276178   0.486   4.777  12.188  2.2340  0.6967  1.5092
18255TIP3   OH276179   3.990   3.233  13.404 -0.2336  0.1678  0.6076
18255TIP3    H176180   4.082   3.252  13.420 -0.1173 -0.1562  0.3330
18255TIP3    H276181   3.990   3.149  13.358 -0.7127 -0.2924  1.4193
18256TIP3   OH276182   4.949   3.173  12.900  0.1214 -0.3004  0.1252
18256TIP3    H176183   4.993   3.129  12.972 -0.1712 -0.1927  0.3749
18256TIP3    H276184   4.907   3.250  12.940  0.8044  0.3283 -0.3427
18257TIP3   OH276185   2.854   5.107   0.682 -1.0120 -0.2837  0.0052
18257TIP3    H176186   2.836   5.013   0.679 -1.2371 -0.2201 -1.4091
18257TIP3    H276187   2.807   5.142   0.607  0.5652  0.6825 -0.5727
18258TIP3   OH276188   3.519   2.559  16.041  0.1865 -0.2299 -0.3864
18258TIP3    H176189   3.488   2.507  16.115  0.4313 -1.0183 -0.8318
18258TIP3    H276190   3.537   2.645  16.078  1.5937 -0.9783  0.7599
18259TIP3   OH276191   2.827   5.258   3.035 -0.0025  0.5246 -0.1735
18259TIP3    H176192   2.821   5.165   3.055  0.8001  0.2685 -1.0638
18259TIP3    H276193   2.892   5.264   2.965 -0.5296  1.6874 -0.5961
18260TIP3   OH276194   3.159   3.653  13.877  0.1063  0.1226  0.1965
18260TIP3    H176195   3.170   3.594  13.803 -0.6881 -0.3060  0.4133
18260TIP3    H276196   3.168   3.597  13.955  3.5498  0.9628  0.5585
18261TIP3   OH276197   4.976   2.053   0.955 -0.1361 -0.1853  0.0141
18261TIP3    H176198   5.028   2.133   0.950 -3.1763  2.1288  1.9346
18261TIP3    H276199   4.936   2.044   0.869  0.1011  0.4780 -0.1719
18262TIP3   OH276200   1.939   1.165   4.858 -0.4712 -0.9693  0.5721
18262TIP3    H176201   2.016   1.159   4.914 -0.2560  0.5249  0.4802
18262TIP3    H276202   1.972   1.157   4.769 -0.7306 -2.6459  0.5946
18263TIP3   OH276203   5.080   6.702  15.984 -0.0473 -0.5720 -0.1238
18263TIP3    H176204   5.147   6.637  16.006 -0.3894 -1.6565 -2.1038
18263TIP3    H276205   5.010   6.687  16.047  0.6825 -0.8225  0.6490
18264TIP3   OH276206   2.500   2.659  15.420 -0.0282 -0.2889 -0.6684
18264TIP3    H176207   2.484   2.564  15.423  0.7999 -0.4060  1.0821
18264TIP3    H276208   2.574   2.673  15.479 -2.5690  1.8904  2.3648
18265TIP3   OH276209   2.333   2.226  15.433 -0.2325 -0.4429  0.7319
18265TIP3    H176210   2.390   2.164  15.387 -1.0243  0.2961 -1.3737
18265TIP3    H276211   2.266   2.172  15.474  0.1312 -1.0863  0.4901
18266TIP3   OH276212   5.100   6.659   0.566 -0.0263  0.5742  0.8244
18266TIP3    H176213   5.091   6.593   0.496 -0.8115 -0.6519  2.0302
18266TIP3    H276214   5.132   6.737   0.521  1.5882 -0.7952 -0.5832
18267TIP3   OH276215   6.504   2.669   4.005 -0.1521 -0.3476 -0.6384
18267TIP3    H176216   6.430   2.656   4.063 -0.2344  1.7543 -0.1843
18267TIP3    H276217   6.581   2.647   4.058 -0.2084  1.7999  0.4366
18268TIP3   OH276218   0.554   2.718  14.840  0.3053  0.1700 -0.1421
18268TIP3    H176219   0.551   2.658  14.915  1.9429 -0.6362 -0.6785
18268TIP3    H276220   0.464   2.718  14.806  0.0108 -1.0492  0.5861
18269TIP3   OH276221   2.836   4.586  14.326 -0.0898  0.3433  0.4366
18269TIP3    H176222   2.774   4.659  14.324 -0.5814 -0.0728  0.0894
18269TIP3    H276223   2.798   4.521  14.267  1.6758  0.8701 -1.4055
18270TIP3   OH276224   1.923   5.771   5.085  0.1641 -0.8350  0.1600
18270TIP3    H176225   1.963   5.846   5.130 -0.2354  0.1383 -1.0504
18270TIP3    H276226   1.839   5.758   5.129 -1.2431  1.5228 -1.5664
18271TIP3   OH276227   1.543   2.493  12.780 -0.0216  0.2035 -0.5882
18271TIP3    H176228   1.488   2.515  12.855 -0.9810 -0.2388 -1.1475
18271TIP3    H276229   1.632   2.514  12.809 -0.6093  2.4754 -0.2192
18272TIP3   OH276230   2.824   6.726  14.206  0.4841 -0.8749 -0.2931
18272TIP3    H176231   2.834   6.750  14.298  0.3392 -0.1516 -0.4573
18272TIP3    H276232   2.750   6.666  14.204  1.2887 -1.9096  0.2227
18273TIP3   OH276233   4.802   0.197   3.220 -0.1719  0.1247 -0.0543
18273TIP3    H176234   4.795   0.292   3.224  1.2093  0.2771 -0.7858
18273TIP3    H276235   4.866   0.180   3.151 -0.9402 -1.3656 -0.4444
18274TIP3   OH276236   0.736   4.077  16.342 -0.0226 -0.6230 -0.4255
18274TIP3    H176237   0.826   4.068  16.372  0.2788 -0.3059 -1.2193
18274TIP3    H276238   0.741   4.140  16.270 -1.1416  0.9962  0.8121
18275TIP3   OH276239   0.590   0.975   0.526  0.1933  0.2451  0.2495
18275TIP3    H176240   0.613   0.954   0.436  1.3845 -1.7838  0.9402
18275TIP3    H276241   0.664   1.026   0.559 -0.0760  0.6770  0.1936
18276TIP3   OH276242   3.327   4.838   1.268  0.0634 -0.2853  0.1894
18276TIP3    H176243   3.268   4.783   1.319 -1.3826 -0.7087 -1.8573
18276TIP3    H276244   3.279   4.858   1.188  1.7779  1.3796 -0.5020
18277TIP3   OH276245   4.882   5.915   4.285  0.2037 -0.0350  0.0773
18277TIP3    H176246   4.866   6.003   4.251 -0.7571 -0.2173  0.0402
18277TIP3    H276247   4.973   5.897   4.262  0.1278  0.5843 -0.7380
18278TIP3   OH276248   4.354   4.423  12.774  0.4809 -0.5742 -0.2287
18278TIP3    H176249   4.360   4.348  12.715  2.0072 -0.2651 -0.5047
18278TIP3    H276250   4.402   4.396  12.852  0.0666 -0.2836  0.1333
18279TIP3   OH276251   1.767   0.530  16.965  0.7562  0.5850  0.6655
18279TIP3    H176252   1.835   0.536  16.898 -0.6013  0.9806 -0.7326
18279TIP3    H276253   1.688   0.561  16.922 -0.4919 -0.5869  1.9959
18280TIP3   OH276254   4.108   6.598   1.773  0.1274  0.3546  0.1250
18280TIP3    H176255   4.150   6.532   1.828 -2.4239 -3.1492 -1.7476
18280TIP3    H276256   4.177   6.628   1.714  1.1456 -1.6304  0.2270
18281TIP3   OH276257   5.615   2.155  15.502 -0.0085 -0.2497  0.4025
18281TIP3    H176258   5.649   2.107  15.578  1.0325  1.0286  0.7746
18281TIP3    H276259   5.659   2.240  15.506  0.6283 -0.3931 -2.0118
18282TIP3   OH276260   4.282   3.491  16.454  0.6596 -0.1625  0.6656
18282TIP3    H176261   4.255   3.414  16.504 -0.0508 -0.3780 -0.0225
18282TIP3    H276262   4.359   3.525  16.500  0.0414 -0.3672  1.8714
18283TIP3   OH276263   5.141   3.821   4.151 -0.6779  0.3453 -0.3884
18283TIP3    H176264   5.169   3.889   4.090 -1.5983  0.0800 -1.1284
18283TIP3    H276265   5.058   3.854   4.187 -1.7729 -0.8855 -1.6590
18284TIP3   OH276266   1.522   1.336  16.674  0.0004  0.5742  0.1028
18284TIP3    H176267   1.544   1.246  16.649  0.3257  0.2661  1.4333
18284TIP3    H276268   1.599   1.387  16.648  0.2313  0.3017  0.2392
18285TIP3   OH276269   6.280   3.097   2.364  0.1235  0.6001  0.9987
18285TIP3    H176270   6.238   3.178   2.395  0.8334  1.5355 -0.3767
18285TIP3    H276271   6.371   3.106   2.391  0.4317  0.7641 -0.0419
18286TIP3   OH276272   6.352   4.317   5.093  0.2236  0.3892 -0.4221
18286TIP3    H176273   6.350   4.244   5.031  0.3824 -0.2103  0.2606
18286TIP3    H276274   6.289   4.380   5.058  1.3110  0.6904 -1.9273
18287TIP3   OH276275   1.933   4.058   3.176  0.1536 -0.7419 -0.0776
18287TIP3    H176276   2.004   3.995   3.186  0.0897 -0.5111  2.8441
18287TIP3    H276277   1.976   4.139   3.148  0.8073 -1.0893 -0.0829
18288TIP3   OH276278   2.964   3.994  16.156 -0.4064  0.2470  0.4625
18288TIP3    H176279   2.928   3.967  16.073  0.9585 -2.8115  0.7320
18288TIP3    H276280   2.932   3.930  16.219  1.0997  0.6166  1.6806
18289TIP3   OH276281   2.409   6.747   0.158  0.1347  0.2997  0.1292
18289TIP3    H176282   2.325   6.716   0.123 -0.7379  0.3067  2.0726
18289TIP3    H276283   2.386   6.784   0.244  1.8820  1.8736 -0.0277
18290TIP3   OH276284   2.859   4.090  10.336  0.0776  0.6314  0.4998
18290TIP3    H176285   2.765   4.075  10.341  0.2239 -0.2378  0.8054
18290TIP3    H276286   2.867   4.182  10.310 -0.8804  0.2329 -1.4337
18291TIP3   OH276287   2.748   2.947   4.283  0.4577  0.6775  0.0660
18291TIP3    H176288   2.675   2.911   4.232  0.5017  0.4250  0.1780
18291TIP3    H276289   2.772   3.028   4.237  2.4256 -0.9856 -2.0768
18292TIP3   OH276290   1.164   3.461  15.162 -0.2124  0.6620  0.0106
18292TIP3    H176291   1.069   3.459  15.173 -0.2910  0.0307 -0.7553
18292TIP3    H276292   1.179   3.534  15.101 -0.3738 -0.4058 -1.3485
18293TIP3   OH276293   1.223   5.184   3.523  0.2271 -0.0982  0.1152
18293TIP3    H176294   1.155   5.129   3.562 -0.1606  0.2676 -0.0315
18293TIP3    H276295   1.263   5.129   3.456  0.6808 -0.6216  0.8033
18294TIP3   OH276296   1.231   6.079   3.393  0.6739 -0.1877 -0.2303
18294TIP3    H176297   1.262   6.153   3.446 -1.8641  2.0001 -1.5846
18294TIP3    H276298   1.192   6.019   3.457  2.1665 -0.0673  0.8370
18295TIP3   OH276299   3.032   1.561   3.636  0.1810 -0.3303 -0.0733
18295TIP3    H176300   3.007   1.653   3.634  2.0412  0.2440  0.6608
18295TIP3    H276301   3.044   1.542   3.729  0.3178 -1.1796 -0.2581
18296TIP3   OH276302   6.406   4.466  16.364 -0.7121  0.0270  0.2110
18296TIP3    H176303   6.489   4.469  16.412 -0.7329 -1.2332  0.3414
18296TIP3    H276304   6.433   4.467  16.272 -0.5803  0.1064  0.2491
18297TIP3   OH276305   1.988   5.412   0.203  0.4860  0.4315 -0.1907
18297TIP3    H176306   1.961   5.354   0.275  1.3060  1.3392  0.8844
18297TIP3    H276307   2.059   5.364   0.160  0.1267 -0.0282 -0.2892
18298TIP3   OH276308   6.781   3.365   1.814  0.2515 -0.0750 -0.0510
18298TIP3    H176309   6.724   3.349   1.889 -0.5966 -0.7245 -0.8096
18298TIP3    H276310   6.870   3.350   1.847  0.0738  1.7746  1.3597
18299TIP3   OH276311   0.544   0.465   4.697  0.5552 -0.5053  0.1758
18299TIP3    H176312   0.607   0.517   4.648 -0.0682 -0.1867 -0.2967
18299TIP3    H276313   0.529   0.387   4.644  1.5475 -1.2384  0.9193
18300TIP3   OH276314   2.076   2.561   1.282 -0.1935  0.0721 -0.2042
18300TIP3    H176315   2.170   2.571   1.295 -0.6558  2.3631  2.1441
18300TIP3    H276316   2.050   2.493   1.345 -0.1075 -0.8251 -1.1082
18301TIP3   OH276317   4.413   2.470   0.313 -0.3798 -0.4811  0.6944
18301TIP3    H176318   4.415   2.559   0.278  0.8792 -0.2969  1.1947
18301TIP3    H276319   4.399   2.415   0.236  0.3101  0.0551  0.1719
18302TIP3   OH276320   1.195   4.886   0.708 -0.0070  0.1700 -0.5030
18302TIP3    H176321   1.142   4.940   0.649  0.8864  0.7811 -0.7624
18302TIP3    H276322   1.281   4.882   0.666  0.4675  0.1089  0.4543
18303TIP3   OH276323   0.943   4.629   5.572  0.6896 -0.2198 -0.5178
18303TIP3    H176324   0.870   4.566   5.575  0.0127  0.5697  0.1398
18303TIP3    H276325   0.902   4.710   5.541  0.6306  1.0529  2.5741
18304TIP3   OH276326   0.037   4.695  14.431  0.7844 -0.1388  0.3421
18304TIP3    H176327   0.034   4.683  14.526 -0.7533  3.3291  0.9033
18304TIP3    H276328   0.118   4.744  14.416  0.7249 -0.1555 -0.0428
18305TIP3   OH276329   0.546   0.695  17.023  0.6821  0.0999 -0.0709
18305TIP3    H176330   0.521   0.603  17.015  1.0637 -0.2063  1.8952
18305TIP3    H276331   0.472   0.737  17.066  0.5234  0.7370 -0.9325
18306TIP3   OH276332   5.138   3.844   6.427 -0.1015  0.7439  0.0501
18306TIP3    H176333   5.172   3.895   6.500 -0.9537 -1.0039  1.7272
18306TIP3    H276334   5.215   3.823   6.374  0.7687  0.6319  1.3338
18307TIP3   OH276335   0.221   5.524  13.828  0.0998  0.4288  0.6547
18307TIP3    H176336   0.237   5.594  13.764 -1.8536 -0.6255 -1.1250
18307TIP3    H276337   0.307   5.481  13.837  0.7214  1.4109 -0.2735
18308TIP3   OH276338   1.030   4.044  13.283  0.0402 -0.0948  0.0177
18308TIP3    H176339   1.036   4.112  13.215 -0.9714 -2.2543 -2.3884
18308TIP3    H276340   1.121   4.022  13.304  0.3739  0.2150 -1.0666
18309TIP3   OH276341   3.856   5.045  12.632 -0.4883 -0.1290  0.4340
18309TIP3    H176342   3.911   5.118  12.661  0.2152 -0.6783  0.4985
18309TIP3    H276343   3.815   5.012  12.712 -0.4515 -0.0949  0.4664
18310TIP3   OH276344   2.471   6.167  12.304  0.0834 -0.4055 -0.1489
18310TIP3    H176345   2.497   6.103  12.371  0.6007 -1.2368 -1.1191
18310TIP3    H276346   2.407   6.223  12.349  0.2110 -1.1048  0.9641
18311TIP3   OH276347   2.454   5.905  16.697  0.2608 -0.0892 -0.2430
18311TIP3    H176348   2.437   5.979  16.639 -0.4369 -0.3347 -0.3627
18311TIP3    H276349   2.500   5.841  16.642 -1.0152 -0.6099 -0.7426
18312TIP3   OH276350   4.691   6.639  12.488 -0.2659 -0.0080  0.3215
18312TIP3    H176351   4.776   6.632  12.531 -0.9951 -1.6811  1.6182
18312TIP3    H276352   4.701   6.710  12.425  1.5522  0.9850  1.6627
18313TIP3   OH276353   0.198   2.738   2.871  0.2421  0.5630 -0.6360
18313TIP3    H176354   0.252   2.757   2.948 -0.3837  2.3711 -0.5907
18313TIP3    H276355   0.223   2.806   2.808  0.2991 -0.5218 -1.8236
18314TIP3   OH276356   5.870   0.263   0.597 -0.2590 -0.2267  0.2314
18314TIP3    H176357   5.916   0.308   0.667  0.0823  0.1628 -0.2333
18314TIP3    H276358   5.910   0.177   0.592  1.8250  0.7539 -1.4659
18315TIP3   OH276359   3.778   3.903  11.051  0.6254 -0.0217 -0.0249
18315TIP3    H176360   3.715   3.915  11.122 -1.5695 -1.1465 -1.6867
18315TIP3    H276361   3.858   3.873  11.095 -1.2132 -2.5954  1.9012
18316TIP3   OH276362   3.232   3.594   3.739  0.9144  0.0986  0.7433
18316TIP3    H176363   3.270   3.664   3.792 -1.3814  1.2251  0.9938
18316TIP3    H276364   3.195   3.638   3.662 -1.5402 -0.6133  1.4311
18317TIP3   OH276365   1.016   1.264  10.655 -0.2039 -0.1099 -0.1243
18317TIP3    H176366   1.013   1.358  10.635 -0.1345 -0.0162  0.3034
18317TIP3    H276367   1.043   1.223  10.572 -1.0101  0.1669 -0.5386
18318TIP3   OH276368   3.899   2.147   4.178 -0.1561  0.4230  0.1218
18318TIP3    H176369   3.992   2.160   4.159 -0.1557  2.3166  1.1328
18318TIP3    H276370   3.897   2.120   4.270 -0.6015  0.5162  0.1399
18319TIP3   OH276371   3.260   3.718  11.920 -0.9107 -0.1435 -0.3480
18319TIP3    H176372   3.252   3.634  11.965 -1.7278 -0.0952 -0.3915
18319TIP3    H276373   3.288   3.695  11.832 -0.3514 -0.3103 -0.1320
18320TIP3   OH276374   4.583   1.943   2.821  0.8441 -0.5452  0.2429
18320TIP3    H176375   4.646   1.946   2.893 -1.2480 -0.4073  2.1551
18320TIP3    H276376   4.534   2.025   2.828 -1.8603 -2.1014  1.0886
18321TIP3   OH276377   3.889   1.412   0.760  0.2298  0.2965 -0.0613
18321TIP3    H176378   3.932   1.471   0.699  1.8803 -1.3473 -0.5513
18321TIP3    H276379   3.942   1.416   0.840 -0.8811  1.0482  0.6828
18322TIP3   OH276380   0.609   3.381   4.324 -0.2122 -0.2378 -0.6197
18322TIP3    H176381   0.519   3.380   4.358  0.2000 -0.6790  0.4803
18322TIP3    H276382   0.636   3.473   4.331 -0.4584 -0.1608 -0.6530
18323TIP3   OH276383   0.679   6.552   0.202  0.0830  0.5898 -0.1866
18323TIP3    H176384   0.584   6.558   0.215  0.0498  0.5392 -0.3914
18323TIP3    H276385   0.689   6.544   0.107  0.1851 -1.2983 -0.0582
18324TIP3   OH276386   4.903   4.316   0.161 -0.3678  0.5020  0.2413
18324TIP3    H176387   4.840   4.328   0.232  0.5548 -1.7276  1.5624
18324TIP3    H276388   4.987   4.343   0.199  0.2076 -1.1431  0.2050
18325TIP3   OH276389   0.866   1.046   5.673  0.4579 -0.7369  0.5979
18325TIP3    H176390   0.830   1.105   5.739  1.9496  0.3139  0.5368
18325TIP3    H276391   0.794   1.029   5.613 -0.2534  0.2976  1.1338
18326TIP3   OH276392   6.403   0.866   2.055 -0.7986  0.2004 -0.0545
18326TIP3    H176393   6.374   0.916   1.979 -1.7980  0.4673  0.4784
18326TIP3    H276394   6.439   0.932   2.115 -0.9469  0.1211  0.1226
18327TIP3   OH276395   2.890   0.147  13.388 -0.3810  0.0995  0.1120
18327TIP3    H176396   2.873   0.239  13.407  0.2552  0.4626 -1.0256
18327TIP3    H276397   2.861   0.135  13.298  0.1292 -0.6626  0.0399
18328TIP3   OH276398   4.422   4.458   1.639 -0.1680 -0.0315  0.0939
18328TIP3    H176399   4.386   4.454   1.728 -1.2617 -1.6746 -0.3739
18328TIP3    H276400   4.362   4.517   1.592  0.1664  0.5052  0.3366
18329TIP3   OH276401   0.928   2.611  11.298  0.2768  0.6370 -0.5736
18329TIP3    H176402   0.961   2.579  11.214 -0.8914  0.8183 -1.1320
18329TIP3    H276403   0.834   2.592  11.295  0.1385  1.0913  0.4856
18330TIP3   OH276404   6.217   2.473   2.744 -0.6146  0.1295  0.0850
18330TIP3    H176405   6.285   2.540   2.734  1.4112 -1.5792  1.3591
18330TIP3    H276406   6.208   2.462   2.839 -0.8272 -1.4366 -0.0919
18331TIP3   OH276407   6.508   3.658  13.099  0.4523 -0.1436 -0.4255
18331TIP3    H176408   6.427   3.608  13.098  0.0885  0.3105  1.7341
18331TIP3    H276409   6.570   3.603  13.148  1.4064 -0.3696 -1.8241
18332TIP3   OH276410   1.735   0.802   5.708 -0.0716  0.7098 -0.2449
18332TIP3    H176411   1.806   0.776   5.768  0.9836  1.7898 -0.9839
18332TIP3    H276412   1.772   0.789   5.621 -0.9298  0.9520 -0.6489
18333TIP3   OH276413   2.590   2.786   5.050  0.1118  0.2023  0.5569
18333TIP3    H176414   2.524   2.775   4.982  0.5593  1.4477 -0.1275
18333TIP3    H276415   2.541   2.792   5.131 -0.5153 -0.2969  0.2185
18334TIP3   OH276416   4.690   2.703   0.463  0.0495 -0.2816 -0.3011
18334TIP3    H176417   4.641   2.624   0.486 -1.0575 -0.5511 -3.1406
18334TIP3    H276418   4.716   2.741   0.546 -1.4052 -2.3917  1.2057
18335TIP3   OH276419   6.686   4.594   2.676  0.6201  0.9191 -0.1123
18335TIP3    H176420   6.682   4.672   2.731 -2.9692  0.3172  0.7610
18335TIP3    H276421   6.608   4.599   2.621 -0.1433 -2.2948  0.4591
18336TIP3   OH276422   6.084   5.969   1.819 -0.3248 -0.4133 -0.5790
18336TIP3    H176423   6.063   5.906   1.888  0.4327  0.0847  0.1254
18336TIP3    H276424   6.029   5.943   1.745 -1.5276 -0.6385  0.3763
18337TIP3   OH276425   3.571   4.763   4.271 -0.5845  0.8276  0.8589
18337TIP3    H176426   3.596   4.781   4.362 -1.2945 -0.4083  1.3197
18337TIP3    H276427   3.544   4.672   4.271  2.1648 -0.1483 -1.1801
18338TIP3   OH276428   5.434   1.842  16.666  0.4077  0.9562  0.1057
18338TIP3    H176429   5.459   1.799  16.584 -1.9272 -0.0125 -0.1700
18338TIP3    H276430   5.384   1.919  16.638 -1.5808 -0.1072  0.5393
18339TIP3   OH276431   3.060   5.171   6.146  0.4192 -0.1399 -0.2105
18339TIP3    H176432   2.979   5.207   6.183  0.4474 -0.3658  0.0723
18339TIP3    H276433   3.085   5.234   6.078  1.1557  1.0709  1.1231
18340TIP3   OH276434   1.099   1.416  11.538 -0.7194  0.2647  0.0919
18340TIP3    H176435   1.059   1.369  11.611  0.8626  0.6033  1.2442
18340TIP3    H276436   1.175   1.460  11.577 -0.7905  1.8537 -1.4242
18341TIP3   OH276437   4.667   4.370   2.698 -0.1883 -0.5554  0.2182
18341TIP3    H176438   4.616   4.373   2.616 -0.3463 -0.6304  0.3133
18341TIP3    H276439   4.758   4.383   2.670 -0.0636 -2.0489 -0.1391
18342TIP3   OH276440   6.675   2.230   2.040  0.3834 -0.5125 -0.5689
18342TIP3    H176441   6.748   2.168   2.049 -0.0696 -1.3020 -1.9760
18342TIP3    H276442   6.655   2.256   2.129  1.3704 -1.4890 -0.0304
18343TIP3   OH276443   5.506   5.017   0.486 -0.0751  0.4091  0.1440
18343TIP3    H176444   5.547   4.942   0.529 -0.5473 -0.7343 -1.3180
18343TIP3    H276445   5.488   4.987   0.397 -0.1495  2.3188 -0.5349
18344TIP3   OH276446   0.873   6.648  16.617 -0.1573  0.1803  0.7111
18344TIP3    H176447   0.803   6.583  16.620  0.6718 -0.8045 -0.6798
18344TIP3    H276448   0.842   6.714  16.555 -0.1667  0.1387  0.6720
18345TIP3   OH276449   6.109   1.096  14.107  0.2660 -0.1531 -0.5864
18345TIP3    H176450   6.039   1.062  14.051  1.1715 -0.2906 -1.6512
18345TIP3    H276451   6.108   1.039  14.184 -1.0046  0.0507 -0.4273
18346TIP3   OH276452   1.713   4.134   3.324  0.2284 -0.5065  0.0625
18346TIP3    H176453   1.791   4.116   3.270  1.2059  0.1275  1.2048
18346TIP3    H276454   1.742   4.201   3.386 -1.6849  0.8757 -0.4502
18347TIP3   OH276455   4.457   0.050   1.397  0.2729 -0.9152  0.7814
18347TIP3    H176456   4.533   0.105   1.415  0.7453 -0.3455 -2.3778
18347TIP3    H276457   4.390   0.112   1.367 -0.3723 -1.7159  0.5370
18348TIP3   OH276458   1.289   3.693  13.124  0.1707  0.2187 -0.0655
18348TIP3    H176459   1.288   3.603  13.157 -0.8416  0.2701  0.0831
18348TIP3    H276460   1.289   3.683  13.029  2.1058  0.0738 -0.0818
18349TIP3   OH276461   6.285   4.079   4.458 -0.3226 -0.2718  1.0808
18349TIP3    H176462   6.240   4.136   4.520  0.8749  0.4914  1.2761
18349TIP3    H276463   6.324   4.139   4.395 -1.5802 -1.0345 -0.4912
18350TIP3   OH276464   5.249   1.982   0.568 -0.3278  0.0145  0.4169
18350TIP3    H176465   5.221   2.071   0.593  1.6638  0.3183  1.8332
18350TIP3    H276466   5.197   1.924   0.624 -2.2432  0.1873 -1.1011
18351TIP3   OH276467   0.027   2.532  16.564 -0.1284 -0.1298 -0.0859
18351TIP3    H176468   0.087   2.600  16.533 -0.2474 -0.1072 -0.2670
18351TIP3    H276469   0.064   2.451  16.529  0.2018 -0.1984  0.4139
18352TIP3   OH276470   0.729   3.694   3.592  0.3366 -0.4306  0.1780
18352TIP3    H176471   0.668   3.706   3.665  0.7971 -0.7895  0.6248
18352TIP3    H276472   0.810   3.663   3.633  0.1168 -2.1825 -0.6403
18353TIP3   OH276473   6.201   1.529  12.327  0.1176 -0.3385 -0.0950
18353TIP3    H176474   6.271   1.467  12.306  0.9003  0.6307 -0.3970
18353TIP3    H276475   6.129   1.503  12.270 -0.1497 -1.9561  0.9064
18354TIP3   OH276476   0.682   0.930   5.501  0.1510 -0.0471  0.4639
18354TIP3    H176477   0.644   0.882   5.428 -0.8544  0.8816  0.3483
18354TIP3    H276478   0.615   0.993   5.526  1.2288  0.9674  0.9312
18355TIP3   OH276479   4.477   4.146  10.615  0.6726  0.0820 -0.1040
18355TIP3    H176480   4.402   4.113  10.664  0.5509 -0.5849 -0.7307
18355TIP3    H276481   4.440   4.205  10.550  0.8284  0.9101  0.5405
18356TIP3   OH276482   3.762   5.850  16.103 -0.5087 -0.0469  0.1937
18356TIP3    H176483   3.841   5.896  16.130 -0.9072  0.1731  1.0155
18356TIP3    H276484   3.716   5.831  16.185  0.2221 -3.0084  0.0191
18357TIP3   OH276485   5.085   2.276  16.756  0.4687 -0.1767  0.1843
18357TIP3    H176486   5.147   2.293  16.827  0.6661 -0.7905  0.1700
18357TIP3    H276487   5.133   2.218  16.696  0.9076  1.6040 -1.3092
18358TIP3   OH276488   3.133   3.541  13.308 -0.3095 -0.0872  0.0202
18358TIP3    H176489   3.113   3.629  13.276 -1.6694 -0.3094  0.1895
18358TIP3    H276490   3.061   3.520  13.368  0.3242 -1.0681  0.4727
18359TIP3   OH276491   0.176   4.045  16.818  0.1747 -0.1214 -0.7032
18359TIP3    H176492   0.100   4.094  16.848  1.3654  2.0399 -0.9777
18359TIP3    H276493   0.233   4.111  16.778  0.6213 -2.1368 -3.8060
18360TIP3   OH276494   0.594   2.031   0.585  0.3794 -0.3796 -0.5456
18360TIP3    H176495   0.610   2.121   0.611 -0.9919 -0.5346  1.0494
18360TIP3    H276496   0.679   1.998   0.555  1.3793  0.7816  0.9181
18361TIP3   OH276497   5.104   5.317  15.275  0.1044 -0.7822 -0.0232
18361TIP3    H176498   5.045   5.392  15.275 -0.8663 -1.5137 -0.5617
18361TIP3    H276499   5.085   5.272  15.192  2.1742 -0.4709 -0.7206
18362TIP3   OH276500   1.084   3.413   0.451 -0.5938 -0.6409 -0.1885
18362TIP3    H176501   1.162   3.435   0.402 -0.3295 -2.3445 -0.6030
18362TIP3    H276502   1.014   3.463   0.410  0.3076  1.1697  0.4080
18363TIP3   OH276503   2.924   1.025  14.129 -0.3149  0.7558 -0.6594
18363TIP3    H176504   2.898   0.990  14.044 -1.0003  0.9538 -0.5386
18363TIP3    H276505   2.858   1.091  14.149  1.1512  2.4257 -1.0537
18364TIP3   OH276506   0.785   1.263  16.869 -0.2521 -0.2410  0.3473
18364TIP3    H176507   0.768   1.286  16.778 -1.6163 -3.3972 -0.3337
18364TIP3    H276508   0.702   1.282  16.914 -0.0262  0.0038  0.6735
18365TIP3   OH276509   0.614   2.780   3.325  0.1844 -0.2554  0.4693
18365TIP3    H176510   0.691   2.819   3.367  0.1990  1.6206 -1.1665
18365TIP3    H276511   0.541   2.836   3.351 -0.0583 -0.0217 -0.6559
18366TIP3   OH276512   2.413   3.660   0.293  0.4994 -0.5001  0.0211
18366TIP3    H176513   2.341   3.709   0.253  1.4711  3.0724  2.1655
18366TIP3    H276514   2.471   3.638   0.221 -1.2084 -0.6496 -1.3535
18367TIP3   OH276515   4.179   2.859   3.337 -0.0160 -0.4065  0.4013
18367TIP3    H176516   4.242   2.799   3.297 -1.4247 -2.1573  0.6887
18367TIP3    H276517   4.118   2.881   3.267 -0.2303 -0.3226  0.6097
18368TIP3   OH276518   0.125   5.097   4.352 -0.3574  0.2145 -0.0875
18368TIP3    H176519   0.048   5.081   4.298 -0.2997  1.1868 -0.4898
18368TIP3    H276520   0.153   5.186   4.327  0.8880 -0.1221  0.0490
18369TIP3   OH276521   3.277   1.470   1.308 -0.2713 -0.0253  0.1653
18369TIP3    H176522   3.279   1.520   1.227  1.7189  0.2829  0.3606
18369TIP3    H276523   3.186   1.478   1.339 -0.1445  3.3317  0.0916
18370TIP3   OH276524   5.412   0.594  11.729  0.2648  0.2135 -0.0242
18370TIP3    H176525   5.385   0.622  11.641  0.3889 -1.1480 -0.5209
18370TIP3    H276526   5.404   0.672  11.783  1.3476  1.4068 -1.5068
18371TIP3   OH276527   2.162   4.751  14.727  0.0115  0.5449  0.0505
18371TIP3    H176528   2.235   4.771  14.784  0.6105  0.3613 -0.6383
18371TIP3    H276529   2.201   4.707  14.651 -1.0282 -1.3715  0.5665
18372TIP3   OH276530   0.917   1.866   3.259 -0.2338  0.5431  0.5344
18372TIP3    H176531   0.848   1.850   3.324 -1.6050 -0.1794 -1.0471
18372TIP3    H276532   0.911   1.793   3.198  3.2671 -0.6483  1.3604
18373TIP3   OH276533   3.655   0.322  12.353  0.0457  0.1215  0.2870
18373TIP3    H176534   3.606   0.404  12.360  0.3679  0.3290  0.1395
18373TIP3    H276535   3.742   0.343  12.386  0.7295  0.3610 -1.5228
18374TIP3   OH276536   5.694   2.762   1.812 -0.4296  0.0961  0.0904
18374TIP3    H176537   5.625   2.827   1.800  0.9242  2.0155  1.9036
18374TIP3    H276538   5.760   2.784   1.746  0.9226  1.9772  1.9301
18375TIP3   OH276539   0.591   4.260  16.531  0.1348 -0.5987  0.1209
18375TIP3    H176540   0.671   4.312  16.541 -0.8563  1.1519 -0.5095
18375TIP3    H276541   0.614   4.193  16.467  0.7893  0.6320 -0.9934
18376TIP3   OH276542   3.527   5.110  15.385 -0.0516  0.7714  0.0099
18376TIP3    H176543   3.550   5.073  15.470 -0.5308 -1.1160 -0.6109
18376TIP3    H276544   3.477   5.040  15.342  0.6126  1.4675 -2.0188
18377TIP3   OH276545   2.046   3.019   1.701  0.0516  0.7723  0.0825
18377TIP3    H176546   2.086   3.044   1.784 -0.7210  0.6219  0.5138
18377TIP3    H276547   1.952   3.029   1.716 -0.0981  0.6833 -0.7561
18378TIP3   OH276548   1.024   0.481  11.399  0.1921 -0.5665  0.1536
18378TIP3    H176549   0.949   0.514  11.449 -0.0945 -1.1071  0.0890
18378TIP3    H276550   1.091   0.548  11.409 -0.0495 -0.4184  0.8259
18379TIP3   OH276551   4.000   6.090   0.391  0.4023  0.3189 -0.3493
18379TIP3    H176552   3.990   6.174   0.347 -0.0188  0.5948  0.2563
18379TIP3    H276553   4.035   6.031   0.324  0.7016  0.9731 -0.7784
18380TIP3   OH276554   4.651   0.029   3.959  0.2608  0.4567  0.6691
18380TIP3    H176555   4.686  -0.027   4.028 -0.7983  0.9621  1.6353
18380TIP3    H276556   4.577  -0.020   3.924  0.8287  0.1717 -0.1849
18381TIP3   OH276557   4.981   6.318   5.228  0.8906 -0.2388  0.0472
18381TIP3    H176558   4.981   6.253   5.158  0.2117 -1.3762  1.0602
18381TIP3    H276559   4.920   6.284   5.293  1.6139  0.7000  1.2751
18382TIP3   OH276560   0.582   2.272   5.219  0.4326  0.0596  0.6847
18382TIP3    H176561   0.580   2.278   5.123  2.7988 -3.1332  0.2759
18382TIP3    H276562   0.492   2.251   5.243  0.1307 -0.7878 -1.0292
18383TIP3   OH276563   3.542   2.768  12.971  0.0890  0.2240  0.6906
18383TIP3    H176564   3.452   2.799  12.961  0.2000  0.7376  1.2634
18383TIP3    H276565   3.596   2.842  12.945  0.3632 -0.4000 -0.6174
18384TIP3   OH276566   5.887   5.339   5.664  0.1759  0.3533 -0.2168
18384TIP3    H176567   5.823   5.408   5.683 -0.7475 -0.7174  0.7073
18384TIP3    H276568   5.972   5.384   5.667 -0.2830  1.2166  1.8290
18385TIP3   OH276569   5.458   4.576   5.293 -0.2399 -0.0373 -0.1060
18385TIP3    H176570   5.394   4.574   5.364 -0.7400 -0.9094 -0.5630
18385TIP3    H276571   5.525   4.637   5.323 -0.6683 -0.0507  0.9233
18386TIP3   OH276572   3.886   3.959   0.532 -0.3926  1.0367 -0.4398
18386TIP3    H176573   3.859   4.050   0.514  1.2579  1.4386 -1.0981
18386TIP3    H276574   3.932   3.964   0.615  0.3039  0.9455 -0.8118
18387TIP3   OH276575   4.277   1.875   2.436 -0.0441 -0.4079  0.3542
18387TIP3    H176576   4.183   1.877   2.451 -0.3129  1.6839 -1.2473
18387TIP3    H276577   4.290   1.805   2.372 -0.2765 -1.6505  1.6074
18388TIP3   OH276578   6.743   1.408  16.796 -0.0366  0.6944  0.1287
18388TIP3    H176579   6.684   1.395  16.722 -0.3094  0.4331  0.3894
18388TIP3    H276580   6.738   1.501  16.815  0.4560  0.8572 -0.5336
18389TIP3   OH276581   6.299   4.250   2.410  0.0859 -0.2078  0.4905
18389TIP3    H176582   6.333   4.165   2.439 -1.5995 -0.6476  1.2722
18389TIP3    H276583   6.338   4.313   2.471  0.0005 -0.6160  0.9732
18390TIP3   OH276584   1.472   6.752   1.873  0.2590  0.6802 -0.4495
18390TIP3    H176585   1.533   6.820   1.900 -0.1289  1.1774 -0.7855
18390TIP3    H276586   1.387   6.784   1.903  0.4210 -1.2163  2.3218
18391TIP3   OH276587   3.373   4.469  12.886 -0.1621  0.2761  0.1557
18391TIP3    H176588   3.362   4.564  12.882  1.6948  0.4964 -1.7609
18391TIP3    H276589   3.328   4.436  12.808  0.4439 -0.2468  0.0181
18392TIP3   OH276590   2.889   1.660   2.106  0.1900 -0.0067 -0.0662
18392TIP3    H176591   2.808   1.709   2.095  0.1579  0.2885  1.2469
18392TIP3    H276592   2.875   1.578   2.059 -1.3305 -0.4583  1.1096
18393TIP3   OH276593   3.277   2.883   0.954 -0.7280 -0.2332  0.1630
18393TIP3    H176594   3.304   2.910   0.866 -1.2394 -0.2469  0.0001
18393TIP3    H276595   3.182   2.890   0.953 -0.6816  3.9703  2.0016
18394TIP3   OH276596   5.385   0.458  10.554  0.1393 -0.1411  0.1709
18394TIP3    H176597   5.310   0.399  10.552 -0.0783  0.1326 -1.2484
18394TIP3    H276598   5.449   0.417  10.496 -0.0370  1.0141 -0.8755
18395TIP3   OH276599   6.110   4.183  16.939  0.0346  0.3598  0.0358
18395TIP3    H176600   6.025   4.212  16.970 -0.0244 -0.4915  0.7046
18395TIP3    H276601   6.129   4.104  16.990  0.8405  0.0602 -0.6930
18396TIP3   OH276602   3.925   0.984  11.568  0.5713 -0.0909  0.2478
18396TIP3    H176603   3.977   0.906  11.584  2.1631  0.8575 -0.0883
18396TIP3    H276604   3.865   0.959  11.497  2.1564 -0.5737 -0.9937
18397TIP3   OH276605   6.201   3.533   5.460  0.2482 -0.2685  0.4000
18397TIP3    H176606   6.188   3.473   5.386  0.1289  0.3798 -0.1099
18397TIP3    H276607   6.157   3.614   5.434  2.2875  0.8168  0.1129
18398TIP3   OH276608   2.093   1.319   2.680 -0.0252  0.4150 -0.6092
18398TIP3    H176609   2.043   1.239   2.701 -0.7343  0.2846 -2.6215
18398TIP3    H276610   2.090   1.370   2.761 -1.4986 -0.6061  0.0337
18399TIP3   OH276611   4.913   3.086  16.417 -0.0215 -0.3132 -0.0724
18399TIP3    H176612   4.980   3.096  16.350  0.0241  0.7527  0.1209
18399TIP3    H276613   4.830   3.082  16.368 -0.0066  0.6814 -0.1853
18400TIP3   OH276614   4.699   5.108  16.937  0.4598 -0.3473 -0.1364
18400TIP3    H176615   4.611   5.127  16.904  0.4100  0.2851  0.3482
18400TIP3    H276616   4.727   5.189  16.979  1.5180 -0.3514 -0.8120
18401TIP3   OH276617   1.491   2.646   3.361 -0.2813 -0.5159 -0.4660
18401TIP3    H176618   1.562   2.711   3.363 -0.2372 -0.5379 -1.0204
18401TIP3    H276619   1.529   2.568   3.400  0.2108 -0.7259 -1.3371
18402TIP3   OH276620   3.769   0.892   5.277 -0.4076 -0.0008  0.4534
18402TIP3    H176621   3.684   0.851   5.260  0.1761 -1.6450  1.3061
18402TIP3    H276622   3.805   0.908   5.189 -1.5156  0.5971  0.0869
18403TIP3   OH276623   4.984   2.285   2.048  0.1076  0.2330 -0.6522
18403TIP3    H176624   5.017   2.202   2.083 -0.1989  0.1280 -0.6097
18403TIP3    H276625   5.010   2.350   2.113 -2.4942 -0.2651  1.0327
18404TIP3   OH276626   4.347   5.537   4.640 -0.1976 -0.5060 -0.4725
18404TIP3    H176627   4.337   5.577   4.726  1.2546 -0.8509 -0.1070
18404TIP3    H276628   4.305   5.599   4.580 -1.2833 -0.2897  0.4701
18405TIP3   OH276629   5.706   1.799   4.924  0.6047 -0.6015 -0.1984
18405TIP3    H176630   5.633   1.861   4.924 -1.0979 -2.4683  1.0669
18405TIP3    H276631   5.783   1.851   4.900 -1.0109  1.5952 -0.8492
18406TIP3   OH276632   2.354   6.336  15.579 -0.1846 -0.2136 -0.0074
18406TIP3    H176633   2.410   6.265  15.546 -1.9080 -1.2288 -0.9318
18406TIP3    H276634   2.318   6.301  15.661  2.3077  1.4085  1.9542
18407TIP3   OH276635   5.502   6.561   3.865  0.0232 -0.5814 -0.2590
18407TIP3    H176636   5.428   6.505   3.840  0.5501 -0.7782 -1.4548
18407TIP3    H276637   5.553   6.508   3.926  0.5922 -1.5059 -1.4899
18408TIP3   OH276638   0.080   5.120  13.187 -0.1730 -0.1935 -0.4548
18408TIP3    H176639   0.128   5.202  13.180 -0.3546 -0.1823 -2.1464
18408TIP3    H276640  -0.008   5.146  13.215 -0.5261  0.3584 -1.9385
18409TIP3   OH276641   0.590   1.258  13.811 -0.0185  0.2945  0.0527
18409TIP3    H176642   0.673   1.299  13.837 -0.3516  1.1952 -0.2626
18409TIP3    H276643   0.534   1.332  13.787 -1.3862 -0.1936  1.5853
18410TIP3   OH276644   2.971   6.755  11.171 -0.4641  0.2962  0.5176
18410TIP3    H176645   3.014   6.722  11.093  0.0709  1.6829  0.1835
18410TIP3    H276646   2.987   6.689  11.238  2.0046  0.6240  0.3413
18411TIP3   OH276647   0.432   1.457   2.099  0.0759 -0.3139  0.2062
18411TIP3    H176648   0.482   1.530   2.063 -0.7508 -1.1205 -2.8735
18411TIP3    H276649   0.485   1.380   2.079 -1.0607 -0.9157 -0.6078
18412TIP3   OH276650   5.499   3.711  13.063  0.3289 -0.0946 -0.0602
18412TIP3    H176651   5.536   3.766  12.994  0.8985  0.0989  0.3882
18412TIP3    H276652   5.535   3.747  13.144  0.8568 -1.2353  0.2313
18413TIP3   OH276653   3.191   5.368   5.489 -0.1557 -0.4999  0.2192
18413TIP3    H176654   3.121   5.401   5.545 -0.8035 -0.7548 -0.4228
18413TIP3    H276655   3.272   5.393   5.533 -0.6270  1.5676 -0.0260
18414TIP3   OH276656   2.780   4.877   5.642 -0.2893 -0.1924 -0.3468
18414TIP3    H176657   2.762   4.816   5.713  0.9286  0.6080  0.6917
18414TIP3    H276658   2.693   4.900   5.609 -0.8253 -1.4953  0.0702
18415TIP3   OH276659   6.581   3.284  14.672 -0.0505 -0.1344  0.3258
18415TIP3    H176660   6.557   3.198  14.637 -0.4742 -0.0661  0.4399
18415TIP3    H276661   6.524   3.295  14.749  0.8159 -0.2547  0.9945
18416TIP3   OH276662   0.741   5.864  11.882  0.0061  0.0442 -0.5916
18416TIP3    H176663   0.781   5.792  11.931 -2.6571 -1.0381  0.1687
18416TIP3    H276664   0.782   5.860  11.796  1.6580 -0.8112  0.1756
18417TIP3   OH276665   6.745   2.235   1.393 -0.1907  0.1344 -0.0366
18417TIP3    H176666   6.736   2.245   1.298  0.3208  0.2141 -0.0795
18417TIP3    H276667   6.684   2.165   1.416  0.1612 -0.3373 -0.5243
18418TIP3   OH276668   0.496   0.048   0.283 -0.5231 -0.1671  0.2214
18418TIP3    H176669   0.465   0.124   0.232 -1.6380 -1.2501 -0.7914
18418TIP3    H276670   0.582   0.028   0.245 -1.2007 -0.7627 -1.0869
18419TIP3   OH276671   0.306   3.217  14.142 -0.1830 -0.2080 -0.0865
18419TIP3    H176672   0.362   3.191  14.070  1.3845  0.0294  0.9992
18419TIP3    H276673   0.305   3.141  14.200  1.6518  0.8309  1.4300
18420TIP3   OH276674   1.041   2.519   0.090  0.5948 -0.2353  0.5825
18420TIP3    H176675   0.984   2.443   0.101  1.0168 -0.8142 -1.0131
18420TIP3    H276676   1.122   2.494   0.135 -0.1304  0.3327  2.2916
18421TIP3   OH276677   0.840   2.411  14.564  0.5777 -0.0145  0.0987
18421TIP3    H176678   0.761   2.462  14.549  0.7326  0.3311  0.4447
18421TIP3    H276679   0.904   2.445  14.501 -0.0200 -1.3889 -1.3141
18422TIP3   OH276680   4.085   4.241   2.581  0.1995 -0.2752 -0.1374
18422TIP3    H176681   4.126   4.297   2.645 -0.7763  1.8992 -1.3003
18422TIP3    H276682   4.084   4.292   2.500  2.1408 -3.1811 -2.2124
18423TIP3   OH276683   3.718   3.270   1.392 -0.5714 -0.4398  0.4499
18423TIP3    H176684   3.632   3.232   1.374 -0.5962 -0.0228 -0.3349
18423TIP3    H276685   3.775   3.194   1.408 -1.0041 -0.7327  0.6114
18424TIP3   OH276686   4.328   4.791   2.275  0.3329 -0.2451  0.0309
18424TIP3    H176687   4.235   4.773   2.283  0.2042  0.8421  1.0971
18424TIP3    H276688   4.355   4.743   2.196 -1.3130  0.2221 -0.8467
18425TIP3   OH276689   6.560   1.331  11.921 -0.0269  0.2336  0.0084
18425TIP3    H176690   6.507   1.254  11.901  0.7428 -0.5217  0.8337
18425TIP3    H276691   6.586   1.365  11.835 -1.5007  0.4005 -0.4089
18426TIP3   OH276692   1.549   2.465   2.406 -0.4228 -0.0487  0.1879
18426TIP3    H176693   1.557   2.401   2.476 -0.4254  0.1691  0.3880
18426TIP3    H276694   1.470   2.515   2.428 -1.7729 -1.4460 -1.1542
18427TIP3   OH276695   4.681   0.084   5.372 -0.5335  0.6365 -0.8065
18427TIP3    H176696   4.692   0.002   5.420 -1.7554  0.4174 -0.8582
18427TIP3    H276697   4.706   0.064   5.282 -0.3449  0.4543 -0.7126
18428TIP3   OH276698   5.161   2.678  13.020  0.0121 -0.1701 -0.0535
18428TIP3    H176699   5.149   2.583  13.027 -0.2819 -0.1224  0.1151
18428TIP3    H276700   5.073   2.711  13.000 -0.1730  0.1988  1.2994
18429TIP3   OH276701   0.010   0.563  15.531 -0.0038 -0.1479 -0.7439
18429TIP3    H176702   0.061   0.520  15.600  2.0470  2.1931 -0.6265
18429TIP3    H276703  -0.017   0.647  15.570 -0.6931  0.2701 -2.0680
18430TIP3   OH276704   1.210   0.887   1.762 -0.9037  0.4518 -0.4933
18430TIP3    H176705   1.129   0.843   1.736  0.2132 -3.4098  1.7653
18430TIP3    H276706   1.192   0.922   1.849 -0.3591  0.1121 -0.2364
18431TIP3   OH276707   0.044   6.342   4.031  0.5732  0.2219 -0.2650
18431TIP3    H176708   0.066   6.402   3.960  1.3225  0.1291 -0.1197
18431TIP3    H276709  -0.007   6.273   3.990 -1.0036  1.3570 -0.3053
18432TIP3   OH276710   4.998   2.375  15.884  0.0831  0.0838 -0.0631
18432TIP3    H176711   5.042   2.308  15.937  1.8203  0.2638 -1.2069
18432TIP3    H276712   5.026   2.356  15.794 -2.3262  0.1322 -0.9095
18433TIP3   OH276713   2.315   6.254  11.908 -0.6296  0.0898  0.2630
18433TIP3    H176714   2.327   6.181  11.968  1.2566 -0.3705 -0.5798
18433TIP3    H276715   2.221   6.270  11.906 -0.9821 -1.7172  1.1549
18434TIP3   OH276716   1.939   5.105   4.475 -0.1069 -0.4929  0.5317
18434TIP3    H176717   1.880   5.099   4.400  0.6591 -1.1702 -0.0396
18434TIP3    H276718   2.027   5.104   4.436  0.3052  1.1769  1.3110
18435TIP3   OH276719   5.078   3.492   5.183  0.1664  0.1603 -0.1785
18435TIP3    H176720   5.072   3.582   5.216  1.3673 -0.4484  1.9530
18435TIP3    H276721   5.109   3.441   5.259 -0.0070 -1.9720 -1.4508
18436TIP3   OH276722   2.738   0.923   5.487 -0.0353 -0.3245 -0.3841
18436TIP3    H176723   2.652   0.938   5.527 -0.4148  0.7780 -1.5663
18436TIP3    H276724   2.719   0.870   5.410  0.6072 -1.7958  0.4364
18437TIP3   OH276725   6.080   2.168   3.453 -0.4441 -0.4424  0.2404
18437TIP3    H176726   6.046   2.256   3.471 -0.9680 -0.5894 -0.0327
18437TIP3    H276727   6.161   2.183   3.405  0.5813 -0.0508  1.9829
18438TIP3   OH276728   4.111   0.547   5.779  0.1883 -0.1277 -0.1615
18438TIP3    H176729   4.126   0.497   5.699 -0.9916 -0.5472 -0.1434
18438TIP3    H276730   4.192   0.595   5.793  0.5058 -0.2529 -1.4572
18439TIP3   OH276731   2.410   0.449   1.395  0.0778 -0.0339  0.3090
18439TIP3    H176732   2.430   0.380   1.332  1.4342  0.9746 -0.4276
18439TIP3    H276733   2.411   0.529   1.343  0.9436  0.7946  1.5653
18440TIP3   OH276734   1.599   6.241  11.404 -0.1997 -0.5190 -0.2365
18440TIP3    H176735   1.517   6.290  11.409 -0.0683 -0.4081  1.3603
18440TIP3    H276736   1.572   6.150  11.399 -0.4280 -0.4287 -0.6733
18441TIP3   OH276737   3.177   5.152   5.878  0.0662 -0.4634 -0.2874
18441TIP3    H176738   3.112   5.089   5.908 -1.7135  2.4036  2.5249
18441TIP3    H276739   3.261   5.119   5.911 -0.3703 -2.5917 -1.1915
18442TIP3   OH276740   0.090   3.890  12.373 -0.5732  0.2651 -0.3085
18442TIP3    H176741   0.085   3.953  12.301 -0.9637  0.2103 -0.3313
18442TIP3    H276742   0.013   3.908  12.427 -0.0975  0.5347  0.2959
18443TIP3   OH276743   2.713   4.640   5.139 -0.1334 -1.2149 -0.2367
18443TIP3    H176744   2.731   4.650   5.232 -2.1195  1.0786 -0.0219
18443TIP3    H276745   2.781   4.693   5.096  0.3799 -1.7419 -0.0990
18444TIP3   OH276746   2.752   3.912   1.813 -0.2932 -0.5017  0.5271
18444TIP3    H176747   2.696   3.968   1.868 -0.3327  1.6121 -1.5188
18444TIP3    H276748   2.691   3.867   1.755 -0.0704 -0.3035  0.1339
18445TIP3   OH276749   3.010   4.134  15.063 -0.5872 -0.1668  0.6693
18445TIP3    H176750   3.057   4.067  15.112 -1.1864 -0.3122  1.0643
18445TIP3    H276751   3.062   4.213  15.073 -1.3161  0.1138  2.5979
18446TIP3   OH276752   4.814   0.187   3.832  0.3028 -0.7120  0.0015
18446TIP3    H176753   4.774   0.124   3.892 -0.3203 -0.8839 -0.5866
18446TIP3    H276754   4.785   0.272   3.865 -0.0973 -0.8094 -0.0845
18447TIP3   OH276755   5.765   5.770   3.407 -0.7709  0.2760  0.1473
18447TIP3    H176756   5.758   5.731   3.494  1.0720  1.6462  0.9602
18447TIP3    H276757   5.856   5.758   3.382 -1.4306 -0.8518 -2.0324
18448TIP3   OH276758   2.712   4.077   5.541 -0.5984  0.2416  0.5966
18448TIP3    H176759   2.667   4.103   5.621  0.1480  0.2746  1.0205
18448TIP3    H276760   2.738   4.159   5.500  0.5731  0.2212  1.2443
18449TIP3   OH276761   4.430   6.302  14.826  0.0824  0.0804  0.0497
18449TIP3    H176762   4.444   6.209  14.807  0.4055  0.0350  0.4897
18449TIP3    H276763   4.419   6.343  14.740 -2.6673 -0.7417 -0.0844
18450TIP3   OH276764   4.480   2.673   1.101  0.5679  0.0074  0.1950
18450TIP3    H176765   4.550   2.634   1.048  0.2535 -1.3667  0.7496
18450TIP3    H276766   4.470   2.613   1.174  0.1649  1.2456  1.1849
18451TIP3   OH276767   2.706   6.665   5.785 -0.3193 -0.3239 -0.3005
18451TIP3    H176768   2.668   6.578   5.796  1.8102 -1.1953  0.9513
18451TIP3    H276769   2.742   6.665   5.697 -0.4381 -0.6615 -0.3497
18452TIP3   OH276770   1.070   4.799  16.876 -0.0765 -0.4724 -0.2722
18452TIP3    H176771   1.061   4.890  16.851  1.9080 -0.3172 -0.6030
18452TIP3    H276772   1.048   4.749  16.797  1.2319 -0.1614 -0.8601
18453TIP3   OH276773   4.775   4.942  14.057 -0.1792  0.0837 -0.5839
18453TIP3    H176774   4.859   4.898  14.070 -1.3117 -1.7883  0.8595
18453TIP3    H276775   4.730   4.890  13.991 -1.4254 -0.8744  0.9452
18454TIP3   OH276776   2.666   4.369   3.647  0.0333  0.3273  1.0126
18454TIP3    H176777   2.749   4.417   3.644  0.3250 -0.2014  0.1311
18454TIP3    H276778   2.626   4.386   3.562  0.5704 -1.6936  0.2929
18455TIP3   OH276779   5.543   5.208  12.013 -0.2205  0.2745 -0.2307
18455TIP3    H176780   5.497   5.172  12.088  1.3581  0.3370  0.8280
18455TIP3    H276781   5.565   5.132  11.959 -0.8204  0.1650 -0.3285
18456TIP3   OH276782   2.630   4.177  12.640  0.0481  1.1846 -0.2433
18456TIP3    H176783   2.672   4.259  12.615  1.1090  0.3371 -1.3635
18456TIP3    H276784   2.545   4.179  12.596 -0.2097  1.9678  0.2813
18457TIP3   OH276785   1.337   2.147   6.007 -0.0336  0.2871  0.0640
18457TIP3    H176786   1.358   2.060   6.042 -0.2540  0.3013  0.2305
18457TIP3    H276787   1.359   2.141   5.914  1.8180  0.6473  0.4401
18458TIP3   OH276788   2.346   6.041  12.070  0.1427 -0.2660  0.2300
18458TIP3    H176789   2.382   6.043  12.159  0.0052 -0.9752  0.3081
18458TIP3    H276790   2.404   5.982  12.022  0.6756  0.7269 -0.3631
18459TIP3   OH276791   0.308   0.812   5.368 -0.5013  0.6553  0.2761
18459TIP3    H176792   0.399   0.785   5.375 -0.5815  0.5139  0.8380
18459TIP3    H276793   0.259   0.742   5.411 -0.9340  0.4023 -0.5996
18460TIP3   OH276794   2.439   4.042  11.826  0.9452  0.5128 -0.5947
18460TIP3    H176795   2.512   3.987  11.853  1.1183  0.3062 -1.4524
18460TIP3    H276796   2.410   4.084  11.906  1.9808  0.5653 -0.2325
18461TIP3   OH276797   2.517   2.694   2.988  0.0440 -0.0581  0.0220
18461TIP3    H176798   2.581   2.623   2.989 -0.4305 -0.4836  0.3932
18461TIP3    H276799   2.458   2.673   2.916 -1.6853 -1.4888  1.7586
18462TIP3   OH276800   3.708   6.204   4.468 -0.5342  0.2609 -0.7771
18462TIP3    H176801   3.671   6.256   4.539 -1.8262 -1.4472 -0.1337
18462TIP3    H276802   3.659   6.230   4.390 -1.1646  0.0074 -0.4653
18463TIP3   OH276803   6.270   6.148  15.976 -0.0264  0.0079 -0.0382
18463TIP3    H176804   6.252   6.104  16.059 -3.5233 -0.7736 -1.0333
18463TIP3    H276805   6.263   6.242  15.997 -2.0294 -0.1936  0.4267
18464TIP3   OH276806   5.603   2.342  13.347 -0.1343 -0.0084 -0.2756
18464TIP3    H176807   5.664   2.387  13.406 -0.0608  0.7605 -0.9181
18464TIP3    H276808   5.517   2.376  13.371 -0.2941 -0.9478  0.5007
18465TIP3   OH276809   1.281   0.674   6.005 -0.2248 -0.0407  0.0808
18465TIP3    H176810   1.346   0.638   5.944  0.7102  1.5180  0.1053
18465TIP3    H276811   1.310   0.642   6.091  0.4651  0.5480  0.0788
18466TIP3   OH276812   5.992   4.683  13.940  0.1333 -0.1096  0.2519
18466TIP3    H176813   6.010   4.612  13.879 -1.5249  0.1979 -0.6704
18466TIP3    H276814   5.899   4.703  13.926 -0.0553  0.5756  2.2586
18467TIP3   OH276815   1.157   0.290  13.294  0.4960  0.3534 -0.4067
18467TIP3    H176816   1.106   0.285  13.213 -0.8154  1.1378  0.3345
18467TIP3    H276817   1.198   0.204  13.301 -0.8608 -0.3877 -0.9757
18468TIP3   OH276818   5.790   5.725   4.117  0.2884 -0.3143  0.0500
18468TIP3    H176819   5.867   5.720   4.173 -0.3986 -0.2702  1.0395
18468TIP3    H276820   5.764   5.633   4.104 -0.0791 -0.2937  0.5853
18469TIP3   OH276821   2.273   0.852   3.514 -0.2509 -0.0496 -0.0979
18469TIP3    H176822   2.314   0.807   3.587 -0.0225  1.1907  0.5695
18469TIP3    H276823   2.264   0.785   3.446  1.3859 -0.7483  0.3252
18470TIP3   OH276824   6.703   2.481  13.347 -0.2179  0.2810 -0.0215
18470TIP3    H176825   6.654   2.399  13.334 -0.4932  0.4718 -0.1977
18470TIP3    H276826   6.640   2.540  13.387 -0.1089  0.5022 -0.1744
18471TIP3   OH276827   2.268   2.481  16.235  0.3026 -0.1047  0.0603
18471TIP3    H176828   2.333   2.422  16.273  0.6804  0.9272  1.0391
18471TIP3    H276829   2.184   2.449  16.269  0.4411 -0.4312  0.1034
18472TIP3   OH276830   1.313   5.595  14.642  0.0273 -0.0735 -0.3024
18472TIP3    H176831   1.260   5.673  14.625  0.4666  0.3835  0.3730
18472TIP3    H276832   1.329   5.557  14.556  0.3191  0.9212 -0.6987
18473TIP3   OH276833   5.330   1.406  15.683  0.9083  0.0827 -0.0319
18473TIP3    H176834   5.355   1.315  15.697 -2.0874 -0.6614  1.1812
18473TIP3    H276835   5.385   1.455  15.745 -0.3147 -1.4215  2.4322
18474TIP3   OH276836   5.238   5.697  10.377  0.1441  0.0623  0.9016
18474TIP3    H176837   5.183   5.623  10.350 -0.9469  1.6236 -1.4994
18474TIP3    H276838   5.176   5.762  10.410  0.9796  0.3852  1.8924
18475TIP3   OH276839   1.755   0.397  15.123 -0.2615  0.0811  0.1706
18475TIP3    H176840   1.811   0.320  15.114 -1.3025 -0.9381  1.7416
18475TIP3    H276841   1.758   0.440  15.038  3.2359  0.3666  0.3036
18476TIP3   OH276842   4.894   6.201   5.481  0.2954 -0.3004  0.2206
18476TIP3    H176843   4.878   6.113   5.447  0.1251 -0.1124 -0.1907
18476TIP3    H276844   4.827   6.213   5.548  0.0184 -0.3003 -0.0578
18477TIP3   OH276845   0.908   5.992   1.953  0.0998 -0.2621  0.1425
18477TIP3    H176846   0.881   5.912   1.998  0.8699 -0.9474 -0.5894
18477TIP3    H276847   0.973   5.963   1.889  1.0639  1.0696  0.4859
18478TIP3   OH276848   6.424   2.096   2.468 -0.3250  0.1793  0.5306
18478TIP3    H176849   6.468   2.027   2.516  0.9371 -0.0389 -0.8437
18478TIP3    H276850   6.378   2.147   2.534  1.4417 -0.0147  1.9869
18479TIP3   OH276851   5.402   6.514   3.311 -0.1454 -0.0467 -0.5879
18479TIP3    H176852   5.450   6.470   3.241  1.1644 -1.7896  1.2791
18479TIP3    H276853   5.436   6.604   3.310  1.0384 -0.4756 -1.1533
18480TIP3   OH276854   1.502   3.232  12.755 -0.0614 -0.3954 -0.0096
18480TIP3    H176855   1.542   3.204  12.673  3.0336  0.0358  1.2217
18480TIP3    H276856   1.564   3.205  12.823 -1.1493  1.6905  1.9551
18481TIP3   OH276857   1.943   3.241   3.608  0.8622 -0.3877 -0.0090
18481TIP3    H176858   1.896   3.307   3.659 -0.0365 -0.5626 -0.5808
18481TIP3    H276859   2.025   3.227   3.656 -0.5442 -1.6010  2.1598
18482TIP3   OH276860   6.416   5.005  13.991 -0.7159 -0.1093 -0.5285
18482TIP3    H176861   6.466   5.086  13.977 -0.3264 -0.1421  0.5335
18482TIP3    H276862   6.427   4.955  13.910  0.4469  0.1822 -0.5713
18483TIP3   OH276863   3.124   1.314   0.931  0.4174 -0.2333 -0.0293
18483TIP3    H176864   3.081   1.363   0.862 -1.0022  1.0150  1.6373
18483TIP3    H276865   3.204   1.362   0.949  0.7669 -0.5357 -0.7327
18484TIP3   OH276866   2.004   0.449  16.813 -0.1219 -0.6961  0.1653
18484TIP3    H176867   2.062   0.447  16.890  2.7726  0.3484 -1.8242
18484TIP3    H276868   2.016   0.364  16.772 -0.8697 -0.8709  0.2973
18485TIP3   OH276869   1.072   1.429  16.463  0.0248 -0.5803  0.0776
18485TIP3    H176870   1.153   1.445  16.511  0.3082 -1.2129 -0.1808
18485TIP3    H276871   1.101   1.395  16.378 -0.5345 -2.3813  0.5627
18486TIP3   OH276872   5.382   3.851   1.969  0.0516  0.1892 -0.2662
18486TIP3    H176873   5.403   3.833   2.060 -0.0456  0.8040 -0.1191
18486TIP3    H276874   5.466   3.863   1.926  0.0709  0.7043 -0.0867
18487TIP3   OH276875   4.445   5.208  13.610 -0.1604  0.3430  0.5217
18487TIP3    H176876   4.427   5.301  13.626  1.2655  0.4260  1.8898
18487TIP3    H276877   4.373   5.179  13.554 -0.4585  2.3398 -0.2083
18488TIP3   OH276878   5.458   2.354   6.034 -0.5716  0.4337 -0.4432
18488TIP3    H176879   5.439   2.267   6.068  1.4140 -0.4139 -1.2760
18488TIP3    H276880   5.417   2.356   5.947 -2.1009  1.0334  0.2564
18489TIP3   OH276881   0.685   6.525  17.144  0.2414  0.4719 -0.3032
18489TIP3    H176882   0.620   6.468  17.104  0.4005 -0.7788  1.1366
18489TIP3    H276883   0.666   6.612  17.109 -2.0399  0.1015 -0.1169
18490TIP3   OH276884   4.059   6.306   3.728  0.3535 -0.4539 -0.1500
18490TIP3    H176885   3.984   6.249   3.748 -0.1080 -0.3506 -1.4913
18490TIP3    H276886   4.034   6.351   3.647  1.3054  0.6121  0.1179
18491TIP3   OH276887   1.071   3.106  16.296 -0.2387 -0.7085 -0.0375
18491TIP3    H176888   1.003   3.038  16.297  1.1593 -2.1795  0.5707
18491TIP3    H276889   1.139   3.070  16.238  0.6787  0.0122  0.5662
18492TIP3   OH276890   6.160   3.595  13.385 -0.2779  0.1356  0.0871
18492TIP3    H176891   6.193   3.510  13.358 -0.4132 -0.1295  0.7475
18492TIP3    H276892   6.117   3.630  13.306  0.5763  0.0043 -0.4560
18493TIP3   OH276893   0.600   1.235   2.007  0.5430 -0.1221  0.4488
18493TIP3    H176894   0.616   1.142   1.991 -0.6489 -0.1205 -1.0155
18493TIP3    H276895   0.679   1.279   1.975 -0.2633 -0.4281 -2.2106
18494TIP3   OH276896   6.757   5.588  13.934  0.3811  0.0664  0.3276
18494TIP3    H176897   6.711   5.509  13.905 -0.3294  0.5854 -0.0049
18494TIP3    H276898   6.842   5.584  13.890 -0.1086  0.0769 -0.6448
18495TIP3   OH276899   4.503   6.168  10.788  0.1106 -0.6626 -0.4525
18495TIP3    H176900   4.439   6.173  10.717 -1.0602 -1.0117  0.5390
18495TIP3    H276901   4.561   6.096  10.763 -0.1667 -0.6642 -1.1274
18496TIP3   OH276902   3.899   4.346   3.512  0.1141  0.1254  0.1272
18496TIP3    H176903   3.979   4.398   3.505 -0.5962  1.3003  0.2945
18496TIP3    H276904   3.829   4.412   3.513 -1.0442 -0.9480 -2.6976
18497TIP3   OH276905   3.881   3.556  13.890  0.2657 -0.3166 -0.7737
18497TIP3    H176906   3.833   3.542  13.971 -0.8054  1.0040 -1.1468
18497TIP3    H276907   3.832   3.506  13.824 -1.0254  1.4711 -1.2638
18498TIP3   OH276908   1.930   2.495   2.523 -0.6942 -0.1445  0.4190
18498TIP3    H176909   1.901   2.571   2.573 -0.4797  0.1771  0.0676
18498TIP3    H276910   2.015   2.473   2.560 -0.6613 -0.0802  0.3822
18499TIP3   OH276911   5.979   0.010   0.626 -0.0094  0.0634 -0.5059
18499TIP3    H176912   6.067  -0.005   0.591 -0.1338 -1.5753 -0.2041
18499TIP3    H276913   5.926  -0.059   0.585 -0.8046  0.0284  0.5643
18500TIP3   OH276914   3.556   0.007  11.523  0.2265  0.0535  0.1890
18500TIP3    H176915   3.621  -0.058  11.550 -0.9904 -1.2383  0.1323
18500TIP3    H276916   3.587   0.038  11.439  1.1986  0.0808  0.5419
18501TIP3   OH276917   3.098   2.030  17.078 -0.3693 -0.1346 -0.1793
18501TIP3    H176918   3.078   1.991  16.993 -1.6228  2.2753 -1.0948
18501TIP3    H276919   3.116   1.956  17.135 -0.2070 -1.8681 -2.3602
18502TIP3   OH276920   1.530   2.893   5.044 -0.0018 -0.9851  0.2261
18502TIP3    H176921   1.519   2.986   5.023 -1.4296 -0.6057  2.3103
18502TIP3    H276922   1.470   2.848   4.984  0.2085 -0.5101 -0.3526
18503TIP3   OH276923   4.815   4.102  12.304 -0.1632  0.8153  0.2061
18503TIP3    H176924   4.798   4.008  12.291  0.0760  0.8204 -0.1416
18503TIP3    H276925   4.893   4.120  12.252 -1.7482  1.8037 -1.9824
18504TIP3   OH276926   3.898   0.268   4.265  0.1474  0.0425  0.3320
18504TIP3    H176927   3.980   0.269   4.315 -0.1028 -0.0257  0.7416
18504TIP3    H276928   3.853   0.349   4.290 -0.0369 -0.0543  0.3149
18505TIP3   OH276929   3.967   6.245   0.016  0.5542 -0.0779 -0.3475
18505TIP3    H176930   3.952   6.309   0.086  2.0032 -0.4828  0.3744
18505TIP3    H276931   3.889   6.190   0.017 -0.2106  0.9862 -0.2287
18506TIP3   OH276932   0.070   1.870   5.156  0.0233 -0.2945  0.0519
18506TIP3    H176933  -0.019   1.836   5.166 -0.1082 -0.2310 -0.8401
18506TIP3    H276934   0.063   1.938   5.089  0.6763 -0.0201  0.2494
18507TIP3   OH276935   4.212   3.890   4.167  0.4408  0.1288 -0.0234
18507TIP3    H176936   4.162   3.819   4.126  0.3403  0.9615 -1.3772
18507TIP3    H276937   4.284   3.845   4.213  0.2734 -0.8569 -0.7013
18508TIP3   OH276938   4.338   5.972   5.995  0.3338 -0.4438  0.3816
18508TIP3    H176939   4.360   5.946   6.085  0.6056  1.3126  0.8569
18508TIP3    H276940   4.389   6.052   5.980  0.0932 -0.5627 -1.2551
18509TIP3   OH276941   4.006   6.525   0.693  0.2988 -0.8297 -0.2246
18509TIP3    H176942   4.029   6.447   0.744 -0.6868 -0.1188  1.3912
18509TIP3    H276943   4.027   6.599   0.751  1.0370  0.1303 -1.6438
18510TIP3   OH276944   3.122   3.506  15.179  0.9007 -0.4353 -0.3353
18510TIP3    H176945   3.211   3.538  15.194  0.7255 -0.9648  2.1023
18510TIP3    H276946   3.112   3.433  15.240 -1.6703  0.5151  0.4817
18511TIP3   OH276947   6.147   1.074   4.151 -0.0256  0.4104 -0.1643
18511TIP3    H176948   6.200   1.021   4.091 -1.9293 -0.2132 -1.3951
18511TIP3    H276949   6.198   1.077   4.232  2.5499  1.1342 -1.7197
18512TIP3   OH276950   1.622   3.849   3.202 -0.0552  0.6838 -0.1625
18512TIP3    H176951   1.630   3.938   3.168  2.5904  1.9314  3.2455
18512TIP3    H276952   1.569   3.857   3.281  0.9292 -0.5969  0.6736
18513TIP3   OH276953   4.992   3.869  13.564  0.0699 -0.1388  0.4162
18513TIP3    H176954   5.072   3.821  13.543  1.2457  1.4547  1.0222
18513TIP3    H276955   4.949   3.881  13.479  2.1991  1.8466 -0.4846
18514TIP3   OH276956   4.907   6.369   2.711 -0.1977 -0.4325  0.2939
18514TIP3    H176957   4.874   6.303   2.651  0.9916  0.1978 -1.1207
18514TIP3    H276958   4.842   6.373   2.781 -1.3627 -1.5636 -0.6783
18515TIP3   OH276959   0.527   2.723   6.035  0.2994 -0.8019 -0.2158
18515TIP3    H176960   0.592   2.655   6.056 -1.2206 -2.4338 -0.5914
18515TIP3    H276961   0.448   2.695   6.080 -0.6004  0.2841 -1.0761
18516TIP3   OH276962   5.936   5.024  14.521  0.6445 -0.3326  0.4211
18516TIP3    H176963   5.893   5.008  14.437 -1.3266 -0.1088  1.3303
18516TIP3    H276964   6.028   5.038  14.499 -0.1494  1.9355 -1.9481
18517TIP3   OH276965   2.398   3.034   0.672  0.1028  0.2342 -0.2205
18517TIP3    H176966   2.305   3.048   0.689  0.0778  2.0459 -1.6396
18517TIP3    H276967   2.401   2.956   0.617 -0.4355 -0.5875  0.8678
18518TIP3   OH276968   1.426   5.536  13.537 -0.0759  0.2401  1.0415
18518TIP3    H176969   1.507   5.543  13.588  0.1887  1.9790  0.4506
18518TIP3    H276970   1.389   5.624  13.539  0.2038  0.5325 -2.1276
18519TIP3   OH276971   4.940   3.098   0.512 -0.3115  0.0159  0.0670
18519TIP3    H176972   4.946   3.074   0.604 -1.3097  1.2202  0.4640
18519TIP3    H276973   4.847   3.101   0.493 -0.1143 -1.8215 -1.4501
18520TIP3   OH276974   0.270   1.135  15.754  0.7741  0.2133  0.0303
18520TIP3    H176975   0.361   1.107  15.765  0.1740 -3.3335 -2.2116
18520TIP3    H276976   0.219   1.061  15.786 -1.3782  2.0181  0.9777
18521TIP3   OH276977   3.111   4.722   2.987  0.4803  0.1865 -0.0634
18521TIP3    H176978   3.128   4.728   2.893 -0.9025 -0.6720 -0.4012
18521TIP3    H276979   3.103   4.628   3.003 -2.2020  0.4190  0.3322
18522TIP3   OH276980   4.319   3.240   2.653  0.1271  0.4412 -0.0743
18522TIP3    H176981   4.311   3.187   2.574 -0.3081 -1.3178  1.0987
18522TIP3    H276982   4.332   3.329   2.621  0.5731 -0.3105 -2.1175
18523TIP3   OH276983   4.996   4.151   2.231 -0.5959  0.0056 -0.7333
18523TIP3    H176984   4.979   4.215   2.162 -0.1994  1.2115  0.2265
18523TIP3    H276985   5.091   4.136   2.226 -0.2156  1.5879  0.7175
18524TIP3   OH276986   5.535   3.328  16.310 -0.5981 -0.3731  0.1797
18524TIP3    H176987   5.519   3.264  16.380  2.6826 -1.9479 -0.2942
18524TIP3    H276988   5.602   3.387  16.346  1.3154 -1.3429 -1.5553
18525TIP3   OH276989   3.658   1.923   5.026 -0.8208  0.2286  0.4988
18525TIP3    H176990   3.680   1.852   4.966 -2.4682  0.4265 -0.4074
18525TIP3    H276991   3.593   1.975   4.978 -3.6584 -0.6484  3.0567
18526TIP3   OH276992   1.387   5.060  11.913 -0.4870  0.2246  0.1667
18526TIP3    H176993   1.476   5.025  11.921  0.1854  1.7621 -0.2314
18526TIP3    H276994   1.343   5.031  11.993 -0.1513 -1.9484 -0.3867
18527TIP3   OH276995   4.760   1.793   4.064 -0.3464 -0.8483 -1.3638
18527TIP3    H176996   4.844   1.825   4.097 -0.2339 -0.7316 -1.7635
18527TIP3    H276997   4.736   1.854   3.994 -1.7938  0.3956  0.1166
18528TIP3   OH276998   2.339   1.542  14.985 -0.0605 -0.5288 -0.6691
18528TIP3    H176999   2.272   1.480  14.957 -1.2463 -0.2703  1.3791
18528TIP3    H277000   2.365   1.587  14.905 -3.9150  0.8938 -1.3375
18529TIP3   OH277001   0.922   0.589  12.917  0.1627  0.2351 -0.2759
18529TIP3    H177002   0.849   0.647  12.940 -0.1498 -0.6154  1.0031
18529TIP3    H277003   0.891   0.540  12.841  0.1968  1.2712 -0.9854
18530TIP3   OH277004   3.412   1.670   5.560 -0.1555  0.0063  0.2860
18530TIP3    H177005   3.368   1.623   5.631  0.4309 -0.1061  0.5746
18530TIP3    H277006   3.369   1.638   5.480 -1.1093  0.4462  0.6046
18531TIP3   OH277007   4.558   2.795   5.975 -0.6497  0.4257 -0.4466
18531TIP3    H177008   4.549   2.709   6.016  0.3627  0.6096  0.2196
18531TIP3    H277009   4.507   2.789   5.895  1.0894 -1.5494 -1.5265
18532TIP3   OH277010   2.452   2.122   2.576 -0.3208 -0.6121  0.5466
18532TIP3    H177011   2.357   2.116   2.562 -0.3584  0.1846  0.3873
18532TIP3    H277012   2.478   2.034   2.602 -0.8456 -1.2573 -0.9753
18533TIP3   OH277013   3.046   3.079   1.194  0.1035  0.4212  0.2572
18533TIP3    H177014   3.140   3.093   1.189  0.5322 -1.9753  0.6792
18533TIP3    H277015   3.027   3.015   1.126 -1.2821  1.0316  0.0269
18534TIP3   OH277016   6.586   1.055  14.933 -0.3109 -0.9463  0.5454
18534TIP3    H177017   6.531   1.108  14.990 -0.8154 -0.2799 -0.5202
18534TIP3    H277018   6.531   1.037  14.856  1.4163  1.0854 -1.2842
18535TIP3   OH277019   5.948   3.297  13.065  0.2149 -0.5927  0.1922
18535TIP3    H177020   5.988   3.265  13.146 -1.3059 -3.5891 -0.1079
18535TIP3    H277021   5.869   3.343  13.095  0.7121  0.0968  0.4755
18536TIP3   OH277022   3.054   4.926   6.245  0.1260 -0.0684 -0.0258
18536TIP3    H177023   3.078   5.015   6.220  1.1407 -0.2180  0.3947
18536TIP3    H277024   2.974   4.936   6.297  0.6180  0.6607  0.5997
18537TIP3   OH277025   6.007   4.132  15.988 -0.1184  0.3625  0.1103
18537TIP3    H177026   5.994   4.219  16.027 -0.0065  0.1058  0.7272
18537TIP3    H277027   5.938   4.078  16.026  0.3673 -0.0430  0.4311
18538TIP3   OH277028   3.036   0.265   4.689  0.3456 -0.5332 -0.2219
18538TIP3    H177029   2.978   0.331   4.652  1.0417 -0.1956 -0.7196
18538TIP3    H277030   2.984   0.225   4.760 -0.5391 -0.3357 -0.7419
18539TIP3   OH277031   2.653   5.886  16.350  0.3853 -0.4130 -0.4641
18539TIP3    H177032   2.742   5.867  16.322  0.1444  0.1437 -1.6798
18539TIP3    H277033   2.648   5.982  16.348  0.1385 -0.3797  0.8525
18540TIP3   OH277034   0.941   6.766  11.811  0.3131 -0.7292 -0.1167
18540TIP3    H177035   1.026   6.801  11.784  0.4061 -0.8487  0.0182
18540TIP3    H277036   0.933   6.683  11.764 -0.4032 -0.0153 -1.3061
18541TIP3   OH277037   0.960   2.836  16.219 -0.3047  0.0374 -0.5586
18541TIP3    H177038   0.946   2.763  16.280 -0.6478  1.7743  1.5537
18541TIP3    H277039   1.056   2.841  16.210 -0.2996 -1.2735 -1.5584
18542TIP3   OH277040   1.470   1.861   0.166 -0.9550  1.0154 -0.0179
18542TIP3    H177041   1.562   1.845   0.143 -1.7399  0.2243 -3.0134
18542TIP3    H277042   1.441   1.779   0.207 -1.1680 -0.1029 -2.2566
18543TIP3   OH277043   6.796   1.475  13.377 -0.0799  0.0177  0.0423
18543TIP3    H177044   6.883   1.489  13.337  0.5141 -0.7847  1.0149
18543TIP3    H277045   6.780   1.382  13.368 -0.6191  0.0780  0.3374
18544TIP3   OH277046   4.815   3.392   2.383 -0.3857  0.2469 -0.1950
18544TIP3    H177047   4.888   3.344   2.343 -0.4347  0.3534 -0.4147
18544TIP3    H277048   4.759   3.324   2.420 -0.2080  0.1614 -0.0840
18545TIP3   OH277049   3.501   5.597   0.789  0.1307 -0.3737  0.0377
18545TIP3    H177050   3.537   5.684   0.808  0.5795 -0.7661  1.0357
18545TIP3    H277051   3.475   5.602   0.697  0.4796  0.7020 -0.0203
18546TIP3   OH277052   1.624   5.501  11.295 -0.1433 -0.3071 -0.1426
18546TIP3    H177053   1.679   5.464  11.226  0.3068  1.9172 -1.0803
18546TIP3    H277054   1.547   5.445  11.297  1.1672 -2.1963 -0.3431
18547TIP3   OH277055   0.916   3.223   6.418  0.0930  0.3757 -0.1592
18547TIP3    H177056   0.862   3.183   6.350 -1.7391  0.4603  1.1960
18547TIP3    H277057   0.963   3.149   6.457 -0.6409 -0.0033  0.0286
18548TIP3   OH277058   2.690   3.384   3.158  0.5313  0.0533  0.2779
18548TIP3    H177059   2.615   3.442   3.149  0.2472 -0.4861 -1.0887
18548TIP3    H277060   2.742   3.399   3.079  0.2224 -1.8290 -0.3407
18549TIP3   OH277061   3.380   4.306  13.823 -0.0611 -0.0739  0.1753
18549TIP3    H177062   3.395   4.264  13.908 -0.4967 -2.3250 -0.7886
18549TIP3    H277063   3.413   4.243  13.760 -1.7990  0.5543 -1.4346
18550TIP3   OH277064   2.425   0.796   4.333 -0.1975 -0.5899  0.3958
18550TIP3    H177065   2.462   0.884   4.344 -2.1333  0.3151  0.1203
18550TIP3    H277066   2.451   0.770   4.245 -0.9771  0.4463 -0.1702
18551TIP3   OH277067   1.949   2.618  12.221  0.2201  0.2002  0.1110
18551TIP3    H177068   1.959   2.543  12.162 -0.9903 -0.4282  0.6806
18551TIP3    H277069   1.982   2.692  12.170  0.9025 -0.6200 -0.6749
18552TIP3   OH277070   1.049   5.427   3.494  0.3275 -0.0453 -0.3867
18552TIP3    H177071   1.028   5.404   3.404 -0.5202 -2.0559  0.2668
18552TIP3    H277072   1.133   5.383   3.511 -0.7496 -1.8592  0.5295
18553TIP3   OH277073   0.058   1.180   0.130 -0.1780  0.2184  0.1379
18553TIP3    H177074   0.036   1.088   0.112 -2.5519  0.6570  0.4118
18553TIP3    H277075  -0.009   1.230   0.083  0.9272  1.8246  0.1952
18554TIP3   OH277076   6.020   1.798  12.662  0.0597  0.6419  0.3406
18554TIP3    H177077   6.039   1.723  12.607  1.3134  1.5168 -0.4543
18554TIP3    H277078   5.924   1.802  12.665 -0.0217  0.1235 -1.1413
18555TIP3   OH277079   6.021   5.764  13.395  0.5378  0.1405 -0.3153
18555TIP3    H177080   6.013   5.838  13.335 -0.0346  0.0801 -0.3191
18555TIP3    H277081   6.105   5.724  13.372  0.8063  0.7275 -0.3794
18556TIP3   OH277082   3.384   0.278  14.321  0.2824  0.0480  0.1848
18556TIP3    H177083   3.412   0.357  14.274 -0.3155  0.2906  0.2239
18556TIP3    H277084   3.387   0.208  14.256  1.8322 -0.1192  0.4115
18557TIP3   OH277085   2.612   5.648  13.604 -0.0366  0.3923 -0.1551
18557TIP3    H177086   2.644   5.659  13.515 -1.8577  1.5677 -0.7329
18557TIP3    H277087   2.659   5.715  13.654  0.7795 -0.0763 -0.2848
18558TIP3   OH277088   1.344   6.573  11.959 -0.6305  0.1686 -0.0515
18558TIP3    H177089   1.438   6.555  11.960 -0.7472 -0.4352  0.7656
18558TIP3    H277090   1.309   6.517  11.890 -0.5187 -0.3273  0.2886
18559TIP3   OH277091   6.390   2.029   1.674  0.2695 -0.0396  0.2605
18559TIP3    H177092   6.424   2.099   1.730  0.2949  0.0330  0.1538
18559TIP3    H277093   6.297   2.022   1.699  0.7048 -1.2997  1.6612
18560TIP3   OH277094   1.116   2.859   0.698  0.4041 -0.1123 -0.3112
18560TIP3    H177095   1.152   2.781   0.739 -0.6621 -0.4478  0.0171
18560TIP3    H277096   1.055   2.826   0.632 -1.9947  0.3704  1.5278
18561TIP3   OH277097   0.651   4.703  14.748 -0.1869  0.1005 -0.8235
18561TIP3    H177098   0.679   4.613  14.730 -0.7808 -0.1358 -0.5849
18561TIP3    H277099   0.585   4.722  14.682 -1.2903 -0.2465  0.1374
18562TIP3   OH277100   6.006   4.825   5.878  0.4715  0.1524 -0.0957
18562TIP3    H177101   5.958   4.817   5.796 -1.3057  0.0840  0.8903
18562TIP3    H277102   6.081   4.881   5.857 -1.1393  2.0101 -1.2866
18563TIP3   OH277103   0.283   0.694  14.009  0.3961  0.2931  0.1065
18563TIP3    H177104   0.226   0.626  14.045  0.1603  0.2356 -0.3689
18563TIP3    H277105   0.224   0.752  13.960  0.6364  0.6760  0.2612
18564TIP3   OH277106   5.514   0.079   4.614 -0.2470 -0.1280 -0.2760
18564TIP3    H177107   5.511   0.173   4.597  0.2477  0.1356  1.0181
18564TIP3    H277108   5.597   0.065   4.659 -0.9039 -0.9750  0.7254
18565TIP3   OH277109   1.834   6.028   3.975  0.0818  0.1995  0.6395
18565TIP3    H177110   1.897   6.052   4.043  0.3365  1.5378 -0.0410
18565TIP3    H277111   1.788   5.952   4.011  0.0668  0.9923  2.4017
18566TIP3   OH277112   5.336   2.359   2.025  0.0440 -0.1433  0.0226
18566TIP3    H177113   5.384   2.324   2.101 -0.5622  0.5812  0.7644
18566TIP3    H277114   5.404   2.385   1.964  0.7000  2.0105  1.5685
18567TIP3   OH277115   3.169   0.392  14.439  0.0434 -0.0602  0.1155
18567TIP3    H177116   3.155   0.450  14.364 -0.5291 -0.2801  0.0430
18567TIP3    H277117   3.241   0.336  14.412  0.9215  0.9156  0.3697
18568TIP3   OH277118   0.805   6.535   4.622  0.1060  0.1800 -0.0824
18568TIP3    H177119   0.760   6.596   4.680  0.7976  0.7473 -0.1250
18568TIP3    H277120   0.759   6.452   4.633 -0.4498  0.5555  0.4509
18569TIP3   OH277121   6.063   3.417  17.009  0.4987  0.2300 -0.1411
18569TIP3    H177122   5.986   3.360  17.011  1.0798 -0.5587  0.2491
18569TIP3    H277123   6.102   3.408  17.095  1.9964 -0.7514 -0.8757
18570TIP3   OH277124   1.014   6.795   3.003  0.7768  0.3186  0.0096
18570TIP3    H177125   1.072   6.862   2.966  0.2555 -0.1402 -1.7271
18570TIP3    H277126   0.933   6.804   2.954 -0.2106  0.1187  1.5596
18571TIP3   OH277127   1.696   6.250  15.078  0.4030 -0.1824  0.0139
18571TIP3    H177128   1.673   6.337  15.046  0.6218  0.0829  0.5727
18571TIP3    H277129   1.642   6.190  15.025  1.2736  0.1948 -1.3489
18572TIP3   OH277130   2.181   0.476   3.770  0.0529  0.4929  0.1537
18572TIP3    H177131   2.129   0.556   3.777  0.0910  0.4620  0.7753
18572TIP3    H277132   2.160   0.425   3.848 -0.4477 -0.3987 -0.5380
18573TIP3   OH277133   6.069   2.151   4.755 -0.5931  0.2822  0.3123
18573TIP3    H177134   5.984   2.113   4.732 -0.4470  0.4012 -0.4387
18573TIP3    H277135   6.124   2.133   4.679 -0.1159  0.7454  0.5473
18574TIP3   OH277136   0.975   1.864  15.918 -0.4084 -0.0261 -0.0708
18574TIP3    H177137   1.050   1.902  15.872  0.1023 -1.8047 -0.8322
18574TIP3    H277138   0.917   1.833  15.848 -2.0941  1.6714  0.5053
18575TIP3   OH277139   0.965   2.242   0.063  0.4707 -0.4130  0.5088
18575TIP3    H177140   0.898   2.274   0.004  1.5479 -2.2983 -1.9244
18575TIP3    H277141   0.930   2.159   0.096  0.8344 -0.4944  0.6945
18576TIP3   OH277142   2.086   0.960  14.938  0.3616 -0.3991  0.0744
18576TIP3    H177143   2.169   0.929  14.974  0.4689  0.3027  0.4407
18576TIP3    H277144   2.063   0.894  14.872 -0.2698 -2.1839  1.9586
18577TIP3   OH277145   4.358   5.142   2.669 -0.2288  0.5927  0.4266
18577TIP3    H177146   4.427   5.080   2.694 -0.5340 -0.0777 -0.3295
18577TIP3    H277147   4.290   5.130   2.735 -0.9163 -0.9647 -0.5023
18578TIP3   OH277148   0.611   0.896  10.700 -0.0979  0.1227  0.0609
18578TIP3    H177149   0.538   0.953  10.674  0.2388  0.6831  0.3111
18578TIP3    H277150   0.658   0.947  10.766  0.6419 -0.1487 -0.2522
18579TIP3   OH277151   4.412   0.295   4.771 -0.4008  0.0190  0.7863
18579TIP3    H177152   4.373   0.383   4.769 -1.5608 -0.4939 -0.7025
18579TIP3    H277153   4.367   0.247   4.702 -1.2303 -2.3714  2.8222
18580TIP3   OH277154   5.849   3.481  14.157  0.0554  0.0265 -0.2239
18580TIP3    H177155   5.859   3.400  14.108  1.1485 -0.0448  0.0892
18580TIP3    H277156   5.783   3.461  14.224 -1.4163  0.1105 -1.5704
18581TIP3   OH277157   6.045   4.241   5.471  0.1912 -0.6048 -0.2321
18581TIP3    H177158   6.090   4.191   5.540 -0.9931 -1.1775  0.1670
18581TIP3    H277159   6.105   4.311   5.448  0.6572 -0.4581  1.3351
18582TIP3   OH277160   5.198   2.670  12.420  0.3358  0.0911 -0.5040
18582TIP3    H177161   5.230   2.584  12.448 -0.7971 -0.1103  0.2252
18582TIP3    H277162   5.216   2.673  12.326 -1.5680 -1.8530 -1.0055
18583TIP3   OH277163   5.136   1.813   5.036 -0.1882 -0.2711 -0.0241
18583TIP3    H177164   5.145   1.720   5.056  0.1021 -0.8561 -2.4533
18583TIP3    H277165   5.223   1.839   5.005 -0.8120  0.1722 -1.5066
18584TIP3   OH277166   1.716   6.050  11.059  1.0223  0.0238  0.8097
18584TIP3    H177167   1.773   6.022  11.131  0.6162 -1.8916  0.4511
18584TIP3    H277168   1.627   6.035  11.092  0.8151  0.0333  0.2547
18585TIP3   OH277169   2.979   2.085  15.243  0.2762 -0.4438  0.2909
18585TIP3    H177170   3.055   2.038  15.208  0.2554 -1.4205  1.4685
18585TIP3    H277171   3.017   2.151  15.301  0.2652 -1.2575  1.2738
18586TIP3   OH277172   2.544   0.396  14.656 -0.1785 -0.2280 -0.0448
18586TIP3    H177173   2.483   0.324  14.674 -0.6902  0.0005 -0.8251
18586TIP3    H277174   2.523   0.462  14.722 -1.0720  0.0179 -0.5569
18587TIP3   OH277175   2.190   0.070   5.616  0.0233  0.4633  0.9841
18587TIP3    H177176   2.130   0.006   5.578 -0.7429  1.6722  0.0786
18587TIP3    H277177   2.272   0.022   5.628 -0.7283 -0.8646  0.9987
18588TIP3   OH277178   5.439   4.008   0.589 -0.0441 -0.0264 -0.3153
18588TIP3    H177179   5.387   4.068   0.535  1.1140  0.3845 -1.0164
18588TIP3    H277180   5.425   4.038   0.678 -3.8200 -2.1018 -0.0121
18589TIP3   OH277181   1.834   6.135   1.959  0.4098 -0.1666 -0.3806
18589TIP3    H177182   1.916   6.160   2.001  1.4249 -0.8436 -1.8403
18589TIP3    H277183   1.808   6.213   1.909  0.1866  0.0325  0.0445
18590TIP3   OH277184   4.638   2.185  12.297 -0.3376  0.0138  0.2370
18590TIP3    H177185   4.549   2.155  12.277 -0.3220 -0.7200  1.2139
18590TIP3    H277186   4.683   2.108  12.332  1.1813 -0.0179 -1.6641
18591TIP3   OH277187   3.548   3.542  12.469 -0.5630 -0.1391 -0.7284
18591TIP3    H177188   3.458   3.526  12.496 -0.7743  0.8010 -0.8599
18591TIP3    H277189   3.595   3.560  12.551 -0.8351  0.9591 -0.8066
18592TIP3   OH277190   2.468   0.529   5.118  0.3992 -0.2811 -0.1211
18592TIP3    H177191   2.538   0.513   5.182 -1.1668  2.4072  2.4746
18592TIP3    H277192   2.391   0.487   5.156 -0.2199 -0.0528 -1.1010
18593TIP3   OH277193   5.468   4.283   4.498  0.1558 -0.4838 -0.0788
18593TIP3    H177194   5.389   4.235   4.472 -0.3739  0.5076 -0.3464
18593TIP3    H277195   5.479   4.264   4.591 -1.5325  0.8848  0.4553
18594TIP3   OH277196   5.726   0.818   5.646 -0.3060  0.5055 -0.1965
18594TIP3    H177197   5.753   0.909   5.658 -1.3951  0.7604  0.3737
18594TIP3    H277198   5.645   0.823   5.595 -0.0523 -0.1848 -0.6922
18595TIP3   OH277199   6.607   0.798  14.597  0.3846  0.1618 -0.0417
18595TIP3    H177200   6.558   0.819  14.677 -0.1483 -0.0639 -0.2971
18595TIP3    H277201   6.668   0.730  14.624  1.1018  0.9784  0.4574
18596TIP3   OH277202   4.891   2.169   4.417  0.1824 -0.1485 -0.0295
18596TIP3    H177203   4.873   2.206   4.331 -1.9294 -0.6407  0.1385
18596TIP3    H277204   4.805   2.163   4.459  0.7799 -2.4820  1.0408
18597TIP3   OH277205   0.263   5.584   4.996  0.6366  0.7502 -0.2022
18597TIP3    H177206   0.211   5.631   4.931  0.6862  0.1560 -0.6826
18597TIP3    H277207   0.347   5.569   4.952 -0.2560 -2.1345 -1.0990
18598TIP3   OH277208   1.263   5.681   0.259 -0.2248 -0.4435  0.0516
18598TIP3    H177209   1.335   5.651   0.316  1.0201 -3.2966 -2.7493
18598TIP3    H277210   1.196   5.614   0.269 -0.1921 -0.7119 -1.4155
18599TIP3   OH277211   6.364   1.668  10.447  0.4041 -0.4776 -0.3651
18599TIP3    H177212   6.357   1.742  10.507  0.3534  0.1982 -1.1719
18599TIP3    H277213   6.274   1.642  10.429  0.3375  0.2907 -1.2735
18600TIP3   OH277214   0.074   5.437   3.579 -0.4349  0.0797  0.0410
18600TIP3    H177215   0.124   5.423   3.659 -1.5604 -0.5506  0.6678
18600TIP3    H277216   0.105   5.521   3.546  0.5595  0.0124  0.7510
18601TIP3   OH277217   5.267   6.106  14.105 -0.0432  0.1312  0.0070
18601TIP3    H177218   5.343   6.089  14.050 -1.5974 -1.9060 -1.6835
18601TIP3    H277219   5.212   6.163  14.052 -0.3369  0.4264  0.6232
18602TIP3   OH277220   1.188   3.946   3.215  0.1760 -0.3630 -0.1118
18602TIP3    H177221   1.119   3.892   3.176 -0.1000  0.6297 -1.0697
18602TIP3    H277222   1.173   4.033   3.178  1.1125  0.1814  0.7461
18603TIP3   OH277223   0.058   0.275   2.653 -0.2019  0.2200  0.3181
18603TIP3    H177224  -0.014   0.235   2.605  0.0303  0.3462 -0.1394
18603TIP3    H277225   0.054   0.235   2.740  0.5114 -1.4175 -0.3560
18604TIP3   OH277226   3.096   5.559   0.862  0.3047  0.2721 -0.2783
18604TIP3    H177227   3.046   5.477   0.864 -3.5884  2.4314 -0.2557
18604TIP3    H277228   3.113   5.579   0.954 -0.1306  0.2875 -0.2023
18605TIP3   OH277229   0.473   3.403  14.796 -0.3485  0.5576 -0.0672
18605TIP3    H177230   0.477   3.390  14.891 -0.8757  0.4442 -0.0587
18605TIP3    H277231   0.386   3.440  14.781  0.3080  2.0827 -0.3285
18606TIP3   OH277232   1.242   1.433   6.379  0.0492  0.0854  0.4412
18606TIP3    H177233   1.243   1.343   6.347  0.5623  0.0060  0.6758
18606TIP3    H277234   1.273   1.427   6.469  4.8194  0.9809 -0.8422
18607TIP3   OH277235   5.303   6.426   2.279  0.3070 -0.1620 -0.0053
18607TIP3    H177236   5.227   6.434   2.221 -0.2143 -1.7093  0.4272
18607TIP3    H277237   5.279   6.476   2.357  0.4311  0.7231 -0.5132
18608TIP3   OH277238   1.800   0.801   3.327  0.3897  0.0655 -0.1000
18608TIP3    H177239   1.860   0.857   3.377 -1.2435  0.4650  1.5280
18608TIP3    H277240   1.744   0.862   3.280 -0.0877 -0.2408  0.0637
18609TIP3   OH277241   1.033   3.689  16.623  0.1298  0.3646 -0.3341
18609TIP3    H177242   1.045   3.594  16.621  1.2743  0.4370 -4.0236
18609TIP3    H277243   0.939   3.701  16.631  0.0981 -0.9255  2.4503
18610TIP3   OH277244   5.688   2.231  13.695 -0.4360 -0.9818  0.1966
18610TIP3    H177245   5.672   2.301  13.630 -0.3727 -0.5111  0.6791
18610TIP3    H277246   5.617   2.240  13.758  0.9991  0.4234  1.7517
18611TIP3   OH277247   0.187   2.286   4.049  0.0676 -0.1654  0.5420
18611TIP3    H177248   0.184   2.193   4.026 -0.1630  0.2820 -1.3626
18611TIP3    H277249   0.174   2.332   3.966  2.0230  1.5871  1.1200
18612TIP3   OH277250   4.504   3.152  16.973  0.1664  0.3500  0.2529
18612TIP3    H177251   4.573   3.184  16.914  0.2195 -1.9754 -1.0897
18612TIP3    H277252   4.539   3.071  17.010 -0.9984  0.2867  1.2964
18613TIP3   OH277253   0.854   0.162   4.823 -0.3532 -0.1513 -0.3943
18613TIP3    H177254   0.762   0.139   4.812  0.1189 -1.0511 -3.6928
18613TIP3    H277255   0.892   0.091   4.874 -0.8668 -1.6405 -2.0078
18614TIP3   OH277256   0.020   4.018   0.119  0.3550  0.4332  0.0948
18614TIP3    H177257  -0.039   3.999   0.046  1.2538  0.9257 -0.7775
18614TIP3    H277258   0.078   3.942   0.123  1.8404  1.4262 -1.2817
18615TIP3   OH277259   1.442   4.978  11.494 -0.0576  0.0172  0.3315
18615TIP3    H177260   1.519   4.941  11.451 -0.4976 -1.0820  0.4524
18615TIP3    H277261   1.368   4.945  11.444 -0.5370 -0.5998  1.3987
18616TIP3   OH277262   6.488   6.619  14.468  0.4536  0.6817  0.1627
18616TIP3    H177263   6.556   6.653  14.410 -0.5306  1.2256 -0.7223
18616TIP3    H277264   6.515   6.646  14.556  1.5749  0.5219 -0.1220
18617TIP3   OH277265   6.384   5.096   3.529 -0.3535 -0.2251  0.1751
18617TIP3    H177266   6.440   5.096   3.607 -0.0139  0.2314 -0.0638
18617TIP3    H277267   6.406   5.014   3.484  2.7536  1.4184 -1.7300
18618TIP3   OH277268   0.721   4.227   0.066 -0.3081 -0.5423 -0.2462
18618TIP3    H177269   0.703   4.149   0.120  2.7520  0.6572  2.9004
18618TIP3    H277270   0.786   4.197   0.003  1.1511 -0.5306  1.2061
18619TIP3   OH277271   6.651   4.975  13.743  0.4853 -0.4285  0.1664
18619TIP3    H177272   6.623   4.896  13.696  1.7703 -0.0049 -1.4288
18619TIP3    H277273   6.715   4.943  13.807  1.9759 -0.6024 -1.3374
18620TIP3   OH277274   4.119   4.585  14.161  0.2484  0.1628 -0.2830
18620TIP3    H177275   4.127   4.673  14.197 -0.1542 -0.5729  1.6799
18620TIP3    H277276   4.203   4.569  14.117  1.5723  0.3681  2.0440
18621TIP3   OH277277   4.802   5.981   5.244 -0.3615  0.3318  0.6557
18621TIP3    H177278   4.880   5.930   5.267 -0.9162 -0.2553  1.2961
18621TIP3    H277279   4.834   6.048   5.183  0.1888 -1.5728 -1.2913
18622TIP3   OH277280   4.040   5.265   4.798  0.1253  0.0011  0.5770
18622TIP3    H177281   4.110   5.236   4.857  1.8713  1.1270 -0.8519
18622TIP3    H277282   4.036   5.360   4.810 -0.5512  0.0507  0.0050
18623TIP3   OH277283   5.727   5.844   0.017 -0.4682  0.5884  0.8271
18623TIP3    H177284   5.640   5.866   0.049 -1.0986 -0.0610 -0.4055
18623TIP3    H277285   5.715   5.763  -0.033  0.7831  0.6721  0.3502
18624TIP3   OH277286   4.604   4.076   3.124  0.0956 -0.3590  0.5786
18624TIP3    H177287   4.585   4.060   3.032  0.7137 -0.4201  0.4588
18624TIP3    H277288   4.669   4.010   3.148  1.5290  0.9484  0.4788
18625TIP3   OH277289   2.937   2.889   1.018  0.4697 -0.5342  0.0221
18625TIP3    H177290   2.874   2.955   0.988 -0.2997 -1.2025  0.1045
18625TIP3    H277291   2.956   2.837   0.940  1.9320  0.4366 -0.3008
18626TIP3   OH277292   3.532   0.746   1.225  0.2078 -0.0685 -0.3443
18626TIP3    H177293   3.572   0.833   1.233 -0.9149  0.2962  2.0389
18626TIP3    H277294   3.606   0.687   1.210  1.1373  1.0926 -0.5222
18627TIP3   OH277295   1.279   6.306  16.683  0.0017  0.4513  0.4134
18627TIP3    H177296   1.330   6.379  16.717 -1.5346  1.5386  0.4782
18627TIP3    H277297   1.287   6.238  16.750  3.3411 -0.4178 -0.6841
18628TIP3   OH277298   1.285   3.923  16.067 -0.0971 -0.0257 -0.4047
18628TIP3    H177299   1.364   3.944  16.117 -1.1508  1.0698  0.8690
18628TIP3    H277300   1.255   4.008  16.034  0.5400 -0.6925 -2.9510
18629TIP3   OH277301   5.420   4.716  11.868 -0.6522 -0.5136 -0.3392
18629TIP3    H177302   5.445   4.718  11.776  0.1142 -0.0547 -0.1304
18629TIP3    H277303   5.473   4.646  11.906 -2.4997 -2.1524 -0.6567
18630TIP3   OH277304   0.784   3.599  14.670  0.4798 -0.3713  0.0007
18630TIP3    H177305   0.814   3.620  14.581 -1.5905 -0.3189 -0.7245
18630TIP3    H277306   0.695   3.633  14.675  1.7008  3.1881  3.4441
18631TIP3   OH277307   4.452   3.104  14.126 -0.1242  0.2696  0.1479
18631TIP3    H177308   4.508   3.106  14.203 -0.2628  1.6770  0.2352
18631TIP3    H277309   4.406   3.020  14.132  2.4941 -1.3169 -0.3407
18632TIP3   OH277310   0.945   0.981   0.539 -0.6244 -0.7475  0.0523
18632TIP3    H177311   0.886   0.972   0.463 -2.0202 -0.1417  1.0215
18632TIP3    H277312   0.887   0.971   0.615  0.2520  1.2964  1.0622
18633TIP3   OH277313   4.069   5.096   3.568 -0.3098 -0.6204  0.0258
18633TIP3    H177314   4.038   5.173   3.520 -2.2179 -1.3272  0.0579
18633TIP3    H277315   4.145   5.066   3.517 -1.6991 -0.7931 -2.0742
18634TIP3   OH277316   3.713   2.186   4.715  0.3911  0.2330 -0.2341
18634TIP3    H177317   3.795   2.164   4.760  0.5840  1.1322 -0.1397
18634TIP3    H277318   3.677   2.259   4.765 -0.1930  0.2029 -0.6033
18635TIP3   OH277319   5.910   4.123  16.636  0.9794  0.4691 -0.4652
18635TIP3    H177320   5.838   4.061  16.622 -0.1044  1.5853  0.0312
18635TIP3    H277321   5.876   4.186  16.699  2.9179  0.2207  0.9151
18636TIP3   OH277322   6.448   2.422   1.185 -0.0007  0.2030  0.3734
18636TIP3    H177323   6.514   2.472   1.233  1.0062  0.4636 -1.1950
18636TIP3    H277324   6.441   2.339   1.233  2.9742 -0.6630 -0.4662
18637TIP3   OH277325   6.120   1.972  12.447 -0.2968 -0.2823 -0.1546
18637TIP3    H177326   6.195   1.924  12.482 -0.3222 -0.1782  0.0439
18637TIP3    H277327   6.047   1.910  12.455 -0.0505 -0.7121 -1.1950
18638TIP3   OH277328   3.072   0.664   3.276 -0.1462  0.0915  0.2425
18638TIP3    H177329   3.049   0.714   3.354 -0.7985  0.8567 -0.4183
18638TIP3    H277330   3.167   0.669   3.271  0.0245 -1.0039  1.6465
18639TIP3   OH277331   6.756   6.522  12.604 -0.0870  0.4143  0.3371
18639TIP3    H177332   6.777   6.511  12.697  1.5493  1.3487  0.1173
18639TIP3    H277333   6.837   6.555  12.565 -0.9282  0.6174 -1.3227
18640TIP3   OH277334   0.393   1.285  14.348 -0.2419 -0.3820 -0.1553
18640TIP3    H177335   0.410   1.377  14.331  1.4487 -0.7470 -0.6492
18640TIP3    H277336   0.354   1.252  14.267 -0.1019 -0.2652 -0.2714
18641TIP3   OH277337   2.601   3.989   4.934 -0.1649  0.1824  0.0433
18641TIP3    H177338   2.620   3.934   4.859 -0.4806  0.6172 -0.3645
18641TIP3    H277339   2.683   3.995   4.982  0.4626  1.1609 -1.1030
18642TIP3   OH277340   3.565   1.200   3.133  0.1189 -0.7296 -0.0978
18642TIP3    H177341   3.501   1.143   3.176  1.5571 -1.6017  0.9734
18642TIP3    H277342   3.585   1.267   3.198 -3.1423  2.4656 -2.0464
18643TIP3   OH277343   4.601   1.456  13.555  0.9350  0.7665  0.1206
18643TIP3    H177344   4.633   1.366  13.557 -1.1015 -0.2586 -3.3188
18643TIP3    H277345   4.665   1.503  13.501  0.6250  0.6299 -0.3807
18644TIP3   OH277346   4.703   4.986  15.974 -0.0094 -0.0406  0.2447
18644TIP3    H177347   4.640   5.027  15.915  0.8672 -1.7514 -2.0672
18644TIP3    H277348   4.766   5.055  15.995  0.3911  0.3540 -1.9834
18645TIP3   OH277349   4.618   3.001   0.838  0.8386 -0.0450  0.0632
18645TIP3    H177350   4.678   3.057   0.887  0.4247  1.9403 -1.5976
18645TIP3    H277351   4.675   2.943   0.788  1.3097  0.0317  0.5026
18646TIP3   OH277352   3.746   1.916  15.209  0.3164  0.3547  0.2011
18646TIP3    H177353   3.677   1.853  15.189 -0.7001  0.9479  1.6652
18646TIP3    H277354   3.762   1.962  15.126 -3.4629  2.5000  0.4427
18647TIP3   OH277355   2.187   6.202  12.486 -0.4202 -0.2133 -0.0053
18647TIP3    H177356   2.129   6.237  12.418 -1.0644  1.5394  1.3693
18647TIP3    H277357   2.128   6.180  12.558  0.2841 -1.7603  0.1364
18648TIP3   OH277358   0.074   2.884   4.283  0.4633 -0.6645 -0.6161
18648TIP3    H177359   0.118   2.860   4.201 -0.6385  1.8080 -2.0597
18648TIP3    H277360   0.142   2.925   4.336  1.0239 -1.6209 -0.5723
18649TIP3   OH277361   2.011   1.067  15.784  0.2123  0.1049  0.8663
18649TIP3    H177362   1.962   1.053  15.703  2.0934 -0.6540 -0.2273
18649TIP3    H277363   1.948   1.104  15.845 -1.4085  0.1802 -0.7755
18650TIP3   OH277364   4.612   4.001   0.558 -0.6265  0.1149 -0.7502
18650TIP3    H177365   4.565   4.079   0.589 -0.0512  0.0527  0.3404
18650TIP3    H277366   4.544   3.945   0.521 -1.7916 -0.8150  2.4755
18651TIP3   OH277367   1.615   2.374  17.092  0.6757 -0.1574  0.4346
18651TIP3    H177368   1.690   2.432  17.104 -0.1476  0.4619  3.4848
18651TIP3    H277369   1.653   2.288  17.074  1.9541  0.8018 -1.8766
18652TIP3   OH277370   1.905   4.602   0.884  0.0177 -0.1329 -0.2809
18652TIP3    H177371   1.817   4.629   0.909  0.8245  1.8593  0.5381
18652TIP3    H277372   1.924   4.527   0.941 -0.6631  0.1966  0.3984
18653TIP3   OH277373   4.288   1.529   3.838 -0.4602 -0.2994 -0.0662
18653TIP3    H177374   4.223   1.599   3.835 -1.4978 -1.1978  0.3346
18653TIP3    H277375   4.301   1.513   3.932 -1.2917 -1.5420 -0.1345
18654TIP3   OH277376   3.637   5.777  14.744 -0.3758  0.0789  0.5366
18654TIP3    H177377   3.709   5.720  14.771  1.7902  1.7962 -1.1758
18654TIP3    H277378   3.653   5.859  14.792 -1.6845  0.2429  0.7275
18655TIP3   OH277379   0.444   0.405   2.679  0.2992 -0.5416  0.1109
18655TIP3    H177380   0.531   0.432   2.648  1.1419 -1.7336  1.3121
18655TIP3    H277381   0.390   0.404   2.600  0.8565  1.9907 -0.3960
18656TIP3   OH277382   5.849   6.044   4.504 -0.2363  0.0111 -0.2273
18656TIP3    H177383   5.876   6.012   4.589  1.0203  0.5859 -0.3884
18656TIP3    H277384   5.793   5.975   4.469  1.8585 -1.7522 -0.3160
18657TIP3   OH277385   4.617   6.253   3.718  0.7356 -0.2073 -0.2998
18657TIP3    H177386   4.652   6.269   3.631  0.9165 -1.4566 -0.4625
18657TIP3    H277387   4.694   6.246   3.774  0.7076 -1.5076 -0.4101
18658TIP3   OH277388   3.154   4.410   0.272  0.0534 -0.7278  0.0867
18658TIP3    H177389   3.085   4.349   0.297 -0.1861 -0.7054 -0.4964
18658TIP3    H277390   3.107   4.487   0.240  0.3416  0.1880  1.7463
18659TIP3   OH277391   6.781   4.703   3.826 -0.1888  0.4337  0.0083
18659TIP3    H177392   6.718   4.704   3.899 -0.1367 -2.0799  0.1648
18659TIP3    H277393   6.866   4.699   3.868 -0.0582  0.8900 -0.2079
18660TIP3   OH277394   2.688   3.235  16.993 -0.2311 -0.3270  0.0725
18660TIP3    H177395   2.612   3.286  16.967  0.2587 -0.0140 -0.7925
18660TIP3    H277396   2.748   3.298  17.032 -0.5963 -0.6516  1.2052
18661TIP3   OH277397   1.381   6.307  13.749 -0.0308  0.3302  0.2613
18661TIP3    H177398   1.352   6.360  13.823  0.3178  0.1029  0.5579
18661TIP3    H277399   1.476   6.317  13.747  0.1199 -0.8512  0.7514
18662TIP3   OH277400   6.628   1.237  15.859 -0.5070 -0.3897 -0.3310
18662TIP3    H177401   6.620   1.232  15.763 -2.1724 -0.8022 -0.1862
18662TIP3    H277402   6.575   1.165  15.892  0.0773 -0.2752  0.9278
18663TIP3   OH277403   2.125   4.162  15.434 -0.5309  0.2129 -0.0239
18663TIP3    H177404   2.173   4.214  15.499 -1.3585  0.1525  0.6388
18663TIP3    H277405   2.139   4.208  15.351 -0.2269  0.7920  0.3474
18664TIP3   OH277406   5.363   6.377   5.499  0.2261 -0.1763  0.0405
18664TIP3    H177407   5.372   6.336   5.413 -0.6673 -1.2973  0.4642
18664TIP3    H277408   5.363   6.471   5.480  3.4614 -0.2424 -0.8380
18665TIP3   OH277409   0.479   2.646  12.967  0.4572 -0.6538  0.0182
18665TIP3    H177410   0.529   2.589  12.909 -0.3615  1.5444 -3.1149
18665TIP3    H277411   0.542   2.714  12.994  0.0404  0.2937 -1.2808
18666TIP3   OH277412   0.609   5.360  14.583  0.4906  0.1836 -0.0908
18666TIP3    H177413   0.573   5.309  14.511 -1.6737  0.7418  0.5279
18666TIP3    H277414   0.668   5.299  14.628  1.3051 -0.3932 -1.8355
18667TIP3   OH277415   3.804   2.407   4.454 -0.3929 -0.4463 -0.1386
18667TIP3    H177416   3.816   2.467   4.528  0.8233 -0.6540 -0.1344
18667TIP3    H277417   3.883   2.420   4.401 -0.9729 -0.7375 -1.0904
18668TIP3   OH277418   1.525   5.772  12.344  0.2424 -0.3472 -0.5403
18668TIP3    H177419   1.586   5.705  12.376 -1.1725 -1.7130 -0.5594
18668TIP3    H277420   1.580   5.847  12.322  1.7566 -1.0705  0.6352
18669TIP3   OH277421   3.139   2.870   2.458  0.0419 -0.0356  0.3498
18669TIP3    H177422   3.070   2.810   2.485  1.5547 -0.6967  3.1435
18669TIP3    H277423   3.097   2.956   2.459 -1.1949 -0.6112  0.0865
18670TIP3   OH277424   0.262   1.345   5.202 -0.1079 -0.4629 -0.1444
18670TIP3    H177425   0.178   1.300   5.212  0.1925 -1.0257 -0.0861
18670TIP3    H277426   0.255   1.391   5.119 -0.5685 -0.2933 -0.0172
18671TIP3   OH277427   1.355   6.593  13.157  0.2542 -0.0440 -0.0590
18671TIP3    H177428   1.300   6.631  13.090 -0.1384 -0.7744 -0.1635
18671TIP3    H277429   1.401   6.667  13.196 -0.1930  0.4782 -0.5174
18672TIP3   OH277430   2.737   1.366  12.418 -0.4834 -0.1412  0.5417
18672TIP3    H177431   2.785   1.326  12.346  3.6534  0.1627  2.8373
18672TIP3    H277432   2.660   1.310  12.429 -0.3592 -1.1927 -2.9064
18673TIP3   OH277433   2.976   2.083   0.850  0.6277 -0.6148 -0.3363
18673TIP3    H177434   3.017   2.037   0.923  1.6572  0.7827  0.0098
18673TIP3    H277435   2.886   2.050   0.848  0.6241 -0.7907  1.4535
18674TIP3   OH277436   0.893   0.988   3.742 -0.3463 -0.0073  0.0793
18674TIP3    H177437   0.808   0.951   3.721 -0.8881  0.6340  1.0735
18674TIP3    H277438   0.934   1.003   3.657 -0.9007 -1.0356 -0.3889
18675TIP3   OH277439   3.501   5.911   0.624  0.5027  0.2287  0.5489
18675TIP3    H177440   3.581   5.964   0.621  1.2360 -0.8632  0.1905
18675TIP3    H277441   3.454   5.943   0.701  1.0373  1.2181  0.4850
18676TIP3   OH277442   0.573   3.903  11.003  0.2208  0.2741  0.5032
18676TIP3    H177443   0.507   3.971  10.986  1.3338  1.2642 -0.0044
18676TIP3    H277444   0.573   3.849  10.924 -0.2330  0.0490  0.6548
18677TIP3   OH277445   2.541   2.770  13.157 -0.0762 -0.4496 -0.1848
18677TIP3    H177446   2.623   2.809  13.127 -0.9110  2.5054  1.0143
18677TIP3    H277447   2.568   2.710  13.227  1.1568 -0.6614 -0.8105
18678TIP3   OH277448   0.005   5.933  13.733 -0.1233 -0.3823 -0.5046
18678TIP3    H177449  -0.059   5.868  13.701 -1.8054  1.4693 -1.1052
18678TIP3    H277450   0.013   5.996  13.661 -0.7434  1.6042  1.0950
18679TIP3   OH277451   2.777   2.071  12.826 -0.3795 -0.2606 -0.1942
18679TIP3    H177452   2.777   2.113  12.912 -0.5827 -0.2989 -0.1747
18679TIP3    H277453   2.689   2.034  12.817  0.2086 -1.8500  0.3531
18680TIP3   OH277454   2.837   6.579   2.516  0.7828 -0.0387  0.0704
18680TIP3    H177455   2.872   6.523   2.447  1.2532 -0.0568  0.3232
18680TIP3    H277456   2.749   6.544   2.533  1.5694 -1.6079  1.2145
18681TIP3   OH277457   6.153   2.741  13.862 -0.4481  0.4532 -0.6090
18681TIP3    H177458   6.194   2.733  13.776 -2.0874 -0.1873 -1.3829
18681TIP3    H277459   6.184   2.664  13.910 -0.9038 -0.1566 -1.2674
18682TIP3   OH277460   2.932   3.199   1.584 -0.1280 -0.3212 -0.3963
18682TIP3    H177461   2.998   3.262   1.554 -0.5370  1.2674  1.8137
18682TIP3    H277462   2.867   3.197   1.513  1.1775 -0.2813 -1.6519
18683TIP3   OH277463   1.110   5.233  11.561  0.0633  0.0377 -0.6751
18683TIP3    H177464   1.086   5.326  11.555  2.5354  0.6801 -1.7470
18683TIP3    H277465   1.201   5.233  11.588  0.1952 -2.0888 -0.9607
18684TIP3   OH277466   5.925   3.882   0.715  0.4829  0.4231  0.3659
18684TIP3    H177467   5.844   3.832   0.707  0.8256 -0.3259  1.3477
18684TIP3    H277468   5.909   3.961   0.664 -0.7343  0.1364  0.2583
18685TIP3   OH277469   1.989   6.243   4.561  0.0136 -0.0763 -0.3569
18685TIP3    H177470   1.931   6.298   4.507  2.3919 -0.2539 -3.3162
18685TIP3    H277471   1.951   6.156   4.555 -1.3636  0.3957  0.7846
18686TIP3   OH277472   3.060   5.350   3.743 -0.1306  0.5620 -0.0637
18686TIP3    H177473   3.027   5.269   3.704 -0.3251  0.6847 -0.1543
18686TIP3    H277474   3.151   5.330   3.767  0.3339  0.7711 -1.5054
18687TIP3   OH277475   4.037   2.913  13.016  0.5729  0.0733 -0.7954
18687TIP3    H177476   3.963   2.972  12.999 -1.4774 -1.7316  1.2613
18687TIP3    H277477   4.013   2.831  12.973  1.8569 -0.2732 -0.8918
18688TIP3   OH277478   0.838   2.739   4.411 -0.5898 -0.6228 -0.0990
18688TIP3    H177479   0.928   2.760   4.437 -0.2671 -0.8126 -0.9951
18688TIP3    H277480   0.783   2.784   4.474  0.1262  0.3173 -0.1172
18689TIP3   OH277481   1.449   4.320   4.037 -0.0501 -0.1682  0.3705
18689TIP3    H177482   1.448   4.269   3.957 -1.1619 -0.1358  0.3435
18689TIP3    H277483   1.378   4.384   4.026  1.3495  1.4609  0.3578
18690TIP3   OH277484   2.421   1.662  10.613  0.6390  0.2983  0.4883
18690TIP3    H177485   2.461   1.679  10.528  0.1167 -0.8182 -0.0075
18690TIP3    H277486   2.371   1.581  10.600 -0.2976  0.6748  1.5752
18691TIP3   OH277487   5.097   4.580  13.340  0.2283  0.4191 -0.5905
18691TIP3    H177488   5.178   4.605  13.296  0.0114 -0.2211 -1.3820
18691TIP3    H277489   5.123   4.562  13.430  1.4394 -2.0873 -1.3659
18692TIP3   OH277490   3.134   3.612   2.569 -0.3218  0.2220 -0.5848
18692TIP3    H177491   3.119   3.682   2.506 -0.4414 -0.3495 -1.1972
18692TIP3    H277492   3.116   3.532   2.521 -0.0646 -0.2407  0.0751
18693TIP3   OH277493   3.323   5.342   2.662 -0.1379 -0.0716 -0.4254
18693TIP3    H177494   3.276   5.382   2.588  0.0377  0.0802 -0.4556
18693TIP3    H277495   3.373   5.414   2.700  0.0911 -0.2394 -0.4094
18694TIP3   OH277496   5.752   0.416   0.387  0.0592 -0.0735  0.7147
18694TIP3    H177497   5.793   0.403   0.301  1.1563  0.3602  1.1496
18694TIP3    H277498   5.774   0.337   0.436  1.7807  0.8168  1.4643
18695TIP3   OH277499   3.266   2.098   1.964 -0.1101 -0.5647  0.3067
18695TIP3    H177500   3.351   2.057   1.947  0.6779  0.7508  0.8523
18695TIP3    H277501   3.272   2.127   2.056  0.1746  2.4411 -0.5551
18696TIP3   OH277502   6.170   1.598   2.253  0.5128  0.2428 -0.7520
18696TIP3    H177503   6.200   1.517   2.212 -1.1263  1.7710 -5.5866
18696TIP3    H277504   6.083   1.576   2.288  1.7131 -0.9439  1.7563
18697TIP3   OH277505   6.366   1.628   1.278 -0.2311 -0.5889  0.0206
18697TIP3    H177506   6.422   1.674   1.341 -0.6806 -1.4363  1.0836
18697TIP3    H277507   6.421   1.561   1.240 -0.3737 -1.0906  0.6861
18698TIP3   OH277508   5.644   1.175   2.640  0.2274 -0.3683  0.2678
18698TIP3    H177509   5.692   1.242   2.687 -0.1855 -1.9532  3.1558
18698TIP3    H277510   5.709   1.107   2.622 -0.0343 -0.6408  0.3464
18699TIP3   OH277511   2.735   3.926   3.364  0.4210 -0.0609  0.1708
18699TIP3    H177512   2.781   3.974   3.294 -0.4038 -0.1759 -0.4717
18699TIP3    H277513   2.786   3.945   3.443  0.6694  1.0944 -0.2349
18700TIP3   OH277514   6.339   5.283   4.725 -0.1697  0.0472  0.1532
18700TIP3    H177515   6.348   5.214   4.660  0.0710  0.0137  0.2236
18700TIP3    H277516   6.372   5.245   4.806 -0.4566  0.0937  0.2938
18701TIP3   OH277517   4.499   5.168   2.409  0.4830  0.1347 -0.0224
18701TIP3    H177518   4.475   5.261   2.411  1.5673  0.4205  1.8273
18701TIP3    H277519   4.454   5.130   2.485  0.0455 -0.8701 -0.7629
18702TIP3   OH277520   5.273   3.344   4.282 -0.1923  0.2051  0.0976
18702TIP3    H177521   5.252   3.407   4.213  0.7666 -0.0864 -0.4774
18702TIP3    H277522   5.281   3.397   4.361  0.5253  0.8186 -0.3661
18703TIP3   OH277523   6.630   4.768  13.346 -0.3416 -0.7671 -0.0425
18703TIP3    H177524   6.709   4.783  13.294 -0.2062 -1.1278  0.0523
18703TIP3    H277525   6.569   4.835  13.317  0.4262  0.3161  0.7764
18704TIP3   OH277526   4.195   1.956  14.101  0.1191  0.6574 -0.0670
18704TIP3    H177527   4.221   1.866  14.081  1.5108  1.2897 -1.3502
18704TIP3    H277528   4.112   1.967  14.056  0.8554  0.5501 -1.5263
18705TIP3   OH277529   2.154   1.542   1.793  0.6834  0.9470  0.0236
18705TIP3    H177530   2.093   1.548   1.866  0.0030 -0.9049 -0.3368
18705TIP3    H277531   2.225   1.601   1.816  1.0119 -0.3572  2.7043
18706TIP3   OH277532   6.358   2.084   4.198 -0.2447  0.3098  0.2676
18706TIP3    H177533   6.373   2.163   4.249  0.0619  1.0380 -0.9177
18706TIP3    H277534   6.444   2.040   4.197 -0.2552  0.2862  0.3843
18707TIP3   OH277535   0.081   3.976   4.840 -0.0119  0.4747  0.0068
18707TIP3    H177536   0.132   3.906   4.800 -1.3416  0.1013 -1.1084
18707TIP3    H277537   0.040   3.936   4.917 -0.3904  0.1505 -0.3613
18708TIP3   OH277538   5.734   1.355  14.998  0.0087 -0.0512 -0.4186
18708TIP3    H177539   5.662   1.296  14.978 -2.4546  2.6623 -0.1632
18708TIP3    H277540   5.778   1.368  14.914  0.1471 -1.5970 -0.6149
18709TIP3   OH277541   0.150   5.301   5.267  0.5857  0.1394  0.1398
18709TIP3    H177542   0.152   5.395   5.253 -0.5592 -0.0557 -1.7125
18709TIP3    H277543   0.070   5.285   5.317 -0.4863 -0.0054 -1.5321
18710TIP3   OH277544   4.522   2.242  12.576 -0.1878 -0.0695  0.0296
18710TIP3    H177545   4.518   2.166  12.518  0.8015 -0.2477  0.1745
18710TIP3    H277546   4.595   2.223  12.634  1.0553  1.6564 -0.8952
18711TIP3   OH277547   6.662   2.169  10.733  0.2357 -0.2336  1.0774
18711TIP3    H177548   6.691   2.214  10.654  0.9872 -0.0216  1.4613
18711TIP3    H277549   6.645   2.240  10.796 -1.8782 -0.2985  0.6446
18712TIP3   OH277550   3.784   5.143   2.495 -0.0578  0.5904 -0.2196
18712TIP3    H177551   3.724   5.180   2.560 -0.9109  3.1957 -2.2943
18712TIP3    H277552   3.850   5.211   2.482 -1.2424  1.3083 -3.6360
18713TIP3   OH277553   4.087   0.710  14.103 -0.6080 -0.0929  0.2913
18713TIP3    H177554   4.130   0.648  14.044 -0.0016  0.4673  0.1264
18713TIP3    H277555   4.029   0.761  14.047 -0.7637 -0.2007  0.3519
18714TIP3   OH277556   2.567   3.521   4.274 -0.1480 -0.1116  0.3627
18714TIP3    H177557   2.652   3.491   4.305 -0.3147 -1.3255 -0.2901
18714TIP3    H277558   2.507   3.501   4.347 -0.4114 -2.2827 -0.3659
18715TIP3   OH277559   1.301   1.470   0.952 -0.0954  0.1757 -0.4574
18715TIP3    H177560   1.337   1.382   0.942  1.1028  0.5829  0.0453
18715TIP3    H277561   1.328   1.517   0.873  1.5060  0.7999  0.4178
18716TIP3   OH277562   1.801   0.345   4.111  0.2069 -0.5824 -0.4576
18716TIP3    H177563   1.744   0.326   4.186  0.7798  1.2911  0.5111
18716TIP3    H277564   1.803   0.263   4.061 -1.8206 -1.2651  0.4740
18717TIP3   OH277565   6.431   6.693  16.864  0.1228  0.0382  0.3332
18717TIP3    H177566   6.357   6.632  16.854  1.0928 -1.2655  0.7887
18717TIP3    H277567   6.485   6.678  16.786  0.3609  0.3428  0.4393
18718TIP3   OH277568   5.353   1.886  13.246  0.2090  0.0112 -0.6588
18718TIP3    H177569   5.300   1.949  13.294  1.1473  1.3813 -1.3447
18718TIP3    H277570   5.341   1.911  13.154 -1.6147 -2.5984 -1.2357
18719TIP3   OH277571   1.336   3.391  13.163 -0.0389 -0.2283  0.2549
18719TIP3    H177572   1.260   3.367  13.111  1.3848 -1.9942 -1.1641
18719TIP3    H277573   1.333   3.334  13.239 -0.0382 -0.4371  0.0987
18720TIP3   OH277574   1.351   2.095   3.634  0.0672 -0.2625 -0.2727
18720TIP3    H177575   1.281   2.150   3.668 -0.4113 -0.5307 -0.8242
18720TIP3    H277576   1.359   2.024   3.697 -0.5476 -0.5415 -0.5084
18721TIP3   OH277577   2.414   6.646   4.373 -0.4584 -0.1075  0.1682
18721TIP3    H177578   2.447   6.556   4.372 -2.3458 -0.8440  0.3220
18721TIP3    H277579   2.467   6.692   4.308  0.0644 -1.5020 -0.4293
18722TIP3   OH277580   4.312   0.188  12.227  0.2501  0.2645  0.3314
18722TIP3    H177581   4.269   0.273  12.237 -0.7037 -0.1004 -0.5517
18722TIP3    H277582   4.335   0.183  12.135 -0.8983 -0.9763  0.0892
18723TIP3   OH277583   3.657   4.260   0.019  0.1691  0.1933 -0.0546
18723TIP3    H177584   3.693   4.226  -0.063 -0.6590 -1.4312  0.2082
18723TIP3    H277585   3.596   4.192   0.049  0.6554  0.6102  2.0584
18724TIP3   OH277586   3.647   5.576  13.051 -0.0597  0.4085  0.2664
18724TIP3    H177587   3.671   5.529  13.131  0.2898  1.3200  0.7192
18724TIP3    H277588   3.714   5.644  13.043  0.2789 -0.0779 -1.1699
18725TIP3   OH277589   1.130   0.215  13.013  0.0468  0.2276 -0.0321
18725TIP3    H177590   1.138   0.280  12.944 -1.2442  1.8314  1.2299
18725TIP3    H277591   1.220   0.195  13.038  0.4839  1.6238 -0.3992
18726TIP3   OH277592   4.038   1.087  12.265 -0.0952  0.2238 -0.3469
18726TIP3    H177593   4.018   1.069  12.356  0.4847  0.9042 -0.0796
18726TIP3    H277594   4.133   1.096  12.262 -0.1561  0.7679 -0.9137
18727TIP3   OH277595   0.918   6.724   5.913 -0.2648  0.6371 -0.2178
18727TIP3    H177596   0.958   6.679   5.987  0.2350 -0.1986 -0.9636
18727TIP3    H277597   0.955   6.812   5.914 -0.1217  0.5708  0.4095
18728TIP3   OH277598   0.650   6.053  16.918 -0.0439  0.4349 -0.3699
18728TIP3    H177599   0.743   6.034  16.903 -0.0478 -0.0510  0.1773
18728TIP3    H277600   0.605   5.971  16.895 -0.3509  0.7093 -0.7604
18729TIP3   OH277601   4.721   5.259   0.200  0.3083  0.0592 -0.6603
18729TIP3    H177602   4.750   5.169   0.187 -0.5657 -0.5885  1.5077
18729TIP3    H277603   4.626   5.255   0.184 -0.0245  0.1804  1.0944
18730TIP3   OH277604   1.327   3.291   4.959  0.3772 -0.1416 -0.1315
18730TIP3    H177605   1.297   3.382   4.949 -1.3925 -0.5345  0.9372
18730TIP3    H277606   1.286   3.262   5.041  1.5986 -1.6533 -0.0069
18731TIP3   OH277607   4.406   2.796  11.031  0.0435  0.0677  0.9652
18731TIP3    H177608   4.473   2.822  11.094 -0.2966  0.0689  1.3293
18731TIP3    H277609   4.383   2.876  10.985  1.1907 -0.1464 -0.0497
18732TIP3   OH277610   6.097   4.772  12.033 -0.0442 -0.0712 -0.1932
18732TIP3    H177611   6.046   4.850  12.008 -0.4845  0.1890  1.3965
18732TIP3    H277612   6.150   4.801  12.107  0.9896 -0.8854 -0.5824
18733TIP3   OH277613   2.704   3.418   2.696 -0.3450 -0.1748 -0.1772
18733TIP3    H177614   2.711   3.476   2.620  0.0618  0.8261  0.5895
18733TIP3    H277615   2.786   3.432   2.744 -0.1238 -1.6136 -0.1133
18734TIP3   OH277616   0.267   3.015   5.294  0.0612  0.1009 -0.4193
18734TIP3    H177617   0.208   3.070   5.242  0.2974  0.3584 -0.4179
18734TIP3    H277618   0.332   3.076   5.329  0.2815 -0.1688 -0.3549
18735TIP3   OH277619   3.567   3.001  15.610 -0.2883  0.1035 -0.3887
18735TIP3    H177620   3.513   2.922  15.611 -0.5908  0.3054  0.2162
18735TIP3    H277621   3.657   2.969  15.598 -0.3330 -0.3879  0.4732
18736TIP3   OH277622   6.646   0.669   2.081 -0.8075 -0.2574  0.6532
18736TIP3    H177623   6.630   0.742   2.022 -0.7620 -0.5484  0.2729
18736TIP3    H277624   6.636   0.705   2.169 -2.9503 -0.2859  0.4634
18737TIP3   OH277625   2.129   5.149  14.915  0.2235 -0.2814  0.5858
18737TIP3    H177626   2.079   5.073  14.943 -0.2117 -0.4235 -0.4976
18737TIP3    H277627   2.132   5.141  14.819 -0.3761  1.3750  0.3922
18738TIP3   OH277628   6.185   2.539  12.485  0.4872 -0.2317 -0.3793
18738TIP3    H177629   6.190   2.584  12.569  1.4610  1.7143 -1.4093
18738TIP3    H277630   6.106   2.575  12.444 -0.6663 -2.0634  0.1391
18739TIP3   OH277631   5.372   1.776  17.056  0.6599 -0.0855 -0.1853
18739TIP3    H177632   5.330   1.806  17.137  0.2028  0.7831 -0.7215
18739TIP3    H277633   5.465   1.793  17.070  0.6946 -0.7415  0.4786
18740TIP3   OH277634   1.348   3.675   3.202 -0.3242 -0.1391  0.6267
18740TIP3    H177635   1.297   3.752   3.176  1.3002  1.1960  1.1562
18740TIP3    H277636   1.417   3.670   3.136 -0.4025 -1.1605  0.6138
18741TIP3   OH277637   3.990   4.596  10.651 -0.3572 -0.4137  0.0114
18741TIP3    H177638   3.938   4.627  10.577  0.5024  1.6395  0.1847
18741TIP3    H277639   4.080   4.597  10.618 -0.0976 -0.7019  0.7095
18742TIP3   OH277640   1.398   5.979   2.883  0.4665 -0.0264  0.5077
18742TIP3    H177641   1.314   6.014   2.854  1.1161  1.4330  0.2829
18742TIP3    H277642   1.462   6.020   2.824  1.4730  0.1327  1.6721
18743TIP3   OH277643   3.932   1.747  14.045 -0.1766 -0.2096  0.5608
18743TIP3    H177644   3.948   1.785  14.132 -0.2990  0.1700  0.4231
18743TIP3    H277645   3.864   1.803  14.007  0.3703  0.0468 -0.0519
18744TIP3   OH277646   5.698   4.370   4.353 -0.2720  0.3062 -0.2202
18744TIP3    H177647   5.617   4.340   4.395 -1.2144  0.8410 -1.5710
18744TIP3    H277648   5.706   4.462   4.379 -0.5414  0.4736 -0.7066
18745TIP3   OH277649   4.244   5.159  14.060  0.1299 -0.0467  0.4106
18745TIP3    H177650   4.283   5.100  14.124  0.2214  0.2475  0.6282
18745TIP3    H277651   4.316   5.215  14.031 -0.2463  0.9577  1.3209
18746TIP3   OH277652   2.690   0.091   2.751 -0.4142  0.2109 -0.3340
18746TIP3    H177653   2.786   0.091   2.751 -0.3615  2.0177 -1.9260
18746TIP3    H277654   2.667   0.104   2.843  0.8974  0.4860 -0.0182
18747TIP3   OH277655   6.019   5.322   0.656  0.2092  0.3779 -0.0972
18747TIP3    H177656   6.059   5.246   0.697 -0.7134  0.4931  1.0691
18747TIP3    H277657   5.928   5.295   0.639 -0.1998  1.2783  0.5637
18748TIP3   OH277658   5.644   5.113   4.583  0.2198  0.1781 -0.0621
18748TIP3    H177659   5.690   5.196   4.574  0.4948  0.0838  0.4729
18748TIP3    H277660   5.555   5.132   4.553 -0.6816  1.5350  3.1316
18749TIP3   OH277661   2.154   3.694  16.720 -0.2050  0.3183 -0.2223
18749TIP3    H177662   2.127   3.606  16.743 -0.8517  0.7644  0.7550
18749TIP3    H277663   2.163   3.740  16.803  2.7221  0.4700 -0.5100
18750TIP3   OH277664   2.002   5.664   3.979 -0.5876 -0.1732  0.0892
18750TIP3    H177665   1.966   5.576   3.965  0.2150 -0.4603 -0.1733
18750TIP3    H277666   2.095   5.650   3.996 -0.3134  0.6739 -0.6295
18751TIP3   OH277667   6.796   2.296  15.067  0.1475 -0.2706  0.5876
18751TIP3    H177668   6.826   2.327  15.152 -0.9357  2.3764  0.1040
18751TIP3    H277669   6.783   2.202  15.078  0.9312 -0.1404  3.0431
18752TIP3   OH277670   2.175   2.568  15.274 -0.1784 -0.1276 -0.0733
18752TIP3    H177671   2.228   2.508  15.327 -0.7058  0.4997  1.2156
18752TIP3    H277672   2.122   2.510  15.219  0.9988 -0.7809 -0.5753
18753TIP3   OH277673   4.642   2.285   2.916  0.4447 -0.7437 -0.6321
18753TIP3    H177674   4.570   2.242   2.871  0.3945 -0.1427 -1.1384
18753TIP3    H277675   4.704   2.215   2.934 -0.3359 -1.3056 -0.0241
18754TIP3   OH277676   5.939   1.464  13.542 -0.2188 -0.0446  0.5333
18754TIP3    H177677   5.984   1.385  13.571 -0.0316  0.0117  0.3990
18754TIP3    H277678   5.913   1.446  13.452  3.3567  1.4784 -0.9785
18755TIP3   OH277679   2.678   6.361  15.626 -0.5964  0.5003 -0.8463
18755TIP3    H177680   2.710   6.445  15.593  2.4106  0.0993  0.6845
18755TIP3    H277681   2.703   6.298  15.559  0.8687  0.3424 -0.1782
18756TIP3   OH277682   0.206   1.455  15.925 -0.1026  0.0523 -0.0746
18756TIP3    H177683   0.113   1.478  15.924 -0.0603  0.2476 -1.0395
18756TIP3    H277684   0.209   1.367  15.962 -0.8485 -0.5956 -1.4672
18757TIP3   OH277685   5.925   4.140   0.612  0.0119 -0.0452  0.3990
18757TIP3    H177686   5.977   4.112   0.536 -1.4877  1.5544 -1.3150
18757TIP3    H277687   5.976   4.211   0.651  0.1928 -0.0084  0.1002
18758TIP3   OH277688   6.429   2.252   0.234 -0.1537  0.6445  1.0889
18758TIP3    H177689   6.499   2.296   0.283  0.8953  0.3691 -0.1160
18758TIP3    H277690   6.469   2.171   0.203 -0.9424  0.5789  0.2063
18759TIP3   OH277691   5.729   2.961  13.174  0.5910  0.2192 -0.1989
18759TIP3    H177692   5.742   2.902  13.100  0.2025 -0.4910  0.2866
18759TIP3    H277693   5.638   2.991  13.165 -0.8036 -2.8161  1.9998
18760TIP3   OH277694   4.368   6.797   6.013  0.0018 -0.6989 -0.2165
18760TIP3    H177695   4.304   6.856   5.973 -2.6943 -2.9582  0.4602
18760TIP3    H277696   4.383   6.833   6.100  0.7998  0.6130 -0.8691
18761TIP3   OH277697   6.407   6.059   1.530 -0.2851  0.2849 -0.3367
18761TIP3    H177698   6.385   5.980   1.480 -3.3209  0.1190  1.0695
18761TIP3    H277699   6.326   6.082   1.576  0.6275  3.9588 -0.2798
18762TIP3   OH277700   0.501   1.028  13.051 -0.0701  0.5236  0.0530
18762TIP3    H177701   0.440   0.953  13.049 -0.9097  1.1992 -0.1493
18762TIP3    H277702   0.582   0.992  13.088 -1.0466 -0.0769  1.7176
18763TIP3   OH277703   0.242   5.317  16.805  0.4234  0.1200  0.3050
18763TIP3    H177704   0.194   5.313  16.722 -0.6679  0.5456  0.8940
18763TIP3    H277705   0.201   5.248  16.858 -0.8077  1.6615  1.4464
18764TIP3   OH277706   0.348   4.291  13.796 -0.0997 -0.8741  0.1146
18764TIP3    H177707   0.376   4.377  13.764  1.8748 -1.8565 -1.0336
18764TIP3    H277708   0.299   4.310  13.876  2.4051  1.2321  1.3316
18765TIP3   OH277709   5.758   3.182  12.339 -0.1630  0.3044  0.4110
18765TIP3    H177710   5.668   3.165  12.314 -0.1999  0.6904  0.2618
18765TIP3    H277711   5.765   3.278  12.336 -0.1027  0.3459  1.6551
18766TIP3   OH277712   3.914   4.895  14.318  0.2674  0.5814  0.6699
18766TIP3    H177713   3.893   4.859  14.404 -0.2755  0.9210  0.6835
18766TIP3    H277714   3.942   4.984  14.335 -0.0054  0.7069  0.4851
18767TIP3   OH277715   5.301   2.162  12.800 -0.1843  0.1092 -0.3803
18767TIP3    H177716   5.364   2.137  12.732 -0.0828 -2.9851  0.6493
18767TIP3    H277717   5.224   2.192  12.753  0.5770 -0.0944 -1.8099
18768TIP3   OH277718   5.917   5.844  15.102  0.1398 -0.3673 -0.0022
18768TIP3    H177719   5.980   5.818  15.035  0.4193 -0.6198  0.3555
18768TIP3    H277720   5.839   5.791  15.084 -0.1273  0.2536 -0.7032
18769TIP3   OH277721   1.427   4.752  16.194  0.6605 -0.3646  0.0300
18769TIP3    H177722   1.510   4.755  16.243  0.8147  1.4414 -0.2879
18769TIP3    H277723   1.430   4.828  16.137 -2.0140  0.8402  1.3241
18770TIP3   OH277724   1.386   1.277  16.902 -0.1643 -0.4267 -0.4174
18770TIP3    H177725   1.302   1.322  16.914  0.0706 -0.1589  0.2659
18770TIP3    H277726   1.411   1.297  16.812  0.6666  2.1134  0.3012
18771TIP3   OH277727   0.018   6.293  15.619 -0.1448  0.3190  0.4822
18771TIP3    H177728  -0.032   6.270  15.541 -1.8931  1.4258  1.2319
18771TIP3    H277729   0.105   6.256  15.603 -0.2961  0.9590 -2.2089
18772TIP3   OH277730   4.980   2.958   3.110 -0.2595 -0.2505 -0.6711
18772TIP3    H177731   4.925   3.004   3.173 -1.6855 -0.9038 -1.4105
18772TIP3    H277732   5.069   2.971   3.143 -0.6573  2.4029 -0.4543
18773TIP3   OH277733   6.631   4.101  13.505  0.2304 -0.3681  0.8170
18773TIP3    H177734   6.606   4.055  13.585 -0.7863  1.1215  1.4044
18773TIP3    H277735   6.687   4.172  13.535  2.6621 -1.7464 -0.1826
18774TIP3   OH277736   1.673   5.442  15.576  0.1308  0.4081 -0.3530
18774TIP3    H177737   1.735   5.515  15.586 -1.2085  1.2523  4.4445
18774TIP3    H277738   1.725   5.364  15.596  0.3875  0.7483  0.3643
18775TIP3   OH277739   1.005   4.454   5.788  0.2028  0.0648 -0.5296
18775TIP3    H177740   0.996   4.371   5.741 -0.1859 -0.2020 -0.0004
18775TIP3    H277741   0.987   4.521   5.722 -3.3107 -0.3518 -0.2275
18776TIP3   OH277742   0.226   1.412   2.995  0.1992 -0.1285  0.4269
18776TIP3    H177743   0.208   1.346   2.928 -0.8904  0.6663 -0.0852
18776TIP3    H277744   0.141   1.452   3.013  0.6797  0.4624  1.4446
18777TIP3   OH277745   2.228   3.055   2.630 -0.0457  0.0397 -0.3458
18777TIP3    H177746   2.289   3.073   2.558  0.6206  2.0154  0.6498
18777TIP3    H277747   2.207   2.962   2.621  3.7480 -0.9584 -0.2640
18778TIP3   OH277748   4.638   0.203  11.097  0.2136 -0.9587 -0.0041
18778TIP3    H177749   4.634   0.290  11.058 -1.4753 -1.7357 -1.7149
18778TIP3    H277750   4.695   0.214  11.174 -0.1936  1.6988  0.0197
18779TIP3   OH277751   6.657   3.627   1.684  0.4326  0.2999  0.1987
18779TIP3    H177752   6.571   3.632   1.725  0.0914 -1.6705 -0.2025
18779TIP3    H277753   6.707   3.567   1.740  1.4654  1.1870  0.2581
18780TIP3   OH277754   4.174   6.171  15.110  0.4601  0.0886  0.8061
18780TIP3    H177755   4.103   6.134  15.163 -0.1989  0.0871 -0.0535
18780TIP3    H277756   4.244   6.106  15.116  0.6428  0.3730  2.1593
18781TIP3   OH277757   0.373   6.626   3.260 -0.2120  0.2907  0.3016
18781TIP3    H177758   0.430   6.570   3.206 -0.0100 -0.3820  1.1795
18781TIP3    H277759   0.395   6.602   3.350 -0.8177  1.1142  0.6822
18782TIP3   OH277760   6.506   4.380  13.208  0.1906 -0.1400  0.3428
18782TIP3    H177761   6.453   4.387  13.287 -0.5011  0.3817 -0.1525
18782TIP3    H277762   6.544   4.292  13.212 -1.5083 -0.9211  0.2343
18783TIP3   OH277763   5.791   4.095  13.206 -0.4626 -0.5549 -0.6530
18783TIP3    H177764   5.739   4.053  13.138 -0.9612 -1.1765  0.1014
18783TIP3    H277765   5.728   4.124  13.271  0.0025  0.1302 -0.4893
18784TIP3   OH277766   2.729   4.966   2.796 -0.1524  0.6221  0.8304
18784TIP3    H177767   2.718   5.042   2.854  2.5841  0.6493  1.4330
18784TIP3    H277768   2.776   5.001   2.721  1.8990 -0.5809  1.4926
18785TIP3   OH277769   5.910   1.929   5.785 -0.1965 -0.2448  0.0942
18785TIP3    H177770   5.962   2.002   5.818 -0.4620 -0.4967  1.1288
18785TIP3    H277771   5.968   1.853   5.795  0.3904 -0.0827 -1.7678
18786TIP3   OH277772   4.341   1.706  14.701  0.0873 -0.3790  0.2081
18786TIP3    H177773   4.352   1.759  14.781 -0.3707 -0.7925  0.5562
18786TIP3    H277774   4.316   1.770  14.634 -2.2133 -0.3278  1.0195
18787TIP3   OH277775   1.559   4.612  10.640  0.3881 -0.3015  0.2250
18787TIP3    H177776   1.613   4.533  10.643 -1.0700 -1.2981  1.4410
18787TIP3    H277777   1.621   4.684  10.655  1.7448 -1.1687 -0.9333
18788TIP3   OH277778   0.905   3.158   0.277 -0.2932 -0.1068 -0.2295
18788TIP3    H177779   0.869   3.075   0.309 -2.5925  0.4906 -1.0526
18788TIP3    H277780   0.963   3.188   0.347 -0.5322 -1.6995  0.6968
18789TIP3   OH277781   5.601   3.662   0.104  0.3905  0.3254  0.3568
18789TIP3    H177782   5.668   3.731   0.098  1.8696 -1.1024 -0.6198
18789TIP3    H277783   5.643   3.593   0.155  0.2845 -1.2295 -1.5520
18790TIP3   OH277784   5.901   5.483   3.523 -0.0772  0.1142  0.1952
18790TIP3    H177785   5.840   5.463   3.594 -0.0242 -1.2537 -0.1042
18790TIP3    H277786   5.852   5.462   3.443  0.2601  0.5129 -0.1165
18791TIP3   OH277787   3.964   2.470  15.292 -0.6965  0.3928 -0.1840
18791TIP3    H177788   3.889   2.529  15.294 -1.2393 -0.2793 -0.3409
18791TIP3    H277789   4.029   2.512  15.348 -1.2653  0.8901  0.1117
18792TIP3   OH277790   4.948   5.702  16.853 -0.4701  0.1163  0.9669
18792TIP3    H177791   4.916   5.782  16.811 -0.0810  0.2443  0.9058
18792TIP3    H277792   5.024   5.676  16.801 -1.0517 -0.7346  0.5184
18793TIP3   OH277793   2.473   6.190  14.131 -0.4539 -0.2014  0.0070
18793TIP3    H177794   2.546   6.129  14.118 -1.1887 -0.7524 -1.8752
18793TIP3    H277795   2.510   6.276  14.113  0.5894  0.0290  2.6734
18794TIP3   OH277796   3.189   6.359   3.053  0.4141  0.6113 -0.1388
18794TIP3    H177797   3.107   6.358   3.103  0.2248  2.1114 -0.3899
18794TIP3    H277798   3.171   6.414   2.978  1.7699  1.2645 -0.0078
18795TIP3   OH277799   3.485   3.071   5.938 -0.0077  0.0012  0.2938
18795TIP3    H177800   3.451   3.003   5.996  0.7251  0.2728  1.0635
18795TIP3    H277801   3.550   3.026   5.883 -0.5713 -0.2188 -0.1969
18796TIP3   OH277802   4.869   6.498   6.024 -0.4536 -0.3409  0.0167
18796TIP3    H177803   4.808   6.496   5.950 -0.0138  0.6177 -0.3857
18796TIP3    H277804   4.954   6.477   5.987 -0.4500 -1.2153  0.4983
18797TIP3   OH277805   0.363   0.361  15.226  0.5620 -0.3426 -0.7302
18797TIP3    H177806   0.341   0.364  15.133  1.5513  0.6028 -0.9467
18797TIP3    H277807   0.439   0.418  15.235 -0.0130  0.2509  0.8030
18798TIP3   OH277808   4.519   2.025  11.989  0.0575  0.0799  0.0194
18798TIP3    H177809   4.517   2.032  12.085 -0.3532 -1.5441  0.1631
18798TIP3    H277810   4.431   2.051  11.961  1.1706  4.0574 -0.2853
18799TIP3   OH277811   1.045   0.185   1.117  0.4359 -0.2019 -0.2390
18799TIP3    H177812   1.015   0.144   1.036  0.0763 -0.9265  0.2401
18799TIP3    H277813   1.131   0.147   1.134  0.2813 -0.4592 -0.0110
18800TIP3   OH277814   5.028   4.133  12.148 -0.0281 -0.5132 -0.0422
18800TIP3    H177815   5.099   4.187  12.180  0.1506 -0.8649  0.1605
18800TIP3    H277816   5.071   4.058  12.107 -0.2846 -0.9695  0.5106
18801TIP3   OH277817   0.904   1.928  14.094 -0.2610 -0.3117 -0.4445
18801TIP3    H177818   0.889   1.955  14.004 -1.0137 -1.0063 -0.5365
18801TIP3    H277819   0.818   1.930  14.135 -0.0154 -0.5707  0.0967
18802TIP3   OH277820   0.974   5.245  13.576  0.2696  0.0683  0.5130
18802TIP3    H177821   0.880   5.249  13.557  0.3111 -0.4590  0.1727
18802TIP3    H277822   1.008   5.329  13.548  0.1641 -0.3281 -0.8929
18803TIP3   OH277823   2.141   3.424   2.947 -0.2613  0.1539 -0.0954
18803TIP3    H177824   2.149   3.468   3.031 -0.4032 -0.1864  0.0967
18803TIP3    H277825   2.048   3.406   2.938 -0.0951 -0.8936  0.2307
18804TIP3   OH277826   6.000   0.917  15.880 -0.0866 -0.6175 -1.0494
18804TIP3    H177827   5.913   0.917  15.921  0.2171  1.8377 -0.2490
18804TIP3    H277828   6.034   0.829  15.897 -2.3990 -1.6565 -1.4208
18805TIP3   OH277829   3.297   1.921   1.601  0.5761 -0.3350  0.1542
18805TIP3    H177830   3.262   1.832   1.598 -1.2132  0.3237 -0.0138
18805TIP3    H277831   3.367   1.921   1.536 -1.5726 -0.8052 -2.3394
18806TIP3   OH277832   4.522   5.118   0.739  0.7696 -0.0635 -0.3681
18806TIP3    H177833   4.601   5.065   0.726  0.9589  0.2152 -0.3584
18806TIP3    H277834   4.554   5.206   0.757  0.4392  0.3353 -1.6203
18807TIP3   OH277835   4.808   2.954  15.482 -0.0449  0.0403 -0.2236
18807TIP3    H177836   4.716   2.964  15.458 -0.2730  0.4465  0.7806
18807TIP3    H277837   4.806   2.928  15.574  0.8652  1.7076  0.3127
18808TIP3   OH277838   4.399   1.799   5.519 -0.1136 -0.1128 -0.6303
18808TIP3    H177839   4.312   1.840   5.516 -0.3171 -0.5047 -0.0257
18808TIP3    H277840   4.459   1.870   5.494 -0.0925  1.6003  3.4972
18809TIP3   OH277841   6.496   6.039   1.109  0.4051 -0.7674  0.4606
18809TIP3    H177842   6.480   6.124   1.068 -0.7065 -1.6471 -1.0528
18809TIP3    H277843   6.589   6.039   1.132  0.8981  0.0974 -1.3890
18810TIP3   OH277844   3.616   0.720  13.616 -0.0408  0.3767 -0.3169
18810TIP3    H177845   3.679   0.726  13.544 -1.6814 -0.2352 -1.8944
18810TIP3    H277846   3.622   0.629  13.645  0.8631  0.7062  0.6146
18811TIP3   OH277847   6.068   5.208   1.547 -0.1618 -0.9467 -0.1573
18811TIP3    H177848   6.074   5.165   1.633  1.6801  0.8360  0.6797
18811TIP3    H277849   5.983   5.252   1.548  0.0642 -0.4984  0.9975
18812TIP3   OH277850   6.405   4.310  13.488 -0.4282  0.2530 -0.3922
18812TIP3    H177851   6.460   4.236  13.460 -0.1491  1.0982 -2.2082
18812TIP3    H277852   6.383   4.290  13.579 -1.1264 -2.5213 -1.0765
18813TIP3   OH277853   1.744   6.781   5.105  0.2186 -0.3216  0.3349
18813TIP3    H177854   1.705   6.805   5.189  0.6346  0.5766  0.2905
18813TIP3    H277855   1.677   6.729   5.061  0.2223 -1.3062  1.4517
18814TIP3   OH277856   5.272   1.496   1.771 -0.5056  0.7636 -0.1037
18814TIP3    H177857   5.341   1.436   1.801 -0.0378  0.8439 -0.9872
18814TIP3    H277858   5.224   1.519   1.851 -0.6155 -0.6857  0.2738
18815TIP3   OH277859   5.167   6.282  13.068 -0.6231  0.1236  0.4094
18815TIP3    H177860   5.160   6.376  13.051 -0.5667  0.2003  0.7846
18815TIP3    H277861   5.222   6.249  12.997 -2.0615  0.0646 -0.7167
18816TIP3   OH277862   2.722   4.681   5.417  0.3176 -0.2142  0.5713
18816TIP3    H177863   2.815   4.663   5.399  0.0312 -0.8945 -0.2777
18816TIP3    H277864   2.722   4.719   5.504  1.7824  3.1175 -0.6897
18817TIP3   OH277865   0.117   5.509  15.769  0.4498 -0.4648 -0.6079
18817TIP3    H177866   0.181   5.556  15.823  0.4561 -1.3504  0.1823
18817TIP3    H277867   0.063   5.578  15.731  0.0221  0.1935  1.0784
18818TIP3   OH277868   3.449   2.080  15.641  0.3026 -0.2218  0.2793
18818TIP3    H177869   3.482   1.995  15.610 -2.3675 -0.6839 -1.6664
18818TIP3    H277870   3.368   2.058  15.688 -0.6868  1.2353 -0.6625
18819TIP3   OH277871   0.321   1.546  15.183 -0.3408 -0.0929 -0.5320
18819TIP3    H177872   0.370   1.475  15.225 -0.3140  1.1332  1.6444
18819TIP3    H277873   0.384   1.587  15.124  0.1933 -0.6936 -0.3961
18820TIP3   OH277874   5.314   3.910  12.772 -0.5644 -0.2631 -0.0396
18820TIP3    H177875   5.249   3.951  12.715 -0.0715 -1.1340 -1.2646
18820TIP3    H277876   5.278   3.823  12.790  0.1962 -0.7238 -0.6637
18821TIP3   OH277877   1.270   2.333  13.403 -0.1644 -0.0948 -0.2968
18821TIP3    H177878   1.339   2.270  13.383  0.2261  0.8175 -1.9914
18821TIP3    H277879   1.265   2.334  13.499  0.3940 -2.0451 -0.2164
18822TIP3   OH277880   3.882   4.504   5.800  0.2082  0.1296  0.9783
18822TIP3    H177881   3.849   4.569   5.863 -0.5598 -0.8146  1.5730
18822TIP3    H277882   3.977   4.517   5.800  0.1539  0.6203  1.7911
18823TIP3   OH277883   0.997   3.609  12.559  0.3254 -0.3306  0.6307
18823TIP3    H177884   0.977   3.548  12.630  1.4672 -1.5709 -0.0573
18823TIP3    H277885   1.001   3.554  12.480  2.1089  0.4842  0.0937
18824TIP3   OH277886   2.223   4.846  13.153 -0.1694 -0.1669  0.0361
18824TIP3    H177887   2.134   4.861  13.121 -0.8029 -1.4025  1.1070
18824TIP3    H277888   2.276   4.836  13.074 -1.0323  0.3258 -0.6159
18825TIP3   OH277889   6.705   5.779   4.014  0.9175 -0.7590  0.3422
18825TIP3    H177890   6.614   5.810   4.008  0.6245 -1.0064  2.6880
18825TIP3    H277891   6.755   5.859   4.031  0.8847 -0.8421  0.8499
18826TIP3   OH277892   0.440   0.509   1.801 -0.3554  0.1726  0.1191
18826TIP3    H177893   0.375   0.577   1.820 -0.6571  0.1077 -0.6081
18826TIP3    H277894   0.388   0.429   1.793 -0.2536  0.1940 -0.9022
18827TIP3   OH277895   3.708   3.220   0.813  0.5002  0.3679  0.5553
18827TIP3    H177896   3.755   3.179   0.885  0.0461 -0.0098  0.6418
18827TIP3    H277897   3.682   3.146   0.757 -1.3138  0.3920  1.2919
18828TIP3   OH277898   5.047   4.379  17.051  0.2281 -0.2463 -0.2005
18828TIP3    H177899   5.008   4.453  17.004  1.6666  0.3928 -0.4267
18828TIP3    H277900   5.033   4.399  17.144 -0.6408 -0.4084 -0.2881
18829TIP3   OH277901   3.425   5.062  11.440  0.2619  0.0171  0.0255
18829TIP3    H177902   3.410   4.980  11.488 -1.9340 -0.3464 -1.1386
18829TIP3    H277903   3.472   5.118  11.501  0.9901 -1.7759  1.1813
18830TIP3   OH277904   5.575   5.680   3.619  0.1247  0.2438 -0.3644
18830TIP3    H177905   5.624   5.716   3.692  1.5294 -1.4244 -0.4194
18830TIP3    H277906   5.534   5.756   3.577  1.3401  1.5054  0.6545
18831TIP3   OH277907   1.711   2.796   0.520  0.2431 -0.0417 -0.2072
18831TIP3    H177908   1.737   2.713   0.558  2.2818  0.1849 -0.9798
18831TIP3    H277909   1.715   2.782   0.425 -0.4163  0.6454 -0.3532
18832TIP3   OH277910   1.961   3.886   1.650  0.2376 -0.0527 -0.0298
18832TIP3    H177911   1.932   3.967   1.691  1.1529 -0.4442  1.4922
18832TIP3    H277912   2.052   3.902   1.625  0.4697 -0.6331  0.4083
18833TIP3   OH277913   6.615   2.867   4.757  0.2405 -0.2725 -0.8878
18833TIP3    H177914   6.553   2.797   4.775 -0.1796  0.3199  0.0109
18833TIP3    H277915   6.653   2.844   4.672  0.3687 -1.7727 -0.4511
18834TIP3   OH277916   6.135   6.223  14.743  0.0579  0.3310 -0.3009
18834TIP3    H177917   6.088   6.296  14.782  1.5782  1.9327 -1.3134
18834TIP3    H277918   6.085   6.200  14.666 -1.2387 -0.7530  0.8090
18835TIP3   OH277919   5.547   4.111   2.309 -0.2227  0.1527 -1.0303
18835TIP3    H177920   5.567   4.181   2.247  0.9085  1.1367  0.3722
18835TIP3    H277921   5.626   4.104   2.363 -0.7730 -1.3918 -0.3719
18836TIP3   OH277922   1.846   0.778  14.601 -0.6023  0.1782  0.3365
18836TIP3    H177923   1.854   0.838  14.527 -0.7812  1.2106  1.1270
18836TIP3    H277924   1.757   0.743  14.594 -0.6832  0.4130  0.1541
18837TIP3   OH277925   5.567   5.944   4.673 -0.3659 -0.0353 -0.0752
18837TIP3    H177926   5.594   5.886   4.744 -0.8941 -1.0863 -0.7189
18837TIP3    H277927   5.486   5.984   4.705 -1.4223 -1.6315 -0.6484
18838TIP3   OH277928   5.261   4.102  10.594 -0.2549  0.7016 -0.7258
18838TIP3    H177929   5.341   4.112  10.644  0.7169 -0.9604 -1.8423
18838TIP3    H277930   5.200   4.058  10.654  0.5279 -0.2897 -0.6356
18839TIP3   OH277931   1.193   5.298  13.339  1.0731 -0.1208 -0.2327
18839TIP3    H177932   1.132   5.239  13.295 -1.9418  1.1577  1.8881
18839TIP3    H277933   1.201   5.264  13.428 -0.5835  2.3549  0.9850
18840TIP3   OH277934   2.905   4.940  10.714 -0.4701  0.1428  0.5446
18840TIP3    H177935   2.874   4.900  10.633  1.3435 -1.5201  0.5867
18840TIP3    H277936   2.868   4.885  10.784 -1.3306  1.0537  0.8220
18841TIP3   OH277937   0.657   2.165   2.172 -0.6199  0.2127 -0.4445
18841TIP3    H177938   0.721   2.236   2.181  3.3076 -2.8025 -1.6112
18841TIP3    H277939   0.648   2.154   2.077 -0.3234 -1.4021 -0.3105
18842TIP3   OH277940   4.004   6.219   5.243  0.6445  0.1816  0.3637
18842TIP3    H177941   4.058   6.142   5.227 -0.1033 -0.3056  0.1160
18842TIP3    H277942   4.056   6.273   5.303  1.3182 -0.3564  0.2756
18843TIP3   OH277943   1.806   3.566  11.646 -0.6283 -0.0832 -0.3906
18843TIP3    H177944   1.849   3.652  11.649  0.8841 -0.6909 -2.3421
18843TIP3    H277945   1.814   3.532  11.734 -0.1526  1.2757  0.1266
18844TIP3   OH277946   0.921   4.205   5.654 -0.3425  0.3266  0.2551
18844TIP3    H177947   0.931   4.132   5.716 -0.5383 -0.8277 -1.0307
18844TIP3    H277948   0.964   4.175   5.574 -0.3869  1.6589 -0.2926
18845TIP3   OH277949   5.961   4.615   2.385 -0.1025  0.4379 -0.1142
18845TIP3    H177950   5.970   4.593   2.478 -2.0520  5.3402  1.5853
18845TIP3    H277951   6.051   4.619   2.353  0.6283 -1.3638  1.4950
18846TIP3   OH277952   3.908   6.092  13.735 -0.4175 -0.3847  0.1447
18846TIP3    H177953   3.855   6.170  13.723 -0.3089 -0.1476  1.1762
18846TIP3    H277954   3.986   6.122  13.781  0.1320 -0.9168 -0.4161
18847TIP3   OH277955   0.585   1.600  16.842  0.0596 -0.5668  0.0313
18847TIP3    H177956   0.508   1.657  16.839  1.6314  1.7703  1.4188
18847TIP3    H277957   0.609   1.597  16.935  0.8566 -2.4029 -0.1905
18848TIP3   OH277958   1.146   5.933   1.303 -0.2122 -0.3998  0.7316
18848TIP3    H177959   1.222   5.910   1.356  1.5364 -0.3554 -1.6160
18848TIP3    H277960   1.105   5.849   1.281  0.6860 -0.6212 -0.1233
18849TIP3   OH277961   5.189   5.779   5.393  0.0976  0.0806  0.1268
18849TIP3    H177962   5.251   5.804   5.462  0.9337 -0.8498 -0.2558
18849TIP3    H277963   5.162   5.690   5.417  2.5357 -1.4453 -2.1067
18850TIP3   OH277964   0.629   6.316   4.675 -0.1597  0.4263  0.0020
18850TIP3    H177965   0.588   6.246   4.624  0.3679  0.4445 -0.4589
18850TIP3    H277966   0.651   6.275   4.759  2.0850 -0.6065 -0.9993
18851TIP3   OH277967   2.251   6.494  15.959  0.4453  0.3610  0.3339
18851TIP3    H177968   2.172   6.505  15.906 -0.5479 -0.0386  1.6824
18851TIP3    H277969   2.220   6.495  16.049  2.2127  2.0456  0.9954
18852TIP3   OH277970   6.472   5.344  11.449 -0.3936 -0.5210  0.1814
18852TIP3    H177971   6.442   5.253  11.453  0.1193 -0.7098 -0.1747
18852TIP3    H277972   6.510   5.353  11.362  0.8126 -0.3670  0.7024
18853TIP3   OH277973   0.931   6.027  16.851 -0.2660 -0.7665 -0.3389
18853TIP3    H177974   0.933   6.123  16.851 -0.1317 -0.7424  1.6812
18853TIP3    H277975   1.014   6.001  16.811  1.2171  0.0126  2.0639
18854TIP3   OH277976   3.959   5.561  12.133  0.0934  0.0112 -0.1394
18854TIP3    H177977   3.923   5.511  12.206  1.4135  0.3274  0.7539
18854TIP3    H277978   3.958   5.652  12.163 -3.6435  0.9001 -2.2734
18855TIP3   OH277979   4.583   2.630   2.199  0.3212 -0.2828  0.1890
18855TIP3    H177980   4.668   2.590   2.181 -0.0073 -1.8035  1.7269
18855TIP3    H277981   4.524   2.589   2.135  0.4324 -0.5349  0.2455
18856TIP3   OH277982   0.910   5.005   3.053 -0.0317 -0.5011 -0.1704
18856TIP3    H177983   0.962   4.924   3.053 -0.9290 -1.0983 -1.0417
18856TIP3    H277984   0.920   5.040   3.142  0.4857 -1.4887  0.1759
18857TIP3   OH277985   6.605   6.770  15.390 -0.2467 -0.4059 -0.3323
18857TIP3    H177986   6.576   6.709  15.458 -0.5793  0.1521  0.0337
18857TIP3    H277987   6.553   6.849  15.404  1.1314  0.4666  0.0676
18858TIP3   OH277988   5.343   2.206  15.271  0.1788 -0.3014 -0.2110
18858TIP3    H177989   5.356   2.181  15.362 -0.8654 -0.2329 -0.0286
18858TIP3    H277990   5.295   2.132  15.232 -2.6825  1.1439  0.2609
18859TIP3   OH277991   0.947   5.671   3.580 -0.3609  0.6788  0.3800
18859TIP3    H177992   0.989   5.586   3.570 -2.1184 -0.0683 -0.9848
18859TIP3    H277993   0.895   5.663   3.660 -3.6802 -1.0199 -1.7561
18860TIP3   OH277994   5.168   4.691  12.016  0.6301 -0.0713  0.3387
18860TIP3    H177995   5.259   4.693  11.987  0.0201 -0.3485 -1.7603
18860TIP3    H277996   5.120   4.651  11.944 -0.8931 -1.9675  2.2830
18861TIP3   OH277997   3.536   3.955  15.613 -0.0936  0.0300  0.1471
18861TIP3    H177998   3.589   3.987  15.686 -0.7128  0.5753  0.3675
18861TIP3    H277999   3.539   3.860  15.621  2.7079 -0.0942 -1.1667
18862TIP3   OH278000   4.352   0.677  15.792  0.0889 -0.1958  0.4802
18862TIP3    H178001   4.349   0.675  15.696 -0.8474  0.1688  0.4949
18862TIP3    H278002   4.411   0.605  15.815 -0.4336 -0.9039 -0.3327
18863TIP3   OH278003   2.898   6.657   1.394  0.6891 -0.0394 -0.6361
18863TIP3    H178004   2.903   6.585   1.331  0.9711 -0.6479  0.0761
18863TIP3    H278005   2.970   6.641   1.455 -0.3503 -0.1819  0.5888
18864TIP3   OH278006   5.738   3.721   4.808  0.7527  0.0328 -0.1334
18864TIP3    H178007   5.760   3.753   4.721 -0.8133  0.0689 -0.5466
18864TIP3    H278008   5.694   3.638   4.793  1.2524 -0.3861  0.6833
18865TIP3   OH278009   3.576   6.714  15.796  0.3727  0.2255 -0.0421
18865TIP3    H178010   3.546   6.697  15.886 -2.6913  3.4048 -0.2575
18865TIP3    H278011   3.629   6.794  15.803 -2.5228  2.4144 -1.2690
18866TIP3   OH278012   0.439   1.148   2.210 -0.0698 -0.2773 -0.2368
18866TIP3    H178013   0.477   1.166   2.124 -1.4498  2.5277 -0.3586
18866TIP3    H278014   0.352   1.115   2.192 -1.1032  2.1390 -0.0039
18867TIP3   OH278015   4.535   3.338   1.604 -0.4297  0.6115  0.2490
18867TIP3    H178016   4.455   3.387   1.623 -0.7971  0.0757  0.1267
18867TIP3    H278017   4.537   3.269   1.669 -0.3323  0.3216 -0.0579
18868TIP3   OH278018   6.638   5.511  10.939 -0.0971  0.0132 -0.6976
18868TIP3    H178019   6.607   5.600  10.960  1.8669  0.7010 -0.4433
18868TIP3    H278020   6.614   5.498  10.848 -2.4243 -0.1398 -0.1316
18869TIP3   OH278021   2.193   0.586   2.256 -0.2566 -0.0469 -0.5587
18869TIP3    H178022   2.190   0.492   2.274 -1.1192 -0.0994 -0.9243
18869TIP3    H278023   2.194   0.626   2.343 -1.8293 -0.3648 -0.3525
18870TIP3   OH278024   4.156   5.500   0.927  0.4756 -0.1560  0.6334
18870TIP3    H178025   4.210   5.457   0.994  0.6320 -1.1418 -0.1049
18870TIP3    H278026   4.099   5.431   0.894  0.1584  0.4084 -0.0169
18871TIP3   OH278027   4.392   2.958  14.659 -0.2887  0.1679 -0.4610
18871TIP3    H178028   4.447   3.025  14.619  0.2162  0.7677  1.1577
18871TIP3    H278029   4.440   2.932  14.738 -1.7483 -0.1772  0.3495
18872TIP3   OH278030   3.464   4.109  13.097 -0.3528 -0.2668  0.4778
18872TIP3    H178031   3.451   4.193  13.054  0.4807 -0.6259 -0.5000
18872TIP3    H278032   3.495   4.050  13.028  1.0779 -0.8409  1.5532
18873TIP3   OH278033   5.077   4.440   5.825  0.3706 -0.2949  0.4211
18873TIP3    H178034   5.114   4.478   5.745 -1.0228  2.4179  0.9364
18873TIP3    H278035   5.002   4.388   5.795 -0.2918  0.9069 -0.0735
18874TIP3   OH278036   1.726   2.097  14.531  0.0801 -0.2212 -0.1476
18874TIP3    H178037   1.646   2.133  14.494  0.0112 -1.9726 -1.8596
18874TIP3    H278038   1.705   2.005  14.548  1.0716 -0.1825  1.4706
18875TIP3   OH278039   1.539   0.719  15.639  0.2932 -0.0652  0.0277
18875TIP3    H178040   1.497   0.803  15.620 -1.1840 -0.7070  0.3109
18875TIP3    H278041   1.569   0.688  15.554 -1.7729 -0.5716 -0.5774
18876TIP3   OH278042   4.358   5.561   5.286  0.1785 -0.7858  0.1502
18876TIP3    H178043   4.438   5.580   5.334 -0.4394 -1.5739  1.5894
18876TIP3    H278044   4.351   5.465   5.288 -0.8023 -0.7315  0.0947
18877TIP3   OH278045   4.648   6.340   1.737  0.3282 -0.2442 -0.2253
18877TIP3    H178046   4.669   6.266   1.681 -0.1050 -0.4238 -0.1493
18877TIP3    H278047   4.668   6.417   1.684 -0.6610 -0.4026 -0.8544
18878TIP3   OH278048   6.129   2.862   2.509  0.0548  0.9467 -0.4761
18878TIP3    H178049   6.117   2.775   2.470  2.2854 -0.6953  2.1975
18878TIP3    H278050   6.201   2.900   2.460 -0.1524  0.8135 -0.8925
18879TIP3   OH278051   4.027   0.143   2.115  0.3206 -0.1157 -0.0922
18879TIP3    H178052   4.106   0.169   2.068  1.4936 -1.2406  1.1309
18879TIP3    H278053   3.987   0.075   2.060  0.4425  0.1549 -0.5148
18880TIP3   OH278054   1.961   4.063  12.526  0.0369  0.1953  0.0639
18880TIP3    H178055   1.873   4.041  12.494  0.2204  0.1001 -0.3741
18880TIP3    H278056   2.004   4.106  12.452  1.1004 -1.6887 -0.4583
18881TIP3   OH278057   0.981   6.034   4.847  0.6284 -0.6151  0.2137
18881TIP3    H178058   0.985   6.113   4.792  0.8554 -0.6110  0.2346
18881TIP3    H278059   1.072   6.014   4.866  0.5380 -0.4901  0.7706
18882TIP3   OH278060   0.091   0.726   2.627 -0.1219 -0.2261 -0.2315
18882TIP3    H178061   0.143   0.700   2.703  0.2386  2.1116  0.3900
18882TIP3    H278062   0.156   0.750   2.561 -0.4058 -3.3201 -1.7903
18883TIP3   OH278063   2.486   1.242   0.323  0.5622 -0.6238 -0.3704
18883TIP3    H178064   2.450   1.194   0.249  1.2319  1.0673 -1.8549
18883TIP3    H278065   2.486   1.334   0.296  2.5126 -0.1409  0.9771
18884TIP3   OH278066   1.404   3.850  15.092 -0.1636  0.0693 -0.6859
18884TIP3    H178067   1.490   3.892  15.103 -0.6601  0.9651 -0.1686
18884TIP3    H278068   1.394   3.796  15.170 -0.8740  1.4282  0.1962
18885TIP3   OH278069   4.457   6.578  13.845  0.8875 -0.1163 -0.2815
18885TIP3    H178070   4.431   6.652  13.901 -0.5252 -0.9181  0.1711
18885TIP3    H278071   4.470   6.618  13.759  1.3195  0.8507  0.2154
18886TIP3   OH278072   6.237   4.962   5.830 -0.2619 -0.3115 -0.1128
18886TIP3    H178073   6.197   5.021   5.895  1.1647  1.2182 -0.5452
18886TIP3    H278074   6.229   5.009   5.747  2.1186 -0.0355 -0.2576
18887TIP3   OH278075   0.532   2.552   0.013  0.1749 -0.1038  0.1064
18887TIP3    H178076   0.596   2.596  -0.043 -0.4620 -1.6902 -1.9970
18887TIP3    H278077   0.517   2.468  -0.030 -3.3489  0.2198  0.4737
18888TIP3   OH278078   0.158   3.373   1.579 -0.0804 -0.6581  0.1052
18888TIP3    H178079   0.105   3.338   1.650 -0.6661 -0.5490 -0.2718
18888TIP3    H278080   0.129   3.325   1.501  2.1774 -2.4644  0.2835
18889TIP3   OH278081   0.257   5.671  15.950 -0.4030  0.5883 -0.3267
18889TIP3    H178082   0.265   5.764  15.970 -0.1085 -0.1659  4.0862
18889TIP3    H278083   0.177   5.644  15.996 -0.2173 -1.4382 -1.0979
18890TIP3   OH278084   1.440   1.129   0.328 -0.4885 -0.0368 -0.0118
18890TIP3    H178085   1.432   1.182   0.408  0.1031  0.1783 -0.0840
18890TIP3    H278086   1.377   1.059   0.339 -1.1072  0.5416  0.2098
18891TIP3   OH278087   0.270   2.036   1.921  0.4974 -0.0877  0.0593
18891TIP3    H178088   0.311   2.112   1.879  1.7738 -0.5024  0.5076
18891TIP3    H278089   0.211   2.001   1.854  1.8723 -0.2471 -1.1248
18892TIP3   OH278090   0.869   3.947  10.721  0.3020 -0.2208  0.0066
18892TIP3    H178091   0.790   3.994  10.697 -0.8707 -2.6052 -1.1333
18892TIP3    H278092   0.940   4.008  10.701 -1.1782  1.7990  0.6163
18893TIP3   OH278093   2.813   2.015  14.182  0.1727 -0.2488  0.7302
18893TIP3    H178094   2.820   2.045  14.091  0.6996 -1.6745  0.2746
18893TIP3    H278095   2.857   2.084  14.233 -0.1610  0.5856 -0.0748
18894TIP3   OH278096   3.961   4.311   4.364 -0.3303  1.0010  0.0004
18894TIP3    H178097   3.949   4.226   4.322 -0.2698  1.0371 -0.0912
18894TIP3    H278098   3.949   4.374   4.293 -1.1926  1.1057  0.2219
18895TIP3   OH278099   3.657   4.313   2.610  0.5365 -0.0742  0.5405
18895TIP3    H178100   3.708   4.383   2.569  0.4280  0.2575  0.9641
18895TIP3    H278101   3.569   4.324   2.575  0.7635 -0.7131 -0.2745
18896TIP3   OH278102   5.246   5.904   3.708  0.1329  0.0833 -0.7941
18896TIP3    H178103   5.219   5.813   3.701  1.1496 -0.3834  0.8925
18896TIP3    H278104   5.312   5.915   3.639  0.1492 -0.5067 -0.8789
18897TIP3   OH278105   6.703   4.915   1.974  0.3771 -0.0114 -0.2036
18897TIP3    H178106   6.611   4.888   1.973  0.4806 -0.5995  1.5864
18897TIP3    H278107   6.717   4.948   2.063  1.5492  1.4343 -0.8701
18898TIP3   OH278108   1.183   2.202   0.246 -0.0985  0.2895 -1.0784
18898TIP3    H178109   1.116   2.198   0.177  0.0321 -0.0991 -1.1844
18898TIP3    H278110   1.151   2.143   0.314  0.5331 -0.5425 -1.4860
18899TIP3   OH278111   1.225   4.312   1.167 -0.1682 -0.6572  0.3275
18899TIP3    H178112   1.154   4.272   1.116  0.1205 -0.7086 -0.0401
18899TIP3    H278113   1.301   4.257   1.147  0.0402 -0.4225  0.4858
18900TIP3   OH278114   6.072   4.966  11.688  0.4493 -0.3423  0.0541
18900TIP3    H178115   6.053   4.984  11.781  0.6681  1.4362 -0.2161
18900TIP3    H278116   6.125   5.040  11.660  3.3297 -2.5352 -0.6507
18901TIP3   OH278117   1.667   3.187   6.365  0.0462  0.0371 -0.0768
18901TIP3    H178118   1.762   3.201   6.369  0.1186 -0.3884 -0.2866
18901TIP3    H278119   1.654   3.101   6.405 -0.5579  1.2848  2.6454
18902TIP3   OH278120   1.089   5.504   5.180 -0.1734  0.5322 -0.2067
18902TIP3    H178121   1.155   5.469   5.121  0.1690  0.6985  0.0774
18902TIP3    H278122   1.014   5.522   5.124  0.6288  2.0042 -0.8490
18903TIP3   OH278123   5.741   6.652  12.292 -0.4402 -0.3321  0.3165
18903TIP3    H178124   5.781   6.633  12.376 -1.1966 -1.4924  0.4336
18903TIP3    H278125   5.815   6.667  12.233  0.1235  2.5817  1.5787
18904TIP3   OH278126   1.648   3.357   2.073 -0.2984  0.0018  0.0527
18904TIP3    H178127   1.646   3.270   2.035  0.6881 -1.4183  2.9548
18904TIP3    H278128   1.740   3.385   2.066  0.4116 -1.1921  2.9522
18905TIP3   OH278129   5.615   6.278   1.909 -0.6043 -0.4259  0.1959
18905TIP3    H178130   5.703   6.311   1.890 -0.6190  0.4902  1.5656
18905TIP3    H278131   5.620   6.185   1.888  0.0857 -0.0247 -1.6801
18906TIP3   OH278132   4.673   5.573  12.875 -0.1412 -0.1788  0.7498
18906TIP3    H178133   4.685   5.664  12.851 -0.3216 -0.8601 -2.3339
18906TIP3    H278134   4.718   5.563  12.959 -0.1582  2.6994  1.1790
18907TIP3   OH278135   2.803   2.562  17.017  0.0514 -0.2366 -0.2883
18907TIP3    H178136   2.801   2.467  17.004 -0.2403 -0.4887  1.3598
18907TIP3    H278137   2.868   2.575  17.086 -0.6168  0.6564  0.2004
18908TIP3   OH278138   3.273   0.794   3.514  0.2947 -0.2120 -0.5564
18908TIP3    H178139   3.330   0.867   3.534  2.5049 -1.9425 -0.1469
18908TIP3    H278140   3.319   0.745   3.446  0.8325 -3.2415  1.7686
18909TIP3   OH278141   1.412   2.837  10.878 -0.4357 -0.0168 -0.7178
18909TIP3    H178142   1.482   2.827  10.814  0.6050  0.1769  0.3548
18909TIP3    H278143   1.406   2.751  10.920 -0.3041  0.1803 -0.2867
18910TIP3   OH278144   3.773   3.214  14.491 -0.6107 -0.1820  0.1794
18910TIP3    H178145   3.683   3.186  14.506 -1.2158  0.3847 -2.0428
18910TIP3    H278146   3.826   3.135  14.502 -1.4419 -0.6666  0.7948
18911TIP3   OH278147   5.676   1.738  13.897 -0.0267  0.0198 -0.0323
18911TIP3    H178148   5.581   1.742  13.884 -0.1693 -0.8177  0.6208
18911TIP3    H278149   5.710   1.817  13.855 -1.0579  0.5587  0.1156
18912TIP3   OH278150   1.040   4.619   3.440  0.4737 -0.2607 -0.4608
18912TIP3    H178151   0.970   4.650   3.382  1.0555  1.1090 -0.4823
18912TIP3    H278152   1.018   4.656   3.525  0.0268 -1.6420  0.0326
18913TIP3   OH278153   2.827   1.048  12.558 -0.4558 -0.9919  0.4825
18913TIP3    H178154   2.822   1.038  12.463 -1.0053 -1.8098  0.5793
18913TIP3    H278155   2.778   1.128  12.577 -1.0768 -1.2871  0.1470
18914TIP3   OH278156   5.836   4.520  17.185  0.0285  0.3252  0.4465
18914TIP3    H178157   5.925   4.504  17.219  0.1228  1.3200  0.6819
18914TIP3    H278158   5.788   4.554  17.260 -0.6271 -0.4164  0.3754
18915TIP3   OH278159   3.895   0.425  15.651 -0.1005  0.2721 -0.7008
18915TIP3    H178160   3.831   0.353  15.649 -2.5394  2.3211 -1.6302
18915TIP3    H278161   3.910   0.440  15.745  2.2288 -2.7653 -0.4251
18916TIP3   OH278162   0.747   6.395   4.974 -0.1256  0.1076  0.0077
18916TIP3    H178163   0.779   6.480   5.004  2.5586 -1.0540  0.7402
18916TIP3    H278164   0.815   6.362   4.915 -1.6347 -1.0806 -1.1670
18917TIP3   OH278165   2.459   2.702  12.197  0.3383 -0.1385  0.3487
18917TIP3    H178166   2.423   2.633  12.141  0.3124 -0.6392  0.9851
18917TIP3    H278167   2.390   2.768  12.201  0.6361  0.2842 -0.8569
18918TIP3   OH278168   3.293   0.098   0.004  0.0167  0.5860  0.1313
18918TIP3    H178169   3.235   0.093   0.079 -1.9757  0.2975 -1.3499
18918TIP3    H278170   3.380   0.080   0.039 -0.9778 -0.5139  2.1793
18919TIP3   OH278171   6.523   2.630  12.740 -0.3631 -0.6153  0.0859
18919TIP3    H178172   6.562   2.626  12.828  1.6962 -2.1698 -0.8145
18919TIP3    H278173   6.499   2.539  12.721  0.3687 -0.5190 -1.4182
18920TIP3   OH278174   4.877   1.271   3.716  0.1000 -0.5414 -0.0455
18920TIP3    H178175   4.838   1.184   3.727 -1.1112 -0.1329 -0.9040
18920TIP3    H278176   4.955   1.269   3.771  0.7375 -2.5696 -0.8973
18921TIP3   OH278177   4.321   4.690  15.135 -0.3393 -0.0785 -1.0876
18921TIP3    H178178   4.282   4.754  15.194  1.7037  0.9602 -0.7649
18921TIP3    H278179   4.309   4.606  15.180  0.2611  0.5660  0.3607
18922TIP3   OH278180   4.929   2.824   4.836  0.5040  0.1933 -0.0555
18922TIP3    H178181   4.932   2.821   4.740  1.9602 -2.0942 -0.0351
18922TIP3    H278182   5.016   2.855   4.862  0.6533 -0.6331  0.4934
18923TIP3   OH278183   4.725   5.189  11.383  0.1344  0.1963 -0.1551
18923TIP3    H178184   4.749   5.096  11.380  1.3263  0.4839  0.1688
18923TIP3    H278185   4.756   5.218  11.469 -1.3180  0.6163  0.2511
18924TIP3   OH278186   6.084   6.683   0.287 -0.5478  0.3141  0.0643
18924TIP3    H178187   6.040   6.641   0.212  0.0067  2.0275 -1.2961
18924TIP3    H278188   6.107   6.610   0.345 -0.5212 -1.1479 -1.6837
18925TIP3   OH278189   0.663   5.381  11.620  0.0561 -0.0511 -0.2489
18925TIP3    H178190   0.595   5.314  11.632 -1.4665  1.6281  1.0810
18925TIP3    H278191   0.664   5.398  11.526 -0.5314 -0.9351 -0.4269
18926TIP3   OH278192   6.753   1.783  14.228  0.0027 -0.0734 -0.3210
18926TIP3    H178193   6.847   1.778  14.209  0.2863  2.6920  0.0451
18926TIP3    H278194   6.743   1.736  14.311  1.4013  1.1424  0.5708
18927TIP3   OH278195   6.409   5.693   1.094 -0.1044 -0.0283  0.0562
18927TIP3    H178196   6.454   5.622   1.139 -1.5045 -1.2916 -0.4303
18927TIP3    H278197   6.336   5.650   1.049  0.8652  1.1978 -2.9791
18928TIP3   OH278198   1.394   4.575   5.700 -0.1783 -0.3206  0.0464
18928TIP3    H178199   1.465   4.545   5.756 -1.1699 -0.0280  1.5289
18928TIP3    H278200   1.382   4.667   5.725  0.1155  0.1690 -1.5012
18929TIP3   OH278201   1.670   0.049  10.716 -0.2548  0.6048 -0.8410
18929TIP3    H178202   1.620  -0.010  10.773  0.3205  1.3812  0.5204
18929TIP3    H278203   1.721  -0.010  10.660 -0.3854 -0.1919 -0.1512
18930TIP3   OH278204   3.650   2.498  16.983 -0.2531 -0.1714  0.6097
18930TIP3    H178205   3.612   2.457  16.906  1.1704 -1.4147  0.5166
18930TIP3    H278206   3.681   2.584  16.953  0.2016 -0.6074 -0.1894
18931TIP3   OH278207   1.744   3.987  15.681 -0.3816  0.1164 -0.3219
18931TIP3    H178208   1.685   4.017  15.611 -1.6324 -1.9588 -0.2343
18931TIP3    H278209   1.733   4.052  15.750 -0.2169  1.4261 -1.4766
18932TIP3   OH278210   1.994   1.534   2.383  0.2372 -0.2216 -0.2855
18932TIP3    H178211   1.976   1.559   2.473  0.9332  0.1842 -0.2574
18932TIP3    H278212   2.000   1.617   2.335 -0.5689 -0.4420 -0.8007
18933TIP3   OH278213   0.157   6.168   2.472 -0.5681 -0.2723 -0.3861
18933TIP3    H178214   0.176   6.261   2.485 -1.5964 -0.1422  0.2815
18933TIP3    H278215   0.221   6.122   2.526 -0.3019  0.0586 -0.4208
18934TIP3   OH278216   2.201   6.539   2.551 -0.0652 -0.0435  0.0368
18934TIP3    H178217   2.139   6.524   2.480 -0.0071  0.4072 -0.1161
18934TIP3    H278218   2.172   6.622   2.590 -1.4348 -1.3286  1.9521
18935TIP3   OH278219   5.914   4.895   0.589  0.5627  0.0720  0.2157
18935TIP3    H178220   5.832   4.854   0.615  0.7673 -0.8846 -0.5607
18935TIP3    H278221   5.889   4.955   0.519  0.5317 -0.3452 -0.1391
18936TIP3   OH278222   4.981   2.395  15.157  0.0991  0.7963  0.5262
18936TIP3    H178223   4.963   2.306  15.188 -2.6440  1.6685  1.6733
18936TIP3    H278224   4.911   2.414  15.095  0.8553  2.0477  0.0168
18937TIP3   OH278225   3.721   2.505  12.432 -0.2978 -0.0731  0.2276
18937TIP3    H178226   3.689   2.426  12.388 -0.8419  0.2113  0.1139
18937TIP3    H278227   3.693   2.495  12.523 -1.9391  0.8127 -0.1449
18938TIP3   OH278228   1.010   1.524  11.787 -0.0636  0.2720  0.1688
18938TIP3    H178229   1.021   1.578  11.708 -1.7771  0.6309  0.1458
18938TIP3    H278230   0.923   1.485  11.777 -0.4914  0.6716  2.0798
18939TIP3   OH278231   5.747   5.309   1.560 -0.1716  0.6400  0.0002
18939TIP3    H178232   5.677   5.310   1.625 -1.9266  2.7620 -1.7283
18939TIP3    H278233   5.720   5.242   1.497  0.9396 -0.6146  0.8109
18940TIP3   OH278234   1.596   5.851   3.903 -0.4829  0.4218  0.3579
18940TIP3    H178235   1.520   5.844   3.960  0.3756  0.5260  1.5675
18940TIP3    H278236   1.631   5.762   3.898 -2.1744 -0.1864 -2.4126
18941TIP3   OH278237   5.164   5.233   1.062  0.6163  0.2346  0.3580
18941TIP3    H178238   5.230   5.165   1.071  1.4664  0.9298 -0.3648
18941TIP3    H278239   5.163   5.278   1.147  0.2843 -0.4532  0.7252
18942TIP3   OH278240   0.571   5.213   2.170 -0.0661 -0.0071  0.2523
18942TIP3    H178241   0.574   5.284   2.106  1.7144 -0.3936 -0.1652
18942TIP3    H278242   0.578   5.256   2.255 -1.1844  0.4293  0.1358
18943TIP3   OH278243   1.942   5.344  13.609  0.5558  0.5325 -0.1146
18943TIP3    H178244   1.940   5.302  13.695 -2.5526  0.5320 -0.0624
18943TIP3    H278245   1.937   5.438  13.629 -0.2148  0.5304 -0.2497
18944TIP3   OH278246   6.311   3.767  11.085 -0.0008  0.0651 -0.5834
18944TIP3    H178247   6.262   3.848  11.094  0.3801  0.4932 -2.0278
18944TIP3    H278248   6.312   3.729  11.173 -2.1337  0.4745 -0.3204
18945TIP3   OH278249   5.316   3.499  11.936 -0.9856 -0.3616 -0.6895
18945TIP3    H178250   5.347   3.572  11.882  0.1423 -0.3216 -0.0209
18945TIP3    H278251   5.244   3.535  11.986 -1.1293 -0.0052 -1.1399
18946TIP3   OH278252   0.632   2.464   1.448 -0.0804  0.1210 -0.1573
18946TIP3    H178253   0.721   2.437   1.472 -0.1959 -0.0311  0.1116
18946TIP3    H278254   0.624   2.553   1.482 -0.4210 -0.2829  0.8479
18947TIP3   OH278255   2.183   6.445  16.209  0.4423 -0.1997 -0.5747
18947TIP3    H178256   2.205   6.395  16.288  0.6813  0.6736 -0.0821
18947TIP3    H278257   2.103   6.491  16.230 -0.4138 -1.2235 -1.4293
18948TIP3   OH278258   4.659   2.897  12.563  0.0385  0.0271  0.6357
18948TIP3    H178259   4.594   2.856  12.619  0.2414 -0.0280  0.8309
18948TIP3    H278260   4.728   2.926  12.623  0.2663 -0.0536  0.4160
18949TIP3   OH278261   1.465   4.099   0.390  0.1254  0.3593  0.0976
18949TIP3    H178262   1.470   4.158   0.464 -0.1456 -1.1092  1.3301
18949TIP3    H278263   1.390   4.042   0.409 -1.3000  1.2727 -2.3200
18950TIP3   OH278264   3.496   1.830   2.790 -0.4069 -0.5101 -0.6479
18950TIP3    H178265   3.448   1.857   2.712  0.3083  2.9244 -0.0616
18950TIP3    H278266   3.588   1.834   2.765 -0.2051 -2.7186 -0.4977
18951TIP3   OH278267   4.497   1.221  14.630 -0.2215 -0.5387  0.3541
18951TIP3    H178268   4.481   1.216  14.536 -2.2552 -1.2495  0.6890
18951TIP3    H278269   4.448   1.299  14.658  1.1747  0.2425  0.7085
18952TIP3   OH278270   1.700   3.658   1.679  0.5344 -0.5767  0.4183
18952TIP3    H178271   1.625   3.679   1.623  0.8764  1.4156  0.6443
18952TIP3    H278272   1.663   3.650   1.767  0.3563 -1.3290  0.2847
18953TIP3   OH278273   4.556   2.256  11.829  0.6048  0.2073 -0.1824
18953TIP3    H178274   4.616   2.243  11.755  2.7634  2.2444  1.0686
18953TIP3    H278275   4.560   2.175  11.878  3.5083  0.7096  0.5779
18954TIP3   OH278276   6.702   5.276   4.867 -0.1855 -0.1866 -0.0576
18954TIP3    H178277   6.742   5.229   4.794  0.5593 -0.5472  0.5720
18954TIP3    H278278   6.626   5.222   4.890 -0.2052 -0.2741 -0.3163
18955TIP3   OH278279   4.458   3.099  11.639  0.2774 -0.6036  0.1170
18955TIP3    H178280   4.456   3.040  11.715  1.4099 -1.6197 -0.6176
18955TIP3    H278281   4.369   3.099  11.606 -0.2357 -0.1520  1.4333
18956TIP3   OH278282   0.723   1.094   2.921  0.0401 -1.1520 -0.4942
18956TIP3    H178283   0.813   1.104   2.952  0.5822 -3.1090 -1.2720
18956TIP3    H278284   0.705   1.175   2.874  0.1580  0.6986  2.4302
18957TIP3   OH278285   5.062   3.981  11.893  0.0902  0.0972  0.1464
18957TIP3    H178286   4.994   3.925  11.931  1.0535 -1.0028  0.3176
18957TIP3    H278287   5.017   4.030  11.825 -0.8063 -0.8824  0.0021
18958TIP3   OH278288   2.550   4.229   3.835  0.1133 -0.3751  0.1534
18958TIP3    H178289   2.479   4.271   3.885 -0.3764 -0.7956 -0.1844
18958TIP3    H278290   2.586   4.299   3.780  2.0362  0.6666  2.5220
18959TIP3   OH278291   1.130   4.321   0.808 -0.1070 -0.3381  0.2569
18959TIP3    H178292   1.150   4.267   0.731  1.3995 -0.6261  0.8337
18959TIP3    H278293   1.060   4.273   0.853  0.6731 -1.4433  0.3468
18960TIP3   OH278294   3.742   6.708  16.414  0.5947 -0.2239 -0.3267
18960TIP3    H178295   3.738   6.633  16.354 -0.0090 -0.5422  0.0966
18960TIP3    H278296   3.696   6.778  16.367 -2.0949 -1.1626  0.6865
18961TIP3   OH278297   2.677   3.683  13.605  0.1146 -0.3934 -0.7202
18961TIP3    H178298   2.622   3.644  13.673  1.2338 -3.1916 -1.2823
18961TIP3    H278299   2.716   3.608  13.560  0.2281  1.3590 -3.8144
18962TIP3   OH278300   1.435   1.155   5.267  0.1357 -0.0642 -0.3646
18962TIP3    H178301   1.498   1.190   5.331  2.1494 -0.8057 -1.8262
18962TIP3    H278302   1.440   1.217   5.194  0.7165 -1.1900 -1.3156
18963TIP3   OH278303   2.658   2.868  16.159  0.0760  0.5122 -0.1886
18963TIP3    H178304   2.688   2.959  16.165 -1.0441  0.8567  0.4081
18963TIP3    H278305   2.627   2.860  16.068  0.5252  0.6016 -0.3554
18964TIP3   OH278306   3.099   2.432   3.250  0.3593  0.3071 -0.1370
18964TIP3    H178307   3.192   2.449   3.261  0.1289  0.2666  2.8686
18964TIP3    H278308   3.057   2.485   3.319 -1.5706 -1.7156  0.3657
18965TIP3   OH278309   2.269   1.404   6.345 -0.0241 -0.6543  0.2614
18965TIP3    H178310   2.265   1.369   6.434 -0.5014 -0.4492  0.3199
18965TIP3    H278311   2.227   1.338   6.291  2.7346 -2.1524 -0.2588
18966TIP3   OH278312   3.992   4.908  12.422  0.2839  0.4419 -0.4797
18966TIP3    H178313   3.910   4.932  12.463  0.0314  0.0149 -0.7323
18966TIP3    H278314   4.057   4.914  12.492 -0.1045 -0.0629 -0.0724
18967TIP3   OH278315   0.403   2.629  16.230 -0.7279  0.1639  0.0744
18967TIP3    H178316   0.377   2.675  16.310 -0.9047 -1.7513  1.1729
18967TIP3    H278317   0.431   2.699  16.171 -0.7192  1.6569  1.7474
18968TIP3   OH278318   4.749   2.483  14.136  1.1489  0.6143 -0.5624
18968TIP3    H178319   4.703   2.399  14.140  1.4444  0.4748  0.0576
18968TIP3    H278320   4.763   2.498  14.043 -1.7910  1.5812 -0.9459
18969TIP3   OH278321   4.588   4.397  12.348 -0.2283 -0.2381 -0.2951
18969TIP3    H178322   4.574   4.341  12.272  2.5090 -0.4689 -0.7321
18969TIP3    H278323   4.561   4.484  12.319  1.7189 -0.1187 -1.9669
18970TIP3   OH278324   1.235   6.761  15.255 -0.1519 -0.0355  0.4392
18970TIP3    H178325   1.239   6.818  15.333  0.1448  0.5537  0.0019
18970TIP3    H278326   1.225   6.822  15.182 -1.1895 -0.6289  0.0722
18971TIP3   OH278327   0.565   2.480   0.289 -0.1560 -0.6737 -0.4564
18971TIP3    H178328   0.536   2.498   0.199 -0.8709 -1.6409 -0.4342
18971TIP3    H278329   0.641   2.537   0.301 -1.4074  1.1679 -0.8668
18972TIP3   OH278330   6.540   0.600   1.704 -0.4338  0.3305 -0.4719
18972TIP3    H178331   6.577   0.515   1.680 -1.9779 -0.1613 -1.1758
18972TIP3    H278332   6.514   0.590   1.795  2.5880  1.2211  0.6225
18973TIP3   OH278333   4.011   5.664   5.304 -0.0310 -0.0355  0.5434
18973TIP3    H178334   4.011   5.580   5.350  1.6557 -0.1611  0.3716
18973TIP3    H278335   3.935   5.710   5.340  0.7274 -0.4433  2.8871
18974TIP3   OH278336   6.457   6.110   6.106 -0.3008  0.4347 -0.2912
18974TIP3    H178337   6.368   6.095   6.136 -0.5082  0.0975 -1.0713
18974TIP3    H278338   6.508   6.121   6.187 -0.7502 -1.0411  0.2085
18975TIP3   OH278339   2.780   5.152  16.649 -0.2120 -0.1195 -0.0918
18975TIP3    H178340   2.737   5.235  16.632  0.2830 -0.1914 -1.8746
18975TIP3    H278341   2.718   5.086  16.618  0.7224 -0.2616 -1.7352
18976TIP3   OH278342   0.391   4.922  12.814 -0.2800  0.1832  0.0161
18976TIP3    H178343   0.340   4.896  12.891 -0.9184  0.8825 -0.1464
18976TIP3    H278344   0.450   4.991  12.847  0.7775 -0.8138  0.2612
18977TIP3   OH278345   2.740   0.792  14.118  0.3536 -0.0541 -0.2272
18977TIP3    H178346   2.697   0.778  14.202  2.6343 -2.0112  0.7351
18977TIP3    H278347   2.786   0.875  14.129  0.3740 -0.1342  0.3326
18978TIP3   OH278348   5.764   5.790   1.333 -0.0499  0.0750  0.5345
18978TIP3    H178349   5.850   5.761   1.363  0.3312  0.8884  0.2422
18978TIP3    H278350   5.779   5.877   1.296 -1.0031  0.2406  0.5114
18979TIP3   OH278351   2.318   1.264   0.616  0.0536 -0.3119 -0.0779
18979TIP3    H178352   2.373   1.295   0.544  0.4280  1.4145  0.9077
18979TIP3    H278353   2.374   1.271   0.694 -1.1689  0.3337  0.7751
18980TIP3   OH278354   3.622   1.100  13.968  0.1341 -0.7844 -0.3496
18980TIP3    H178355   3.596   1.193  13.971  0.4135 -0.6382 -1.6620
18980TIP3    H278356   3.598   1.072  13.880  4.0249 -0.7272 -1.6297
18981TIP3   OH278357   1.183   6.212   5.727 -0.1652  0.2809  0.1279
18981TIP3    H178358   1.252   6.258   5.774 -0.0790  0.0370  0.2373
18981TIP3    H278359   1.205   6.120   5.734  0.1810  0.2713 -0.9088
18982TIP3   OH278360   1.158   3.462   3.313  0.0703  0.2744 -0.3519
18982TIP3    H178361   1.120   3.418   3.237  2.1382 -1.3643 -0.5298
18982TIP3    H278362   1.227   3.518   3.276 -0.2274  0.9951  0.1683
18983TIP3   OH278363   3.933   3.429  15.748  0.3425 -0.7333 -0.4578
18983TIP3    H178364   3.876   3.352  15.746 -0.7545  0.0476 -1.7057
18983TIP3    H278365   3.938   3.457  15.656  1.4360  0.1692 -0.1490
18984TIP3   OH278366   4.122   0.109  10.809  0.1292  0.1418 -0.0467
18984TIP3    H178367   4.204   0.157  10.821 -0.0473  0.6352 -0.7397
18984TIP3    H278368   4.148   0.024  10.774  0.3041  0.5679 -0.9676
18985TIP3   OH278369   2.634   5.095  16.914 -0.2135 -0.3057  0.4940
18985TIP3    H178370   2.680   5.042  16.849 -0.9442 -0.6044  0.2168
18985TIP3    H278371   2.698   5.163  16.938  0.1849 -0.3880 -0.2868
18986TIP3   OH278372   2.979   6.785  12.406 -0.1231  0.1970 -0.1239
18986TIP3    H178373   2.915   6.785  12.477  2.3500  0.2696  2.2674
18986TIP3    H278374   2.951   6.714  12.348 -3.4048  1.4790 -0.3356
18987TIP3   OH278375   6.429   2.700   2.689 -0.0555 -0.3822 -0.1112
18987TIP3    H178376   6.423   2.793   2.670 -0.3291 -0.6585 -1.5078
18987TIP3    H278377   6.505   2.691   2.747  1.1394  0.4999 -1.4885
18988TIP3   OH278378   2.649   1.597   5.200  0.0661 -0.3754 -0.2657
18988TIP3    H178379   2.736   1.587   5.161  1.1157  2.4967  1.0439
18988TIP3    H278380   2.591   1.614   5.125  0.8865 -0.9211 -1.0453
18989TIP3   OH278381   5.487   5.592   3.003 -0.3963 -0.2801 -0.0371
18989TIP3    H178382   5.522   5.622   3.088  1.3675  0.3931 -0.9461
18989TIP3    H278383   5.481   5.672   2.951 -1.2340 -0.7312 -0.6413
18990TIP3   OH278384   5.152   1.621  15.553  0.5081  0.1309  0.0521
18990TIP3    H178385   5.196   1.621  15.638  0.3815 -2.7850  0.2179
18990TIP3    H278386   5.222   1.601  15.490  0.1489 -0.3949 -0.1869
18991TIP3   OH278387   1.546   1.965   2.579 -0.0677 -0.2687  0.2689
18991TIP3    H178388   1.565   1.880   2.620 -2.3046 -0.9875 -0.0746
18991TIP3    H278389   1.581   2.029   2.641 -1.1311 -1.3932  2.1273
18992TIP3   OH278390   2.445   6.029   0.595  0.3846  0.7050  0.1847
18992TIP3    H178391   2.525   5.996   0.638  0.4456 -0.5188 -0.8005
18992TIP3    H278392   2.374   5.998   0.650  0.4624 -0.8668 -0.5422
18993TIP3   OH278393   1.089   4.226   3.345 -0.3271  0.3908  0.1310
18993TIP3    H178394   1.160   4.230   3.409  1.4052  0.7412 -1.7383
18993TIP3    H278395   1.010   4.243   3.397  0.9224  0.1095  2.2553
18994TIP3   OH278396   3.916   5.174   0.185 -0.5021  0.0284 -0.1592
18994TIP3    H178397   3.900   5.208   0.273  1.2165 -0.8359  0.5276
18994TIP3    H278398   3.843   5.207   0.133 -0.4509  2.2808  1.0970
18995TIP3   OH278399   2.552   5.077   4.649 -0.1081 -0.2355  0.2147
18995TIP3    H178400   2.498   5.025   4.589  1.6852 -1.2938 -0.5634
18995TIP3    H278401   2.548   5.165   4.613 -0.0644 -0.6073 -0.7409
18996TIP3   OH278402   2.611   1.804  15.828 -0.0002  0.4828  0.1839
18996TIP3    H178403   2.659   1.751  15.891  0.9794  1.8195  0.6297
18996TIP3    H278404   2.635   1.768  15.742 -0.9067 -0.9972  0.5190
18997TIP3   OH278405   3.224   6.560  11.587 -0.5986  0.0940  0.3258
18997TIP3    H178406   3.217   6.626  11.655 -1.5647 -0.6736  1.0078
18997TIP3    H278407   3.318   6.543  11.580 -0.5207 -0.6746  2.3627
18998TIP3   OH278408   4.151   4.654  11.333 -0.0603  0.1472 -0.2989
18998TIP3    H178409   4.234   4.624  11.370 -0.7785  0.5762  1.7419
18998TIP3    H278410   4.095   4.577  11.332 -0.5117  0.4358  0.9383
18999TIP3   OH278411   4.299   5.281   1.949  0.3449 -0.6329 -0.1807
18999TIP3    H178412   4.229   5.323   1.999  0.9565  0.9490 -0.5875
18999TIP3    H278413   4.372   5.342   1.955  0.4619 -0.3740 -2.9546
19000TIP3   OH278414   2.998   5.797  12.877  0.4592 -0.1592 -0.4100
19000TIP3    H178415   2.992   5.887  12.845 -0.1468 -0.1592 -0.3013
19000TIP3    H278416   3.035   5.805  12.965 -0.5546  0.0754  0.0096
19001TIP3   OH278417   6.555   1.629   3.589 -0.1889  0.3839  0.3709
19001TIP3    H178418   6.618   1.693   3.623  1.0606 -0.9077  0.5878
19001TIP3    H278419   6.498   1.609   3.663 -0.8590  1.5127  0.1908
19002TIP3   OH278420   1.028   0.232  15.335 -0.3940 -0.0561  0.6168
19002TIP3    H178421   1.013   0.209  15.243  0.5643 -0.5780  0.5810
19002TIP3    H278422   1.009   0.152  15.384  1.1830 -0.4218  0.6612
19003TIP3   OH278423   3.985   4.830   3.399 -0.0320 -0.4019 -0.0369
19003TIP3    H178424   3.926   4.835   3.474 -0.0794 -1.3259 -0.0051
19003TIP3    H278425   3.932   4.862   3.325 -0.5574 -1.1651  0.0022
19004TIP3   OH278426   2.052   1.698   3.510  0.3007  0.2125  0.1232
19004TIP3    H178427   2.119   1.764   3.491 -1.4199  1.7975 -0.8814
19004TIP3    H278428   2.099   1.615   3.515  2.0473  0.8703 -3.0006
19005TIP3   OH278429   4.085   2.607  17.064  0.3428 -0.7200 -0.4174
19005TIP3    H178430   4.088   2.537  16.999  0.3464 -0.3416 -0.8271
19005TIP3    H278431   4.080   2.561  17.148 -2.1096 -1.2500 -0.7560
19006TIP3   OH278432   1.371   3.140  14.393  0.1333  0.4949  0.2468
19006TIP3    H178433   1.332   3.055  14.374 -0.9979  0.9134  0.6168
19006TIP3    H278434   1.298   3.192  14.428  0.7582  1.6783 -0.1876
19007TIP3   OH278435   1.161   2.041  16.317  0.2066  0.2239 -0.1621
19007TIP3    H178436   1.188   2.124  16.356 -0.5592 -0.1250  1.1821
19007TIP3    H278437   1.201   1.975  16.374 -0.2517 -0.3116 -0.4535
19008TIP3   OH278438   5.749   1.718  16.626  0.5839 -0.0305  0.2321
19008TIP3    H178439   5.680   1.733  16.560  0.1549 -2.0555  0.1605
19008TIP3    H278440   5.799   1.644  16.592  0.7222 -0.7356  1.8850
19009TIP3   OH278441   6.640   1.278  12.637 -0.1536 -0.1891 -0.4718
19009TIP3    H178442   6.617   1.340  12.568  0.3638 -0.5421 -0.9669
19009TIP3    H278443   6.569   1.214  12.636 -1.9184  1.5532  1.5466
19010TIP3   OH278444   6.463   4.897   1.701  0.1858 -0.1561 -0.2019
19010TIP3    H178445   6.373   4.928   1.693  0.5379  0.5285 -1.6605
19010TIP3    H278446   6.504   4.957   1.763 -0.3740 -0.5431  0.5613
19011TIP3   OH278447   0.764   1.117  14.173  0.2898 -0.0727  0.5057
19011TIP3    H178448   0.756   1.148  14.263 -0.3209 -1.0192  0.8027
19011TIP3    H278449   0.691   1.159  14.127  1.6431  1.8264 -0.0070
19012TIP3   OH278450   5.815   0.057   1.279  0.0379 -0.9220  0.1297
19012TIP3    H178451   5.867   0.060   1.199 -0.2968 -0.1869 -0.0752
19012TIP3    H278452   5.864   0.002   1.339 -0.0971 -2.1370 -0.8535
19013TIP3   OH278453   0.388   5.187   5.370  0.2461 -0.3184  0.6080
19013TIP3    H178454   0.458   5.251   5.380  0.8097 -0.7003 -0.5859
19013TIP3    H278455   0.313   5.237   5.339  0.0434  0.0652  1.7018
19014TIP3   OH278456   2.069   3.950   3.522 -0.0371 -0.3044  0.0599
19014TIP3    H178457   2.033   3.893   3.590  0.5177  0.1302  0.7332
19014TIP3    H278458   1.993   3.984   3.476 -0.3814 -1.7374 -0.4965
19015TIP3   OH278459   4.813   5.801   5.803  0.4627 -1.1181 -1.0347
19015TIP3    H178460   4.856   5.857   5.868  1.6239 -2.2308 -0.8091
19015TIP3    H278461   4.735   5.850   5.778  0.2633 -0.4047  0.7978
19016TIP3   OH278462   5.110   0.392  15.989  0.1933  0.7029  0.2313
19016TIP3    H178463   5.133   0.435  15.907  2.2105 -1.1371 -0.2389
19016TIP3    H278464   5.142   0.303  15.980  1.1973  0.6325  3.3029
19017TIP3   OH278465   1.684   0.124   2.255 -0.0608  0.2807 -0.4578
19017TIP3    H178466   1.722   0.073   2.326  0.3803  1.3338  0.0873
19017TIP3    H278467   1.610   0.072   2.225 -0.5475  0.0259  1.0991
19018TIP3   OH278468   0.340   5.641  10.868 -0.1452  0.6746 -0.1751
19018TIP3    H178469   0.281   5.717  10.865 -1.9778 -0.5200  2.1997
19018TIP3    H278470   0.405   5.665  10.933 -0.7068  0.2798  0.5530
19019TIP3   OH278471   4.627   0.352   2.850 -0.2713 -0.4002 -0.2548
19019TIP3    H178472   4.597   0.293   2.919  0.9149 -1.7174 -0.7934
19019TIP3    H278473   4.646   0.294   2.776  0.2834  0.7451 -1.0411
19020TIP3   OH278474   4.939   4.668  10.973  0.3310  0.9785  0.2031
19020TIP3    H178475   4.846   4.676  10.952  0.9222  2.2878 -2.3532
19020TIP3    H278476   4.966   4.757  10.995  1.1448  0.7787  0.0462
19021TIP3   OH278477   3.069   0.971  16.069 -0.3577 -0.2801 -0.2078
19021TIP3    H178478   2.985   0.977  16.115 -0.2795 -0.3776 -0.0512
19021TIP3    H278479   3.059   0.894  16.012 -0.8887  0.5419 -1.2570
19022TIP3   OH278480   4.867   1.311   2.923  0.4469 -0.7538  0.2605
19022TIP3    H178481   4.832   1.235   2.968 -0.3601  0.0763  1.0795
19022TIP3    H278482   4.910   1.363   2.991 -0.2168  0.1956 -0.0218
19023TIP3   OH278483   4.587   0.962  12.977 -0.0970  0.5639  0.6822
19023TIP3    H178484   4.555   0.949  13.067 -0.9580  1.8547  0.5867
19023TIP3    H278485   4.639   0.884  12.959 -1.1694 -0.4449  1.7548
19024TIP3   OH278486   4.420   2.746  11.695  0.2383  0.1766 -0.1968
19024TIP3    H178487   4.448   2.657  11.675 -1.3977 -0.5119  0.3976
19024TIP3    H278488   4.335   2.755  11.653 -0.5519  0.7276  1.4405
19025TIP3   OH278489   3.498   2.286  15.469  0.4399 -0.0027 -0.0142
19025TIP3    H178490   3.588   2.309  15.495  0.8134 -0.2328 -1.0674
19025TIP3    H278491   3.481   2.203  15.513  0.6425  0.1739  0.4052
19026TIP3   OH278492   2.444   3.071  13.687 -0.1023 -0.0882  0.0725
19026TIP3    H178493   2.383   3.017  13.637 -0.9767  0.3818  0.6063
19026TIP3    H278494   2.463   3.019  13.765  2.2679 -1.3997 -1.2447
19027TIP3   OH278495   4.490   6.423   2.122  0.4347 -0.1092 -0.1632
19027TIP3    H178496   4.416   6.482   2.135  0.6062 -0.1054  0.8730
19027TIP3    H278497   4.470   6.377   2.040  0.8347  2.1506 -1.6210
19028TIP3   OH278498   3.028   2.751   2.805  0.5726  0.1978 -0.2958
19028TIP3    H178499   3.069   2.789   2.883  1.5514 -0.0281 -0.6843
19028TIP3    H278500   2.960   2.814   2.780  0.2160  0.2434  0.7616
19029TIP3   OH278501   5.201   2.817  17.147  0.3926 -0.2926  0.1026
19029TIP3    H178502   5.124   2.806  17.204 -1.2663  0.6778 -1.7966
19029TIP3    H278503   5.254   2.884  17.191  0.3356 -1.1856  1.5991
19030TIP3   OH278504   4.000   3.693   1.378  0.2270 -1.0724  0.0916
19030TIP3    H178505   3.939   3.766   1.361 -1.2088 -1.9005  1.3971
19030TIP3    H278506   3.974   3.660   1.464  1.3162 -2.6816 -0.1569
19031TIP3   OH278507   4.318   1.189   1.480 -0.9122 -0.0008  0.2143
19031TIP3    H178508   4.303   1.101   1.447 -0.1216 -0.3491  0.7731
19031TIP3    H278509   4.270   1.246   1.419 -1.4879 -0.8128 -0.1024
19032TIP3   OH278510   0.268   4.341   3.531  0.2590 -0.2554 -0.0825
19032TIP3    H178511   0.359   4.317   3.552  0.2423 -0.2786 -0.0357
19032TIP3    H278512   0.227   4.257   3.509 -0.0638 -0.4141  1.0690
19033TIP3   OH278513   5.022   6.649   2.690  0.0701  0.2169  0.3705
19033TIP3    H178514   4.996   6.557   2.690  2.4743 -0.5492  1.5494
19033TIP3    H278515   5.028   6.672   2.783  0.8431  1.1342  0.1001
19034TIP3   OH278516   6.553   0.928   4.535  0.8264 -0.2928 -0.0235
19034TIP3    H178517   6.597   0.862   4.589  1.6648  1.6255  1.7859
19034TIP3    H278518   6.460   0.917   4.554  1.0931  0.2809  1.8470
19035TIP3   OH278519   2.538   5.306   4.290  0.8642  0.0082  0.0587
19035TIP3    H178520   2.589   5.253   4.229  3.3282  2.3879 -0.1460
19035TIP3    H278521   2.452   5.313   4.249  1.1526 -1.8420 -1.0094
19036TIP3   OH278522   5.317   6.621  15.735  0.5174 -0.2527 -0.4337
19036TIP3    H178523   5.401   6.579  15.715  0.1918 -1.0548 -0.1596
19036TIP3    H278524   5.251   6.560  15.703  0.0212 -0.2429  0.5325
19037TIP3   OH278525   3.683   3.030   4.981 -0.0654 -0.1746 -0.5779
19037TIP3    H178526   3.656   3.094   5.047  0.3289 -0.3441 -0.2442
19037TIP3    H278527   3.671   2.945   5.024 -2.9608 -0.5402 -1.8378
19038TIP3   OH278528   2.089   5.695   2.084 -0.4192  0.1435 -0.1918
19038TIP3    H178529   2.121   5.783   2.105 -1.3850  0.6956 -0.9423
19038TIP3    H278530   2.038   5.707   2.004  1.2651 -1.4815 -1.5963
19039TIP3   OH278531   3.124   2.461   5.173  0.2371  0.3341  0.2467
19039TIP3    H178532   3.033   2.452   5.143  0.1533 -0.4118  0.6867
19039TIP3    H278533   3.165   2.518   5.108 -0.3842  0.1675 -0.3111
19040TIP3   OH278534   0.903   6.086  13.292 -0.3369  0.4665  0.1781
19040TIP3    H178535   0.940   6.030  13.225 -2.2481  0.0061 -0.5616
19040TIP3    H278536   0.840   6.031  13.338 -1.0397  1.5300  0.5368
19041TIP3   OH278537   2.106   3.729   5.057 -0.7143  0.6332  0.4812
19041TIP3    H178538   2.097   3.673   5.134 -0.3805  0.7025  0.5702
19041TIP3    H278539   2.108   3.818   5.092 -2.5785  0.8062  0.2524
19042TIP3   OH278540   1.991   4.057   0.724  0.3707  0.0764  0.2971
19042TIP3    H178541   1.935   4.001   0.778 -2.3317  0.5536 -1.8270
19042TIP3    H278542   1.938   4.134   0.705  2.3259  1.2874 -0.6167
19043TIP3   OH278543   2.156   1.460  11.680 -0.3359 -0.7284  0.5767
19043TIP3    H178544   2.076   1.429  11.637  0.6956 -0.8181 -1.3715
19043TIP3    H278545   2.216   1.386  11.675  0.3541 -0.1853  0.7111
19044TIP3   OH278546   2.284   0.789  17.147 -0.1848  0.1276  0.2951
19044TIP3    H178547   2.323   0.874  17.127 -0.9184  0.2232 -0.7817
19044TIP3    H278548   2.326   0.763  17.230 -1.2703  2.3633  1.6598
19045TIP3   OH278549   5.934   5.340   3.942 -0.0442 -0.2251 -0.0928
19045TIP3    H178550   5.849   5.373   3.914  0.6712  0.3359 -1.6845
19045TIP3    H278551   5.957   5.394   4.018  0.0440  1.3838 -1.2267
19046TIP3   OH278552   1.515   2.706   1.928 -0.3782 -0.0007 -0.3677
19046TIP3    H178553   1.452   2.769   1.962 -2.0124 -1.0372 -1.3282
19046TIP3    H278554   1.494   2.623   1.972  0.3430 -0.3574 -0.6630
19047TIP3   OH278555   5.512   4.420  13.081 -0.0888  0.4169 -0.2833
19047TIP3    H178556   5.434   4.370  13.105  1.2584 -1.2220  0.8994
19047TIP3    H278557   5.483   4.473  13.007 -2.6229  0.7333  0.8097
19048TIP3   OH278558   4.192   3.738   3.362  0.2266  0.0843 -0.1356
19048TIP3    H178559   4.135   3.815   3.371 -0.0936 -0.1543 -0.0958
19048TIP3    H278560   4.181   3.690   3.444  2.4601  1.3285  0.9820
19049TIP3   OH278561   3.671   3.567   1.353 -0.7457  0.0808 -0.6192
19049TIP3    H178562   3.734   3.496   1.346 -0.6879  0.2028 -1.4304
19049TIP3    H278563   3.714   3.631   1.410 -0.0246  0.2684 -1.3539
19050TIP3   OH278564   4.602   3.777   2.384  0.1165 -0.2330 -0.4323
19050TIP3    H178565   4.536   3.734   2.329  0.9496  0.1805 -1.8060
19050TIP3    H278566   4.641   3.706   2.435  0.7405 -0.9808 -1.8990
19051TIP3   OH278567   6.467   0.114  13.921 -0.2759  0.0253 -0.2754
19051TIP3    H178568   6.555   0.087  13.948 -0.6124 -0.2944  0.5245
19051TIP3    H278569   6.427   0.146  14.002 -0.6590  0.8205 -0.7763
19052TIP3   OH278570   5.075   0.157  12.370  0.2269 -0.0421  0.6179
19052TIP3    H178571   5.143   0.098  12.403  1.1642 -0.9198 -2.5351
19052TIP3    H278572   5.070   0.227  12.435  2.1001 -1.4196  2.3725
19053TIP3   OH278573   3.308   3.783   5.720 -0.0778  0.6232 -0.0514
19053TIP3    H178574   3.372   3.853   5.706 -0.6987  1.2638  0.2242
19053TIP3    H278575   3.336   3.713   5.662  0.1354  1.3831 -0.8854
19054TIP3   OH278576   1.852   2.795   1.088 -0.1669 -0.7451 -0.5379
19054TIP3    H178577   1.806   2.876   1.067 -0.8970 -1.3477 -1.3452
19054TIP3    H278578   1.884   2.808   1.177 -1.8299 -0.2557  0.0328
19055TIP3   OH278579   0.009   0.123  15.252 -0.2659  0.1326  0.8920
19055TIP3    H178580  -0.048   0.068  15.305 -0.5127  1.5280  2.1555
19055TIP3    H278581  -0.025   0.212  15.265  0.2054  0.6322 -0.9388
19056TIP3   OH278582   6.458   0.181  15.482 -0.6620  0.0635  0.6293
19056TIP3    H178583   6.385   0.212  15.428 -1.4053 -2.0168  0.3678
19056TIP3    H278584   6.417   0.156  15.565  0.3121  2.1881  1.8198
19057TIP3   OH278585   5.846   6.589  12.518 -0.2657 -0.3777  0.0114
19057TIP3    H178586   5.860   6.499  12.546 -1.6740 -0.8350 -0.6536
19057TIP3    H278587   5.794   6.629  12.587 -0.9005 -0.5151 -0.3858
19058TIP3   OH278588   0.718   2.406  11.690  0.3368 -0.3511  0.0123
19058TIP3    H178589   0.629   2.389  11.720 -0.0503 -0.3353 -1.0842
19058TIP3    H278590   0.751   2.475  11.747 -0.1910 -0.6664  0.7057
19059TIP3   OH278591   3.287   0.672   2.468  0.4777 -0.5274 -0.0531
19059TIP3    H178592   3.378   0.669   2.499 -0.0647  0.0740  1.7459
19059TIP3    H278593   3.259   0.581   2.468  0.3500 -0.5419  1.8884
19060TIP3   OH278594   1.504   3.432   5.536  0.3518  0.6402  0.2191
19060TIP3    H178595   1.448   3.466   5.606 -0.2064  0.1523  0.0206
19060TIP3    H278596   1.583   3.402   5.581 -0.5333 -0.8665  0.8257
19061TIP3   OH278597   5.704   2.586   5.520 -0.2847 -0.1717  0.3141
19061TIP3    H178598   5.781   2.630   5.484 -1.9047  0.5692 -2.5493
19061TIP3    H278599   5.728   2.494   5.523  0.4359 -0.0761 -1.4177
19062TIP3   OH278600   5.563   1.866   2.640  0.3843  0.0466 -0.3290
19062TIP3    H178601   5.550   1.789   2.585 -0.1834  0.0081 -0.1404
19062TIP3    H278602   5.656   1.886   2.630  1.0743 -1.9654  1.2743
19063TIP3   OH278603   0.319   3.389   3.772 -0.0205  0.1020 -0.2018
19063TIP3    H178604   0.363   3.358   3.851  0.4086  0.0237 -0.4693
19063TIP3    H278605   0.299   3.481   3.790  2.1738  0.7649 -0.8917
19064TIP3   OH278606   4.149   5.916  13.003  0.2896  0.0370  0.3447
19064TIP3    H178607   4.177   5.996  13.047  1.9787 -0.5137  0.3252
19064TIP3    H278608   4.078   5.944  12.945  0.3509  1.3699  0.8841
19065TIP3   OH278609   6.753   6.438  15.170 -0.3258 -0.0640  0.4265
19065TIP3    H178610   6.817   6.435  15.241  1.6090 -4.6882 -1.1227
19065TIP3    H278611   6.674   6.400  15.207 -0.4288  0.6056  0.9132
19066TIP3   OH278612   3.796   0.052  16.974  0.3230  0.0364  0.2152
19066TIP3    H178613   3.809   0.017  16.886  2.4708  0.4855  0.3032
19066TIP3    H278614   3.795   0.147  16.962  1.0645  0.1097  0.7273
19067TIP3   OH278615   4.626   2.144   0.409 -0.1801  0.1537  0.4005
19067TIP3    H178616   4.643   2.148   0.315 -1.0519 -0.1368  0.2188
19067TIP3    H278617   4.701   2.096   0.444 -0.5145 -0.9747 -0.3451
19068TIP3   OH278618   6.189   3.397   0.849 -0.4912  0.3101 -0.8574
19068TIP3    H178619   6.156   3.427   0.764  2.6075  2.7685 -1.3667
19068TIP3    H278620   6.281   3.423   0.850  0.6883 -3.1784  1.7036
19069TIP3   OH278621   3.560   3.098  17.131 -0.0440 -0.6413  0.2695
19069TIP3    H178622   3.467   3.097  17.153  0.0681  1.5188  1.0739
19069TIP3    H278623   3.604   3.084  17.215  0.3413  0.4850  0.2724
19070TIP3   OH278624   4.709   3.680  12.681 -0.0827 -0.0461  0.1443
19070TIP3    H178625   4.650   3.756  12.679 -0.8374 -0.6422 -0.6220
19070TIP3    H278626   4.723   3.658  12.589 -2.0303 -2.4613  0.3123
19071TIP3   OH278627   3.689   1.773   0.633 -0.2454 -0.5023 -0.5706
19071TIP3    H178628   3.783   1.793   0.640 -0.1713 -1.2130  1.0012
19071TIP3    H278629   3.656   1.784   0.722 -1.6781 -0.2558 -1.1017
19072TIP3   OH278630   2.271   6.060  17.090 -0.0903  0.3786  0.5059
19072TIP3    H178631   2.343   6.047  17.152  0.0867  0.7704  0.3855
19072TIP3    H278632   2.200   6.096  17.143 -0.2174 -0.0658  0.6367
19073TIP3   OH278633   2.717   5.647  13.346  0.6345  0.3186  0.6592
19073TIP3    H178634   2.650   5.604  13.292  0.4747 -0.1230  1.2029
19073TIP3    H278635   2.735   5.729  13.300 -1.2258  1.0650  1.1534
19074TIP3   OH278636   2.684   2.828   2.275 -0.4577  0.4690  0.6719
19074TIP3    H178637   2.734   2.880   2.339  0.1565  2.8508 -1.5497
19074TIP3    H278638   2.688   2.880   2.195 -1.1908 -2.3641 -1.3326
19075TIP3   OH278639   5.293   2.209   0.210  0.2169  0.0187  0.0242
19075TIP3    H178640   5.245   2.228   0.129 -0.2062 -0.7294  0.0888
19075TIP3    H278641   5.384   2.201   0.182 -0.1421 -2.0242 -0.7056
19076TIP3   OH278642   4.237   6.422  14.369  0.2920  0.5923  0.2140
19076TIP3    H178643   4.204   6.447  14.283  2.8185  1.4953 -0.5850
19076TIP3    H278644   4.307   6.485  14.387  1.6761 -1.2479  1.6771
19077TIP3   OH278645   5.663   6.484   4.621 -0.2046 -0.1322  0.1020
19077TIP3    H178646   5.644   6.565   4.573  1.0074  0.6235  0.8638
19077TIP3    H278647   5.734   6.443   4.572 -1.5530 -1.3766 -0.9423
19078TIP3   OH278648   4.546   0.924  10.815  0.3098 -0.6010  0.0482
19078TIP3    H178649   4.563   0.840  10.857  0.0394 -0.0905  1.2159
19078TIP3    H278650   4.548   0.905  10.721 -0.6230 -2.0829  0.3002
19079TIP3   OH278651   2.358   6.777   3.876 -0.3159 -0.0760  0.3404
19079TIP3    H178652   2.424   6.712   3.902  1.6894  0.9808 -1.7771
19079TIP3    H278653   2.319   6.741   3.796 -0.3623  0.5550  0.0730
19080TIP3   OH278654   6.507   5.764   1.662  0.8574  0.7600  0.9835
19080TIP3    H178655   6.544   5.807   1.739  2.8690  0.8458  0.0029
19080TIP3    H278656   6.582   5.736   1.610 -0.4460  0.7182 -0.9903
19081TIP3   OH278657   5.392   0.819  17.178  0.7703  0.0151 -0.5810
19081TIP3    H178658   5.409   0.885  17.245  2.0701 -1.5776  0.7326
19081TIP3    H278659   5.424   0.859  17.097  1.3732  1.0595  0.1450
19082TIP3   OH278660   0.949   2.670  16.587  0.9075  0.0717  0.4510
19082TIP3    H178661   1.021   2.661  16.649  1.0718 -0.9897  0.1266
19082TIP3    H278662   0.918   2.760  16.599  1.1951  0.0144  1.7705
19083TIP3   OH278663   4.550   5.494   3.408  0.2391 -0.3019  0.0042
19083TIP3    H178664   4.618   5.540   3.457  1.4070 -1.3401 -0.5662
19083TIP3    H278665   4.471   5.504   3.460  1.0028  0.2970  1.0763
19084TIP3   OH278666   4.048   4.444   0.840  0.0146  0.1009  0.1139
19084TIP3    H178667   4.011   4.391   0.910  2.2040 -0.1292  1.1766
19084TIP3    H278668   4.023   4.534   0.862  1.3424  0.1192  1.6759
19085TIP3   OH278669   5.599   6.385  11.471 -0.3082 -0.6036  0.0529
19085TIP3    H178670   5.618   6.376  11.564 -1.8882 -2.6177  0.2675
19085TIP3    H278671   5.530   6.451  11.466  0.2066 -0.0436  0.2186
19086TIP3   OH278672   0.634   5.978  11.622 -0.1713  0.1700  0.4635
19086TIP3    H178673   0.598   6.031  11.693  1.7766  1.4717  0.5299
19086TIP3    H278674   0.614   6.027  11.542 -0.0417  0.0206  0.3381
19087TIP3   OH278675   3.509   3.108  10.989  0.2599 -0.5157 -0.1611
19087TIP3    H178676   3.470   3.137  11.072 -0.5905  0.2670 -0.8092
19087TIP3    H278677   3.472   3.021  10.974  0.0641 -0.4715  0.0615
19088TIP3   OH278678   1.819   5.395   5.102 -0.2760 -0.9535 -0.2543
19088TIP3    H178679   1.900   5.434   5.071 -1.5110  1.4346 -0.6937
19088TIP3    H278680   1.758   5.405   5.028 -0.9218 -2.9882 -0.0644
19089TIP3   OH278681   4.705   4.926   5.601  0.1202 -0.0626  0.1165
19089TIP3    H178682   4.751   4.864   5.543 -0.4163 -0.4844  0.1239
19089TIP3    H278683   4.678   4.872   5.676  0.0113  0.2771  0.3202
19090TIP3   OH278684   4.707   4.974   2.462 -0.3171 -0.2814 -0.2636
19090TIP3    H178685   4.645   5.035   2.422  0.3393 -1.9600 -4.2882
19090TIP3    H278686   4.673   4.888   2.439  1.9753 -1.2891 -0.0437
19091TIP3   OH278687   0.475   5.422  13.889 -0.1107  0.1033 -0.5793
19091TIP3    H178688   0.515   5.379  13.964  0.4661 -0.5934 -1.2729
19091TIP3    H278689   0.546   5.430  13.825 -0.7035  0.2534 -1.2353
19092TIP3   OH278690   2.481   2.835   3.542 -0.5967  0.5665  0.2919
19092TIP3    H178691   2.424   2.909   3.561 -0.1319  1.2974 -1.0403
19092TIP3    H278692   2.510   2.849   3.452  0.7610 -0.4036  0.5413
19093TIP3   OH278693   3.604   2.631   2.472  0.0833 -0.0902  0.2084
19093TIP3    H178694   3.645   2.713   2.446  1.0434 -0.9983 -1.2770
19093TIP3    H278695   3.537   2.657   2.536  0.3693  1.8292 -0.2049
19094TIP3   OH278696   0.802   6.774  11.576  0.4377  0.3424  0.0725
19094TIP3    H178697   0.737   6.803  11.640 -0.8099  0.6194 -1.2621
19094TIP3    H278698   0.800   6.842  11.508  1.1506 -0.3454 -0.6518
19095TIP3   OH278699   5.270   4.255   3.057 -0.1336 -0.2252 -0.6335
19095TIP3    H178700   5.294   4.232   3.146  0.2188 -0.3767 -0.7668
19095TIP3    H278701   5.262   4.351   3.058 -0.3046 -0.2420 -0.4003
19096TIP3   OH278702   5.081   6.334  14.250 -0.7110 -0.4966 -0.6764
19096TIP3    H178703   5.174   6.313  14.255 -0.9676 -1.5611  0.1675
19096TIP3    H278704   5.054   6.301  14.164 -0.7292 -2.1766 -0.0727
19097TIP3   OH278705   3.502   5.963  16.913 -0.2240  0.4035  0.0808
19097TIP3    H178706   3.430   6.020  16.885 -0.9959 -1.7038 -2.6990
19097TIP3    H278707   3.464   5.911  16.984 -1.3907 -0.4250 -1.1043
19098TIP3   OH278708   5.179   2.059  15.804 -0.0727 -0.6423  0.1139
19098TIP3    H178709   5.134   2.102  15.877  0.6977  3.1509 -1.4111
19098TIP3    H278710   5.265   2.036  15.839  0.6179  1.9421  0.2880
19099TIP3   OH278711   2.141   5.225   5.047  0.6523  0.2864 -0.2181
19099TIP3    H178712   2.227   5.261   5.068  0.6308  0.1483  0.1083
19099TIP3    H278713   2.142   5.137   5.084  0.0824  0.5679  0.4928
19100TIP3   OH278714   1.309   0.840   1.492  0.2149 -0.1590 -0.0381
19100TIP3    H178715   1.303   0.842   1.587 -0.0917 -0.5831 -0.0476
19100TIP3    H278716   1.218   0.837   1.462  0.3165 -0.3472 -0.3352
19101TIP3   OH278717   6.648   2.735   1.024  0.2542 -0.4036  0.1241
19101TIP3    H178718   6.684   2.767   0.941  2.3049  0.4755  1.2734
19101TIP3    H278719   6.699   2.656   1.043 -1.4278 -1.6275 -0.2913
19102TIP3   OH278720   0.144   2.273  11.543 -0.2852 -0.0305  0.1883
19102TIP3    H178721   0.050   2.253  11.548 -0.1343 -0.5021  3.3252
19102TIP3    H278722   0.185   2.190  11.518 -0.5922 -0.2509  0.4044
19103TIP3   OH278723   0.456   0.937   2.587 -0.2804  0.1018  0.1445
19103TIP3    H178724   0.429   0.846   2.596  0.6650 -0.5438 -2.5633
19103TIP3    H278725   0.402   0.970   2.515 -0.2963  1.5734  0.8000
19104TIP3   OH278726   5.759   4.647   3.637  0.1236 -0.1521 -0.0803
19104TIP3    H178727   5.750   4.562   3.594  0.8211  0.0349 -0.6168
19104TIP3    H278728   5.704   4.640   3.715 -0.3282 -0.8702 -0.4513
19105TIP3   OH278729   2.621   5.202   2.894 -0.1440 -0.3318 -0.1524
19105TIP3    H178730   2.559   5.274   2.905 -2.9648 -2.7424  1.5968
19105TIP3    H278731   2.679   5.208   2.970  1.0311  1.2222 -1.1261
19106TIP3   OH278732   4.143   3.268   1.588  0.6920  0.1279  0.2000
19106TIP3    H178733   4.125   3.175   1.575 -0.7218  0.5149 -0.9277
19106TIP3    H278734   4.149   3.304   1.500 -2.9061  1.7787  0.4356
19107TIP3   OH278735   2.974   5.256  13.714 -0.2397  0.6797  0.4563
19107TIP3    H178736   2.976   5.228  13.623  0.0725 -0.8592  0.9027
19107TIP3    H278737   2.908   5.325  13.717 -0.9379  0.0882 -0.7601
19108TIP3   OH278738   2.443   0.513  16.041 -0.4934 -0.2592  0.6591
19108TIP3    H178739   2.365   0.477  16.082 -0.1679 -2.9605 -0.8805
19108TIP3    H278740   2.516   0.482  16.095 -0.3549  1.2731  1.4155
19109TIP3   OH278741   1.841   5.107  16.100 -0.6714 -0.3411  0.0340
19109TIP3    H178742   1.772   5.107  16.034 -0.2361  1.7091 -0.5004
19109TIP3    H278743   1.876   5.196  16.098  0.4583 -0.6819  1.8955
19110TIP3   OH278744   0.798   5.572  11.974 -0.1292  0.3094 -0.4200
19110TIP3    H178745   0.753   5.549  12.055  1.0517  0.3211  0.2605
19110TIP3    H278746   0.891   5.565  11.995  0.2462 -1.8408 -2.3858
19111TIP3   OH278747   2.272   0.919  14.622  0.0113 -0.1734 -0.4257
19111TIP3    H178748   2.201   0.865  14.657 -0.3895 -0.4041 -1.5529
19111TIP3    H278749   2.324   0.943  14.699 -2.3340  1.6101  0.7753
19112TIP3   OH278750   0.431   4.479   6.217  0.3807  0.2359 -0.0636
19112TIP3    H178751   0.490   4.477   6.292 -0.9983 -1.3669  1.0509
19112TIP3    H278752   0.464   4.411   6.158  0.9687  0.9179 -0.5346
19113TIP3   OH278753   5.305   2.358   4.498 -0.1068 -0.2491  0.5175
19113TIP3    H178754   5.365   2.311   4.441  0.5228 -0.7866  1.5766
19113TIP3    H278755   5.344   2.445   4.508 -2.3809  1.4146 -3.1931
19114TIP3   OH278756   6.517   3.163   4.507 -1.2945 -0.4402  0.0215
19114TIP3    H178757   6.539   3.126   4.592 -1.0904  2.3721  1.2861
19114TIP3    H278758   6.422   3.152   4.500 -1.1312 -2.0303 -0.1256
19115TIP3   OH278759   6.571   6.025   0.782  0.2366 -0.8961 -0.6147
19115TIP3    H178760   6.603   5.986   0.700 -0.9790  2.2610 -2.8074
19115TIP3    H278761   6.635   6.094   0.802 -1.2248  0.6555 -0.9819
19116TIP3   OH278762   3.763   3.354  10.572  0.1672  0.1880 -0.4686
19116TIP3    H178763   3.766   3.413  10.498  0.3956  3.0879  1.6771
19116TIP3    H278764   3.797   3.405  10.646 -0.6761 -2.2582  1.8042
19117TIP3   OH278765   2.321   5.648   6.377  0.1998 -0.0534 -0.1207
19117TIP3    H178766   2.376   5.624   6.303  0.4588  0.4383 -0.0915
19117TIP3    H278767   2.382   5.669   6.448 -0.0365 -0.1407  0.1100
19118TIP3   OH278768   3.252   3.928  16.338 -0.3911  1.1174  0.2375
19118TIP3    H178769   3.297   3.874  16.403  0.7018  0.3085 -1.1397
19118TIP3    H278770   3.322   3.962  16.282 -1.2310  2.4571 -0.0596
19119TIP3   OH278771   4.040   5.716   4.416 -0.1490  0.0562  0.2888
19119TIP3    H178772   3.988   5.690   4.492 -0.2442  0.6896  0.4533
19119TIP3    H278773   3.999   5.798   4.388 -1.1342 -0.9646 -1.4232
19120TIP3   OH278774   3.621   1.609   2.701  0.2356 -0.1887 -0.1742
19120TIP3    H178775   3.534   1.572   2.707  0.3698 -0.2862  2.0516
19120TIP3    H278776   3.630   1.663   2.779  2.2556 -0.3822 -0.2031
19121TIP3   OH278777   1.491   5.120  15.687 -0.0972 -0.4371  0.4052
19121TIP3    H178778   1.446   5.182  15.745  0.6566 -0.3032  0.8598
19121TIP3    H278779   1.431   5.108  15.614 -0.1907  0.9683  0.2199
19122TIP3   OH278780   0.861   5.623   1.164  0.1071  0.2090 -0.6268
19122TIP3    H178781   0.955   5.613   1.180  0.3281  1.5234 -0.9675
19122TIP3    H278782   0.821   5.624   1.251  0.5407  0.7103 -0.4268
19123TIP3   OH278783   2.088   6.331   1.656  0.2432 -0.4107 -0.0060
19123TIP3    H178784   2.114   6.239   1.649  1.8367 -0.0719  1.0222
19123TIP3    H278785   2.171   6.379   1.655 -0.5309  0.9641  0.3047
19124TIP3   OH278786   5.978   5.477  16.692 -0.2634  0.3088 -0.2134
19124TIP3    H178787   5.960   5.515  16.778  2.0713  3.1006 -0.8185
19124TIP3    H278788   6.000   5.385  16.711  0.6729  0.9470  2.2508
19125TIP3   OH278789   3.261   6.506  12.619  0.0071 -0.8464  0.0481
19125TIP3    H178790   3.353   6.478  12.613  0.2613  0.1579 -1.7205
19125TIP3    H278791   3.267   6.599  12.643 -0.7046 -1.4999  3.0380
19126TIP3   OH278792   4.983   1.699  14.471  0.4776 -0.9996 -0.4505
19126TIP3    H178793   5.067   1.701  14.427  0.6239 -1.7130 -0.2060
19126TIP3    H278794   4.923   1.660  14.407  0.4550 -1.0209 -0.4166
19127TIP3   OH278795   1.335   5.801   3.702 -0.2314 -0.0252  0.6360
19127TIP3    H178796   1.399   5.832   3.637  0.1118  0.2162  1.0824
19127TIP3    H278797   1.281   5.878   3.720  0.3500  0.2093  1.4264
19128TIP3   OH278798   5.812   5.961   0.894  0.0378 -0.0227  0.6459
19128TIP3    H178799   5.854   5.999   0.971  0.6695  0.9047 -0.1366
19128TIP3    H278800   5.789   6.036   0.839 -0.2474 -0.6759 -0.1510
19129TIP3   OH278801   2.719   2.887   0.443  0.1427  0.2858  0.3499
19129TIP3    H178802   2.688   2.798   0.461  1.3005 -0.5041 -1.3355
19129TIP3    H278803   2.653   2.923   0.384 -1.0234  1.0691  2.0628
19130TIP3   OH278804   5.425   3.154   4.129  0.0374  0.2659  0.0773
19130TIP3    H178805   5.354   3.098   4.161  0.6444 -0.2499  0.5508
19130TIP3    H278806   5.416   3.235   4.179 -0.9406  0.6641 -0.7216
19131TIP3   OH278807   1.357   6.642   2.333  0.3273 -0.1159  0.4294
19131TIP3    H178808   1.328   6.563   2.288  0.5316 -0.5604  1.0558
19131TIP3    H278809   1.422   6.681   2.275  0.2550 -0.4339  0.1370
19132TIP3   OH278810   1.295   4.093  14.910  0.0601 -0.6872 -0.1550
19132TIP3    H178811   1.351   4.170  14.909 -0.2451 -0.4701 -0.8274
19132TIP3    H278812   1.326   4.042  14.985  1.3357 -0.7130 -0.6730
19133TIP3   OH278813   0.439   5.012  17.179  0.0136 -0.3918  0.0160
19133TIP3    H178814   0.515   5.056  17.215  0.0001 -0.2345 -0.1420
19133TIP3    H278815   0.422   4.939  17.238  1.6218 -1.7611 -1.1387
19134TIP3   OH278816   1.340   3.698   0.533  0.5270  0.2721  0.1877
19134TIP3    H178817   1.340   3.602   0.537 -0.5619  0.1599 -1.3890
19134TIP3    H278818   1.334   3.726   0.624 -0.5834 -1.1912  0.6050
19135TIP3   OH278819   1.652   1.435   3.612  0.0289  0.9128 -0.3060
19135TIP3    H178820   1.606   1.367   3.562  1.1677  0.0167 -0.1723
19135TIP3    H278821   1.645   1.514   3.557  0.6487  0.1203 -1.5697
19136TIP3   OH278822   1.245   5.589  16.269  0.2956 -0.2330 -0.0306
19136TIP3    H178823   1.218   5.660  16.328 -0.9488 -0.2682 -0.5188
19136TIP3    H278824   1.239   5.626  16.182 -1.3037 -1.1689 -0.3694
19137TIP3   OH278825   4.908   0.541  12.417  0.6464 -0.2310  0.2853
19137TIP3    H178826   4.894   0.475  12.349  0.8828 -1.3021  1.2511
19137TIP3    H278827   4.934   0.620  12.369  1.8395 -1.2463 -0.8178
19138TIP3   OH278828   2.396   5.344   3.040 -0.8181  0.5242  0.1358
19138TIP3    H178829   2.334   5.410   3.008 -0.1151  1.0567 -0.1367
19138TIP3    H278830   2.476   5.393   3.059 -0.1046 -0.3385 -0.5954
19139TIP3   OH278831   0.031   4.281  16.746  0.0062 -0.0933  0.1878
19139TIP3    H178832   0.107   4.313  16.696 -1.2720  1.7198 -0.7071
19139TIP3    H278833  -0.027   4.244  16.680 -1.5223  1.9465  0.2949
19140TIP3   OH278834   2.561   3.896  16.302 -0.0321  0.5135 -0.6549
19140TIP3    H178835   2.564   3.902  16.206  0.9211 -0.2357 -0.6828
19140TIP3    H278836   2.468   3.881  16.322  0.1277 -2.6321 -1.6958
19141TIP3   OH278837   4.312   2.581   2.911 -0.3975 -0.0827 -0.0842
19141TIP3    H178838   4.302   2.540   2.997  1.3802 -1.0011 -0.2785
19141TIP3    H278839   4.284   2.672   2.925 -3.6478 -1.0445  0.5474
19142TIP3   OH278840   0.387   1.381  14.884 -0.1094  0.1847 -0.0601
19142TIP3    H178841   0.334   1.323  14.937  0.9504 -2.1377 -1.3997
19142TIP3    H278842   0.352   1.372  14.795  1.0552  0.3854 -0.5659
19143TIP3   OH278843   4.876   5.697  13.381 -0.2415  0.2075 -0.6474
19143TIP3    H178844   4.934   5.677  13.308 -0.2914 -0.4104 -0.5222
19143TIP3    H278845   4.856   5.612  13.420  0.2185  0.5790  0.4228
19144TIP3   OH278846   5.655   1.077  13.207  0.2081 -0.0363 -0.0407
19144TIP3    H178847   5.658   1.121  13.292 -0.0326  1.4896 -0.7927
19144TIP3    H278848   5.568   1.097  13.172  1.3034  1.9556 -1.9204
19145TIP3   OH278849   2.699   4.094   4.002  0.2297  0.4022  0.1615
19145TIP3    H178850   2.666   4.143   3.926  3.8459 -0.8233 -2.4807
19145TIP3    H278851   2.680   4.002   3.980 -0.4032  0.1216  1.7646
19146TIP3   OH278852   5.909   3.472  13.775 -0.0099 -0.5091 -0.0061
19146TIP3    H178853   5.844   3.483  13.705  0.5513 -1.3418 -0.6800
19146TIP3    H278854   5.861   3.426  13.845 -0.1066 -1.2649 -0.5624
19147TIP3   OH278855   0.291   6.173   5.219 -0.0441 -0.0925 -0.0871
19147TIP3    H178856   0.263   6.091   5.260 -0.2180  0.6638  1.3600
19147TIP3    H278857   0.319   6.228   5.292 -1.0180  1.5616 -0.9158
19148TIP3   OH278858   0.151   2.465   3.782 -0.4253 -0.2474 -0.0849
19148TIP3    H178859   0.217   2.499   3.843 -1.2727 -2.0493  1.9547
19148TIP3    H278860   0.201   2.412   3.720  0.5757  2.3875 -1.7394
19149TIP3   OH278861   1.245   6.072   1.576  0.0906  0.6647 -0.7003
19149TIP3    H178862   1.160   6.031   1.562  0.8717 -1.1167 -0.5484
19149TIP3    H278863   1.309   6.003   1.554  1.5002  2.0769 -1.2017
19150TIP3   OH278864   3.475   1.827  15.206 -0.6040 -0.0024 -0.2863
19150TIP3    H178865   3.467   1.905  15.261  0.0780  0.0205 -0.2074
19150TIP3    H278866   3.388   1.787  15.208 -0.9842  0.7864 -0.3779
19151TIP3   OH278867   5.875   2.262  11.290 -0.7740  0.2760 -0.0474
19151TIP3    H178868   5.937   2.328  11.319  0.8309 -1.4771  0.7174
19151TIP3    H278869   5.915   2.224  11.212 -0.8322 -0.8765  0.4528
19152TIP3   OH278870   6.769   6.408   0.578  0.3828  0.0971  0.3223
19152TIP3    H178871   6.825   6.433   0.506  1.4563 -0.3088  0.9961
19152TIP3    H278872   6.736   6.321   0.554 -1.0867  0.8826 -0.6965
19153TIP3   OH278873   1.486   6.325  11.823  0.3896 -0.2300  0.3732
19153TIP3    H178874   1.459   6.248  11.772 -0.5725 -1.8681  3.0762
19153TIP3    H278875   1.521   6.386  11.759 -1.8061 -1.5958 -2.3540
19154TIP3   OH278876   2.178   6.590   4.573  0.0920  0.4159 -0.0209
19154TIP3    H178877   2.142   6.668   4.615  0.0640 -0.2703  1.2882
19154TIP3    H278878   2.258   6.621   4.530 -1.0672  1.5961 -1.4710
19155TIP3   OH278879   1.898   5.179   6.324 -0.0306  0.0301  0.0998
19155TIP3    H178880   1.967   5.116   6.342  1.7217  1.3849 -1.4759
19155TIP3    H278881   1.918   5.255   6.379 -0.6602  0.1963  0.1156
19156TIP3   OH278882   0.716   5.699   4.699  0.0565  0.8191  0.1032
19156TIP3    H178883   0.623   5.722   4.701 -0.3295 -0.7049  1.0732
19156TIP3    H278884   0.742   5.698   4.791  1.5163  2.9139 -0.2199
19157TIP3   OH278885   3.168   6.741   1.799 -0.1804  0.8787 -0.1215
19157TIP3    H178886   3.227   6.817   1.796 -0.7206  1.2898 -1.2143
19157TIP3    H278887   3.168   6.708   1.709 -1.6778  0.9391 -0.1634
19158TIP3   OH278888   5.333   4.390   5.685 -0.0763  0.2955 -0.6143
19158TIP3    H178889   5.417   4.378   5.640  1.0693  1.9682  0.9673
19158TIP3    H278890   5.349   4.358   5.774 -2.2443 -2.7898 -1.1670
19159TIP3   OH278891   1.770   1.017   5.070  0.0853 -0.3039  0.3517
19159TIP3    H178892   1.827   1.025   4.993  0.3666  0.2664  0.6142
19159TIP3    H278893   1.735   1.105   5.082  1.3889  0.0419  1.9065
19160TIP3   OH278894   2.471   0.821   0.157 -0.1078  0.1622 -0.2288
19160TIP3    H178895   2.507   0.907   0.139  1.3234 -0.4245 -0.2685
19160TIP3    H278896   2.513   0.793   0.238 -0.2265 -0.6764 -0.4402
19161TIP3   OH278897   1.108   1.065  12.433 -0.0915  0.0888 -0.7469
19161TIP3    H178898   1.099   1.009  12.510 -2.1677  2.3317  0.7664
19161TIP3    H278899   1.202   1.080  12.425  0.1318  0.7246  2.1201
19162TIP3   OH278900   0.862   2.042   2.958 -0.0239 -0.2952 -0.2106
19162TIP3    H178901   0.794   2.009   3.017  1.0999  0.1357  1.4157
19162TIP3    H278902   0.858   1.985   2.882 -1.3754 -1.0477  0.3903
19163TIP3   OH278903   3.115   3.935   1.573 -0.4459  0.0315 -0.3184
19163TIP3    H178904   3.150   3.924   1.661 -0.2448  0.5374 -0.3296
19163TIP3    H278905   3.166   4.007   1.535 -0.9873  0.2749 -0.6045
19164TIP3   OH278906   1.496   0.555   5.883 -0.0366  0.1715 -0.0519
19164TIP3    H178907   1.560   0.515   5.942  0.6151  1.2011 -0.0423
19164TIP3    H278908   1.537   0.636   5.853 -1.8871  1.6415  1.1026
19165TIP3   OH278909   6.136   3.514   1.408  0.3002 -0.0314 -0.1153
19165TIP3    H178910   6.203   3.467   1.360  2.3977 -0.7114  3.1700
19165TIP3    H278911   6.061   3.453   1.410  0.9443 -0.8670 -0.6301
19166TIP3   OH278912   0.604   1.204   4.203 -0.3364 -0.2870  0.1473
19166TIP3    H178913   0.627   1.280   4.151 -0.5044 -0.5575 -0.3274
19166TIP3    H278914   0.673   1.140   4.184  0.3092  0.0606  1.2431
19167TIP3   OH278915   2.355   2.029   4.556 -0.2868  0.0002 -0.2400
19167TIP3    H178916   2.295   2.011   4.483 -0.9427 -0.0861  0.3179
19167TIP3    H278917   2.442   2.014   4.519 -0.5645  0.7882 -1.2492
19168TIP3   OH278918   3.703   2.075   0.240 -0.1344  0.1274 -0.3185
19168TIP3    H178919   3.764   2.041   0.174  0.7872 -0.0400  0.6008
19168TIP3    H278920   3.696   2.005   0.305  2.5859  1.9100  2.1641
19169TIP3   OH278921   6.124   0.502   3.339  0.1456  0.2765 -0.1650
19169TIP3    H178922   6.123   0.435   3.407  0.9442 -1.0271 -1.3644
19169TIP3    H278923   6.034   0.503   3.305 -0.7036  2.1155  1.9252
19170TIP3   OH278924   4.405   4.707   4.350  0.0512  0.0446  0.4245
19170TIP3    H178925   4.371   4.710   4.439 -0.0230  1.0946  0.3747
19170TIP3    H278926   4.492   4.746   4.356  0.2238 -0.2848  0.1129
19171TIP3   OH278927   6.377   1.559   3.830 -0.0359 -0.2995 -0.1368
19171TIP3    H178928   6.364   1.519   3.915  0.7859 -1.1448 -0.3833
19171TIP3    H278929   6.351   1.650   3.841  0.5128 -0.2813  1.1459
19172TIP3   OH278930   0.278   3.043   1.573 -0.1022 -0.4347  0.2954
19172TIP3    H178931   0.260   3.070   1.483  0.6021  0.8938  0.5296
19172TIP3    H278932   0.206   2.984   1.596 -0.6522 -0.2486 -0.8995
19173TIP3   OH278933   1.421   3.374  11.060 -0.5081  0.5605  0.2160
19173TIP3    H178934   1.470   3.455  11.048  2.3635 -0.7361  2.0352
19173TIP3    H278935   1.470   3.308  11.011 -0.7081 -0.6903  1.6010
19174TIP3   OH278936   0.961   5.890  12.975  0.1876  0.0111  0.2071
19174TIP3    H178937   0.886   5.949  12.961  0.0363  0.3375  2.1124
19174TIP3    H278938   0.922   5.803  12.978  0.1197  0.0125 -0.4589
19175TIP3   OH278939   2.878   2.148   3.911  0.0817 -0.5198 -0.9560
19175TIP3    H178940   2.811   2.108   3.966 -0.6044 -0.0915 -1.4603
19175TIP3    H278941   2.951   2.087   3.913  0.7988  0.2811  1.8582
19176TIP3   OH278942   2.593   2.163   3.444  0.1229  0.1406  0.4639
19176TIP3    H178943   2.573   2.074   3.414 -0.2721  0.9038 -1.6904
19176TIP3    H278944   2.507   2.200   3.467  0.1464  0.3689  0.1820
19177TIP3   OH278945   4.881   6.785  15.175  0.0598  0.1304  0.7174
19177TIP3    H178946   4.866   6.824  15.089 -1.4746 -0.5516  0.6437
19177TIP3    H278947   4.974   6.763  15.175 -0.1166 -0.8722 -1.2113
19178TIP3   OH278948   0.814   5.333   3.672  0.4105  0.4161  0.3751
19178TIP3    H178949   0.861   5.337   3.589 -2.0099 -0.5586 -1.1639
19178TIP3    H278950   0.787   5.424   3.689  0.7815  0.5961  0.0076
19179TIP3   OH278951   3.463   6.108  11.904  0.4084 -0.0232 -0.0078
19179TIP3    H178952   3.443   6.176  11.839  0.0115 -0.0457  0.0896
19179TIP3    H278953   3.559   6.112  11.913  0.4677  0.0025 -0.5694
19180TIP3   OH278954   0.401   1.836   0.295 -0.2031  0.1597  1.0482
19180TIP3    H178955   0.411   1.764   0.358  3.3985  0.1352  0.6360
19180TIP3    H278956   0.399   1.915   0.349  1.6585  0.0585  1.3325
19181TIP3   OH278957   5.727   3.369  14.565  0.2594  0.2082 -0.1460
19181TIP3    H178958   5.676   3.299  14.606  2.3938 -0.6579  1.2057
19181TIP3    H278959   5.706   3.448  14.615  1.3532 -0.4468  1.4124
19182TIP3   OH278960   4.476   0.427  11.535  0.1241 -0.6175  0.3740
19182TIP3    H178961   4.549   0.412  11.475 -0.9840 -0.5973 -1.0344
19182TIP3    H278962   4.502   0.382  11.615  0.2203 -3.6342 -1.1962
19183TIP3   OH278963   5.527   1.079   3.942  0.4197 -0.2130  0.5209
19183TIP3    H178964   5.551   1.165   3.907 -2.3524 -0.1600 -1.6120
19183TIP3    H278965   5.450   1.096   3.996 -0.2047 -1.3213  0.0187
19184TIP3   OH278966   6.742   1.500  15.884 -0.2597 -0.1387 -0.5082
19184TIP3    H178967   6.697   1.561  15.827 -1.3437 -1.3527 -0.9926
19184TIP3    H278968   6.683   1.425  15.892  0.4688 -0.6042  1.0796
19185TIP3   OH278969   6.401   2.101   3.925 -0.2583  0.1824 -0.2188
19185TIP3    H178970   6.354   2.185   3.930 -0.1166  0.4069 -2.0702
19185TIP3    H278971   6.413   2.075   4.016 -0.1302  2.2676  0.3972
19186TIP3   OH278972   0.792   3.041   4.887 -0.0683 -0.0747  0.6603
19186TIP3    H178973   0.808   3.113   4.826 -0.0660  0.6927  1.5391
19186TIP3    H278974   0.845   3.063   4.964 -0.0855 -1.0131  0.9547
19187TIP3   OH278975   5.089   1.177  13.270  0.6544  0.4272 -0.2848
19187TIP3    H178976   5.172   1.151  13.231 -0.0429  1.1246 -2.4205
19187TIP3    H278977   5.084   1.129  13.352  1.3504 -2.7889 -1.9703
19188TIP3   OH278978   2.147   5.144  14.643  0.1650 -0.9877  0.0146
19188TIP3    H178979   2.184   5.231  14.625 -0.2213 -0.3598  1.9346
19188TIP3    H278980   2.170   5.092  14.567  2.9140  0.0342  0.0003
19189TIP3   OH278981   0.265   0.835  14.285 -0.2412  0.2250  0.8706
19189TIP3    H178982   0.325   0.847  14.359  0.0632 -0.6040  0.7672
19189TIP3    H278983   0.321   0.804  14.214 -0.5463  0.9569  0.3041
19190TIP3   OH278984   4.261   6.613  14.739 -0.2216  0.1646 -0.1413
19190TIP3    H178985   4.222   6.699  14.754  1.3136  0.4226  3.1938
19190TIP3    H278986   4.354   6.630  14.728 -0.2047 -0.9161 -2.2115
19191TIP3   OH278987   1.605   6.425   2.554 -0.2912  0.6297 -0.1878
19191TIP3    H178988   1.587   6.477   2.632 -0.6946  0.9230 -0.4676
19191TIP3    H278989   1.640   6.343   2.587  0.8333  1.2664  0.2383
19192TIP3   OH278990   3.923   0.068  12.953  0.6261 -0.4678  0.2212
19192TIP3    H178991   3.852   0.006  12.942 -0.2376  0.0602  2.2626
19192TIP3    H278992   3.883   0.143  12.997  2.1316  0.5068  0.0108
19193TIP3   OH278993   3.452   6.203   4.149  0.4046  0.8905 -0.5362
19193TIP3    H178994   3.456   6.107   4.152 -1.5572  0.7968  0.9164
19193TIP3    H278995   3.544   6.231   4.153  0.9568 -0.9123  2.5220
19194TIP3   OH278996   5.629   5.095   3.869  0.3432 -0.1432 -0.2046
19194TIP3    H178997   5.591   5.176   3.834  0.2374 -0.1989 -0.2162
19194TIP3    H278998   5.710   5.084   3.820 -0.2562 -0.7190 -1.0680
19195TIP3   OH278999   4.168   5.567  13.394  0.0201 -0.0805 -0.1556
19195TIP3    H179000   4.095   5.507  13.411  1.3145 -1.4896  0.7482
19195TIP3    H279001   4.186   5.556  13.300 -0.2031 -0.6070 -0.1431
19196TIP3   OH279002   1.110   6.380   2.969 -0.0623  0.0682 -0.2790
19196TIP3    H179003   1.191   6.369   2.920 -0.1228  1.8116 -0.8320
19196TIP3    H279004   1.040   6.363   2.906 -0.1316  1.5449 -0.6322
19197TIP3   OH279005   1.499   4.961  12.740  0.2687 -0.6001  0.0953
19197TIP3    H179006   1.572   4.903  12.761  0.5852 -0.3981 -0.4359
19197TIP3    H279007   1.468   4.993  12.825  0.0103 -1.6327  0.4061
19198TIP3   OH279008   3.393   4.230  16.020  0.6085  0.0783  0.1446
19198TIP3    H179009   3.298   4.239  16.020  0.3948 -1.6824 -1.4830
19198TIP3    H279010   3.423   4.294  15.956  0.3896 -0.4391 -0.4744
19199TIP3   OH279011   4.808   5.961   0.983 -0.6004 -0.0001  0.0538
19199TIP3    H179012   4.896   5.931   0.963 -1.2750 -0.3576 -2.6472
19199TIP3    H279013   4.822   6.042   1.033  1.2501 -0.0004 -0.3860
19200TIP3   OH279014   2.139   5.464   5.428  0.5465  0.3388 -0.6533
19200TIP3    H179015   2.065   5.403   5.420  0.7918 -0.1251  0.4758
19200TIP3    H279016   2.206   5.415   5.475  0.7625  1.4535  0.2689
19201TIP3   OH279017   0.945   5.529  13.958 -0.1338 -0.1558 -0.4710
19201TIP3    H179018   0.999   5.463  13.914 -0.2533  0.7575 -2.0636
19201TIP3    H279019   0.876   5.479  14.000  2.0727 -1.4196  1.9767
19202TIP3   OH279020   2.754   4.659   3.159 -0.1165  0.4085 -0.2266
19202TIP3    H179021   2.744   4.676   3.065 -0.0658 -1.6774 -0.6438
19202TIP3    H279022   2.834   4.705   3.183  2.5224 -2.6723 -2.2699
19203TIP3   OH279023   3.136   4.092  12.627  0.6009 -0.2462 -0.4506
19203TIP3    H179024   3.141   3.998  12.610  0.2964  0.1664 -3.1399
19203TIP3    H279025   3.075   4.126  12.561  2.0075  2.0901 -0.6647
19204TIP3   OH279026   2.465   5.200   2.630 -0.6912 -0.1681  0.0087
19204TIP3    H179027   2.475   5.262   2.557 -0.0135  0.0431  0.2724
19204TIP3    H279028   2.553   5.189   2.664 -0.7498 -1.5810 -0.2664
19205TIP3   OH279029   6.307   0.706   4.342  0.2326 -0.4207 -0.2526
19205TIP3    H179030   6.255   0.663   4.410  1.0563 -0.6592  0.2435
19205TIP3    H279031   6.380   0.646   4.327 -0.3017 -0.6958 -1.8536
19206TIP3   OH279032   3.981   4.836   3.897  0.8714  0.4153  0.1411
19206TIP3    H179033   3.975   4.819   3.991  0.6976 -0.7678 -0.0710
19206TIP3    H279034   3.982   4.749   3.857  2.1211  0.8734 -0.8870
19207TIP3   OH279035   4.775   2.246  14.697 -0.1582 -0.2172 -0.0083
19207TIP3    H179036   4.730   2.310  14.643 -2.4592  0.8760  2.9324
19207TIP3    H279037   4.838   2.298  14.748 -0.7897 -0.5413  1.1333
19208TIP3   OH279038   4.997   3.617  16.603  0.0086 -0.4203  0.6635
19208TIP3    H179039   5.019   3.544  16.546  0.2109 -0.7628  1.1757
19208TIP3    H279040   5.079   3.641  16.646  0.0677  0.5031  0.0484
19209TIP3   OH279041   3.365   5.368  14.528 -0.1700 -0.4229  0.2700
19209TIP3    H179042   3.280   5.344  14.567 -0.1364  0.8710  1.1801
19209TIP3    H279043   3.373   5.462  14.543  1.5326 -0.5564  0.3942
19210TIP3   OH279044   0.695   0.059  16.482 -0.2783 -0.0023  0.1264
19210TIP3    H179045   0.614   0.009  16.475  0.4541 -1.2711  0.2793
19210TIP3    H279046   0.713   0.088  16.392 -0.0485 -1.1536 -0.2235
19211TIP3   OH279047   2.907   3.154  14.644 -0.8578 -0.3261  0.0577
19211TIP3    H179048   2.849   3.140  14.718 -0.4028  0.9314  0.6763
19211TIP3    H279049   2.849   3.179  14.572 -1.3381 -1.9220 -0.1571
19212TIP3   OH279050   6.774   5.772  15.706  0.2285 -0.1514 -0.1152
19212TIP3    H179051   6.745   5.858  15.736  0.7732 -0.4481  1.3235
19212TIP3    H279052   6.696   5.733  15.666 -0.3484  0.5175  0.3450
19213TIP3   OH279053   6.429   1.486   0.202  0.0056  0.8075 -0.1186
19213TIP3    H179054   6.342   1.473   0.163 -0.6035  1.7229  0.8782
19213TIP3    H279055   6.411   1.534   0.283  1.5407  1.8610 -0.3748
19214TIP3   OH279056   6.577   5.833  12.126 -0.5230 -0.2257  0.7177
19214TIP3    H179057   6.619   5.917  12.108 -0.6760 -0.1024  0.9218
19214TIP3    H279058   6.613   5.773  12.061 -1.4983  0.3427 -0.3840
19215TIP3   OH279059   5.413   2.539  14.639 -0.1507  0.2762  0.1794
19215TIP3    H179060   5.432   2.459  14.590  1.2739 -0.2974  1.5735
19215TIP3    H279061   5.490   2.594  14.627 -1.2349  1.6335 -1.0140
19216TIP3   OH279062   6.339   5.544   2.364  0.0897  0.4736  0.3823
19216TIP3    H179063   6.387   5.465   2.340 -0.9731 -0.0716  0.0119
19216TIP3    H279064   6.403   5.598   2.411  0.2531 -1.5952  2.7348
19217TIP3   OH279065   4.060   2.179  10.757  0.3390  0.1401  0.2024
19217TIP3    H179066   4.005   2.101  10.766 -1.4946  1.5334  2.2542
19217TIP3    H279067   4.150   2.146  10.766 -0.2231 -1.9417 -1.0826
19218TIP3   OH279068   3.343   2.651  12.662 -0.4867  1.0577 -0.0454
19218TIP3    H179069   3.417   2.708  12.642  0.3253  0.3072  0.7085
19218TIP3    H279070   3.277   2.672  12.596  0.3412  1.8478 -0.6397
19219TIP3   OH279071   3.555   3.092  16.138 -0.0225  0.2484 -0.3707
19219TIP3    H179072   3.533   3.109  16.230  0.8195 -1.6616  0.2535
19219TIP3    H279073   3.572   3.178  16.101  2.5091  0.9427  2.0616
19220TIP3   OH279074   2.543   1.860  12.446 -0.0444 -0.4606  0.0002
19220TIP3    H179075   2.569   1.770  12.463  3.5706  0.1443 -1.4236
19220TIP3    H279076   2.531   1.865  12.352 -0.4519  0.5068  0.0829
19221TIP3   OH279077   1.935   4.125   1.848 -0.1452 -0.2338 -0.4063
19221TIP3    H179078   2.014   4.075   1.871 -0.5916 -1.3349 -1.1998
19221TIP3    H279079   1.906   4.163   1.931 -0.4378 -2.2709  0.4883
19222TIP3   OH279080   4.659   2.133   4.560  0.0381 -0.2017  0.2252
19222TIP3    H179081   4.582   2.153   4.507  0.1689  1.3904  0.5758
19222TIP3    H279082   4.630   2.145   4.651  0.4669 -0.4566  0.4005
19223TIP3   OH279083   4.493   4.854   0.635  0.3173  0.1996 -0.0154
19223TIP3    H179084   4.414   4.876   0.684  0.5597 -1.4260  1.1764
19223TIP3    H279085   4.462   4.809   0.557 -0.0112  1.7820 -0.8457
19224TIP3   OH279086   1.029   1.764  12.568 -0.1922  1.0779  0.3044
19224TIP3    H179087   1.095   1.790  12.504  1.0735  0.1962  1.1975
19224TIP3    H279088   1.055   1.809  12.648 -0.4241  0.3648  0.7836
19225TIP3   OH279089   5.822   2.135  13.075  0.6862 -0.2962  0.3543
19225TIP3    H179090   5.912   2.147  13.106  1.6450  2.0864 -2.7410
19225TIP3    H279091   5.830   2.074  13.002  0.1930  1.2467 -1.0687
19226TIP3   OH279092   3.307   5.795   5.337 -0.2045 -0.7507  0.2220
19226TIP3    H179093   3.291   5.889   5.346  4.0779 -0.0010  3.2206
19226TIP3    H279094   3.315   5.781   5.243  0.3490  2.2144 -0.2744
19227TIP3   OH279095   0.957   4.638  16.294  0.3495  0.2014  0.3084
19227TIP3    H179096   0.919   4.552  16.275 -1.3213  1.0305 -0.2977
19227TIP3    H279097   1.049   4.620  16.313  0.4638 -1.5157 -1.6031
19228TIP3   OH279098   0.706   6.508  12.933  0.3766  0.3198 -0.0587
19228TIP3    H179099   0.746   6.574  12.875  0.8152 -0.6489 -0.8805
19228TIP3    H279100   0.693   6.555  13.016 -0.3652  1.7682 -0.9446
19229TIP3   OH279101   0.101   2.135  16.600  0.0776 -0.0497  0.1088
19229TIP3    H179102   0.190   2.106  16.579  0.1884  0.4816 -0.1723
19229TIP3    H279103   0.071   2.181  16.521 -1.1857 -1.9019 -0.5644
19230TIP3   OH279104   4.563   4.603  17.075  0.4822 -0.1678 -0.2255
19230TIP3    H179105   4.504   4.630  17.004 -1.7724  1.7851  2.1302
19230TIP3    H279106   4.605   4.685  17.103 -0.0249 -0.5171  1.7208
19231TIP3   OH279107   0.411   3.282  12.058 -0.4363 -0.0179  0.3488
19231TIP3    H179108   0.360   3.290  12.139 -1.7654  0.5763 -0.5018
19231TIP3    H279109   0.352   3.235  11.998  0.5054 -0.3982 -0.2942
19232TIP3   OH279110   1.112   2.363   6.240  0.1505  0.0296  0.3992
19232TIP3    H179111   1.059   2.288   6.212  0.1421  0.0151  0.4534
19232TIP3    H279112   1.190   2.325   6.278  1.0449  0.0790 -1.3114
19233TIP3   OH279113   6.726   5.415  11.560  0.1310  0.1307 -0.5680
19233TIP3    H179114   6.713   5.507  11.536  0.3233  0.1914 -0.4405
19233TIP3    H279115   6.649   5.370  11.525  0.3039  0.2522 -1.1138
19234TIP3   OH279116   3.666   1.042   1.553 -0.4471  0.5510  0.3758
19234TIP3    H179117   3.712   1.058   1.636  1.7978 -0.9011 -0.4802
19234TIP3    H279118   3.703   1.107   1.493  0.4299 -0.5087 -0.2733
19235TIP3   OH279119   3.796   1.192  12.823 -0.0139  0.0518  0.6922
19235TIP3    H179120   3.774   1.193  12.730  0.8350  1.0086  0.4805
19235TIP3    H279121   3.809   1.100  12.844 -1.8783 -0.3340  0.2840
19236TIP3   OH279122   1.866   3.476   2.666 -0.0540  0.4149  0.4347
19236TIP3    H179123   1.863   3.498   2.759  1.6620  0.7404  0.4450
19236TIP3    H279124   1.877   3.381   2.664 -1.9012  0.1547  0.4894
19237TIP3   OH279125   4.323   1.757  12.297  0.1762  0.7418 -0.1459
19237TIP3    H179126   4.314   1.760  12.202  1.6983  1.5181 -0.2901
19237TIP3    H279127   4.333   1.664  12.317 -1.8001  0.3967 -0.5313
19238TIP3   OH279128   1.485   4.699  12.158  0.2461 -0.1869  0.2477
19238TIP3    H179129   1.476   4.759  12.233  2.4640 -1.1879  1.4105
19238TIP3    H279130   1.516   4.617  12.197  0.0010 -1.2253 -1.6406
19239TIP3   OH279131   2.245   5.027   3.435  0.5173  0.4336 -0.6216
19239TIP3    H179132   2.198   4.972   3.373 -0.7762  1.0050 -0.1919
19239TIP3    H279133   2.269   4.969   3.507  0.4654  0.1327 -0.8474
19240TIP3   OH279134   3.823   0.508   5.774  0.5322  0.2442  0.0609
19240TIP3    H179135   3.914   0.533   5.761  0.4076  0.1130 -1.2195
19240TIP3    H279136   3.824   0.451   5.850  1.8059 -1.1941 -0.9652
19241TIP3   OH279137   4.233   1.437  15.654 -0.3664  0.5056 -0.1438
19241TIP3    H179138   4.319   1.423  15.693 -0.1622 -1.6706 -1.2521
19241TIP3    H279139   4.249   1.499  15.583  0.2476  0.3133 -0.1826
19242TIP3   OH279140   0.325   0.347   2.400 -0.1398  0.6743  0.1990
19242TIP3    H179141   0.331   0.292   2.321  1.7323  2.2488 -0.8506
19242TIP3    H279142   0.231   0.352   2.418 -0.4253 -2.9053  0.4641
19243TIP3   OH279143   4.841   5.509  13.590  1.2105  0.0609  0.0993
19243TIP3    H179144   4.758   5.494  13.634 -0.7774 -0.0894 -3.3591
19243TIP3    H279145   4.869   5.422  13.560  0.7581  0.4854 -1.6863
19244TIP3   OH279146   4.876   5.503   2.927  0.0457 -0.3680 -0.2045
19244TIP3    H179147   4.800   5.513   2.870  1.7841  3.3245 -2.2150
19244TIP3    H279148   4.840   5.486   3.014 -2.8884 -1.1883 -1.4759
19245TIP3   OH279149   1.069   6.319   5.089 -0.1358  0.3085 -0.4402
19245TIP3    H179150   1.079   6.409   5.060  0.8938  0.2415 -0.3492
19245TIP3    H279151   1.133   6.309   5.160 -0.6808 -0.3105 -0.0208
19246TIP3   OH279152   4.627   0.871  12.622 -0.2585  0.2805  0.1878
19246TIP3    H179153   4.569   0.805  12.583  0.2524  0.9162 -1.8039
19246TIP3    H279154   4.574   0.951  12.622 -0.6618  0.0437  2.0034
19247TIP3   OH279155   5.834   0.237  13.950 -0.0797 -0.3388  0.2360
19247TIP3    H179156   5.770   0.295  13.991 -1.3147  0.0356 -2.0561
19247TIP3    H279157   5.786   0.157  13.930  0.0721 -0.0401 -1.5496
19248TIP3   OH279158   0.074   3.357  14.213  0.0937  0.7162  0.6649
19248TIP3    H179159   0.077   3.450  14.192  1.0149  0.3865 -0.9037
19248TIP3    H279160   0.157   3.323  14.179 -1.6059 -1.2405 -1.9158
19249TIP3   OH279161   1.875   1.900  12.638 -0.6582 -0.0733 -0.1288
19249TIP3    H179162   1.931   1.836  12.683 -0.6455 -0.4589 -0.6675
19249TIP3    H279163   1.910   1.985  12.663  0.1591 -0.3084 -0.4217
19250TIP3   OH279164   2.383   2.931   4.541 -0.1764  0.5465 -0.0363
19250TIP3    H179165   2.373   3.002   4.477 -1.4626  0.4690  0.0614
19250TIP3    H279166   2.295   2.916   4.575  0.0345 -1.1898 -0.1502
19251TIP3   OH279167   3.743   6.589   4.122 -0.5451  0.0220  0.5427
19251TIP3    H179168   3.794   6.669   4.113 -0.3969 -0.1577 -0.2454
19251TIP3    H279169   3.673   6.611   4.183  0.9925  0.0353  2.4136
19252TIP3   OH279170   4.447   3.687  11.830 -0.0518  0.0713 -0.1428
19252TIP3    H179171   4.543   3.694  11.834 -0.1624  2.1955 -0.3803
19252TIP3    H279172   4.416   3.739  11.904 -1.0431  0.9251 -1.1217
19253TIP3   OH279173   4.420   5.290  15.224  0.0278  0.3836 -0.7631
19253TIP3    H179174   4.363   5.290  15.300 -0.7693  2.2432 -1.3049
19253TIP3    H279175   4.384   5.222  15.167  0.9653 -1.4102  0.6988
19254TIP3   OH279176   2.523   5.399   1.699 -0.2303  0.0771 -0.5045
19254TIP3    H179177   2.615   5.414   1.673 -0.4449 -1.0442 -2.0924
19254TIP3    H279178   2.507   5.308   1.675 -1.7921  0.2943 -0.3366
19255TIP3   OH279179   1.727   1.737   1.188 -0.5158 -0.1611  0.1557
19255TIP3    H179180   1.690   1.653   1.215  0.0173  0.0196  1.5164
19255TIP3    H279181   1.731   1.789   1.269 -1.6597  1.5189 -0.7786
19256TIP3   OH279182   4.610   2.156  16.203  0.4106  0.2964 -0.2452
19256TIP3    H179183   4.631   2.233  16.150  0.9879 -0.3741 -1.0172
19256TIP3    H279184   4.515   2.149  16.199  0.2629  1.5277  0.6551
19257TIP3   OH279185   6.755   3.999  15.700  0.1731 -0.0198 -0.1401
19257TIP3    H179186   6.723   4.023  15.787 -2.2784 -0.6924 -0.7812
19257TIP3    H279187   6.809   3.921  15.714 -0.0369 -0.0007  0.7910
19258TIP3   OH279188   6.025   6.517   4.671 -0.9173 -0.0213  0.1045
19258TIP3    H179189   6.016   6.433   4.715  1.0943 -0.1375  0.3493
19258TIP3    H279190   5.981   6.505   4.587 -0.3584 -1.4179  0.0029
19259TIP3   OH279191   4.616   5.750  12.106 -0.2984 -0.2010  0.1256
19259TIP3    H179192   4.647   5.793  12.186  0.0057  0.1136 -0.1538
19259TIP3    H279193   4.696   5.723  12.061 -0.3402  1.5195 -1.0977
19260TIP3   OH279194   5.466   4.694   4.575 -0.3366 -0.2088  0.0667
19260TIP3    H179195   5.439   4.691   4.484  2.2771  3.7061 -1.1194
19260TIP3    H279196   5.404   4.754   4.617  0.1635  0.2881  0.1038
19261TIP3   OH279197   1.539   4.553   6.660 -0.1733  0.0085 -0.3931
19261TIP3    H179198   1.463   4.590   6.615  0.0523 -0.0821 -0.8548
19261TIP3    H279199   1.507   4.469   6.695 -1.0481  1.1296  1.7327
19262TIP3   OH279200   0.798   3.762   5.812 -0.7825  0.1598  0.8312
19262TIP3    H179201   0.724   3.788   5.757 -0.2711  1.4699  0.7316
19262TIP3    H279202   0.843   3.844   5.833  1.6504 -0.7025 -0.5221
19263TIP3   OH279203   2.975   6.408   3.771 -0.2412  0.3820 -0.4826
19263TIP3    H179204   2.994   6.344   3.840 -0.6505  0.5403 -0.2174
19263TIP3    H279205   2.971   6.492   3.817  0.0453  0.5659 -0.7905
19264TIP3   OH279206   2.834   1.489  11.878  0.3283  0.1489 -0.0606
19264TIP3    H179207   2.779   1.515  11.805 -0.5003 -1.0460  0.1001
19264TIP3    H279208   2.780   1.503  11.956  0.7410  0.2427  0.2116
19265TIP3   OH279209   4.129   5.017   0.182  0.8479  0.3527  0.2055
19265TIP3    H179210   4.163   5.030   0.270 -1.0112 -0.1453  1.0519
19265TIP3    H279211   4.053   5.074   0.176  1.5016  1.1090 -1.4505
19266TIP3   OH279212   5.540   0.692  15.085 -0.3508 -0.0731  0.6724
19266TIP3    H179213   5.540   0.739  15.002  1.4295 -0.0414  0.6388
19266TIP3    H279214   5.530   0.600  15.060  3.8060 -0.5321 -0.0445
19267TIP3   OH279215   5.171   5.832  14.754  0.1444  0.3042  0.5284
19267TIP3    H179216   5.162   5.762  14.690 -1.0524  0.8274  0.1013
19267TIP3    H279217   5.249   5.809  14.805  0.8371 -0.3665 -0.8046
19268TIP3   OH279218   5.495   1.024   3.353  0.3713 -0.6726  0.3167
19268TIP3    H179219   5.582   1.012   3.315  0.6432  0.7164  0.4721
19268TIP3    H279220   5.472   0.937   3.387  2.7026 -0.5640  2.4339
19269TIP3   OH279221   5.530   4.593   5.754  0.3681 -0.2043  0.1225
19269TIP3    H179222   5.474   4.606   5.677 -1.4927  0.4389  1.4971
19269TIP3    H279223   5.473   4.612   5.829  1.7630 -1.9414  1.7381
19270TIP3   OH279224   2.335   5.433   5.002  0.2701 -0.3193  0.3694
19270TIP3    H179225   2.329   5.444   4.907 -0.0831  1.3603  0.5543
19270TIP3    H279226   2.267   5.489   5.037  0.9592 -0.2471  1.6462
19271TIP3   OH279227   5.716   2.508   2.624 -0.0680  0.5799 -0.0648
19271TIP3    H179228   5.805   2.536   2.647  0.3297  0.2937 -1.2054
19271TIP3    H279229   5.691   2.449   2.696 -0.4263  2.7567  1.6903
19272TIP3   OH279230   4.867   1.088   0.511  0.0321 -0.1951  0.5899
19272TIP3    H179231   4.857   1.004   0.555 -0.0109  0.2942  1.5486
19272TIP3    H279232   4.863   1.067   0.418 -2.1985 -1.0044  0.7903
19273TIP3   OH279233   4.582   5.419   2.549  0.5195 -0.0201 -0.2821
19273TIP3    H179234   4.630   5.497   2.577  0.5847 -0.3634  0.6021
19273TIP3    H279235   4.598   5.355   2.619 -0.0673 -0.6097 -0.6775
19274TIP3   OH279236   2.686   6.475   3.430 -0.2190  0.0196  0.3426
19274TIP3    H179237   2.776   6.507   3.425 -0.1761 -0.3215 -1.4647
19274TIP3    H279238   2.692   6.381   3.415 -0.8618 -0.0427  0.4346
19275TIP3   OH279239   0.325   1.221  14.063 -0.5214  0.2934 -0.3090
19275TIP3    H179240   0.272   1.267  13.998 -2.4575 -1.0212  0.2359
19275TIP3    H279241   0.355   1.142  14.018 -0.3611  0.2546 -0.1366
19276TIP3   OH279242   2.307   4.514   4.871 -0.0740 -0.1334  0.4927
19276TIP3    H179243   2.315   4.482   4.781  1.2728 -0.1866  0.6100
19276TIP3    H279244   2.239   4.580   4.867 -0.5925 -0.7014 -0.4095
19277TIP3   OH279245   5.848   2.781  14.427  0.5709 -0.0378 -0.2657
19277TIP3    H179246   5.873   2.689  14.419  0.8561  0.0543 -0.4313
19277TIP3    H279247   5.752   2.780  14.418  0.4441 -0.4497  0.9618
19278TIP3   OH279248   5.048   4.723   0.382  0.0508 -0.1331 -0.0697
19278TIP3    H179249   5.041   4.784   0.309 -1.7195  0.2306  0.3705
19278TIP3    H279250   5.137   4.688   0.375  1.2660  2.7072 -0.1520
19279TIP3   OH279251   4.640   4.753   1.637 -0.0752 -0.5484  0.1286
19279TIP3    H179252   4.611   4.842   1.615  1.9853  0.4454  1.1525
19279TIP3    H279253   4.561   4.710   1.669 -1.2142  0.7857 -0.7482
19280TIP3   OH279254   4.271   1.734  12.735  0.3179  0.4976  0.5588
19280TIP3    H179255   4.276   1.663  12.671  1.4467  1.2819 -0.2622
19280TIP3    H279256   4.351   1.725  12.787 -0.7170 -0.3083  2.0985
19281TIP3   OH279257   2.235   0.569   1.794 -0.6204  0.3418  0.2387
19281TIP3    H179258   2.196   0.607   1.715 -0.2850 -0.7788 -0.4904
19281TIP3    H279259   2.325   0.548   1.769 -0.0102  1.4121  1.4134
19282TIP3   OH279260   1.524   1.931  15.793  0.0014 -0.1603  0.0667
19282TIP3    H179261   1.503   2.023  15.809 -2.5812 -1.0398  2.8623
19282TIP3    H279262   1.619   1.925  15.804  0.2353  2.1653 -0.2737
19283TIP3   OH279263   2.651   5.938   0.764 -0.1080  0.2251  0.4866
19283TIP3    H179264   2.658   6.024   0.805 -0.3264  0.4848 -0.0135
19283TIP3    H279265   2.641   5.877   0.838 -0.8546  0.7205  0.8053
19284TIP3   OH279266   1.924   6.034   5.879  0.3296 -0.7307 -0.2883
19284TIP3    H179267   1.888   5.979   5.809 -0.2969 -0.7170  0.0171
19284TIP3    H279268   2.001   6.075   5.839 -1.3733  1.1999 -1.8068
19285TIP3   OH279269   0.174   2.297  16.034  0.4175  0.3751 -0.3969
19285TIP3    H179270   0.170   2.372  16.094  2.0343  0.0981  0.0904
19285TIP3    H279271   0.131   2.328  15.955 -4.3020 -0.0975  1.6581
19286TIP3   OH279272   4.021   5.330   3.449  0.4626 -0.2036 -0.0774
19286TIP3    H179273   4.004   5.400   3.512  1.3847  0.1110 -0.1514
19286TIP3    H279274   3.949   5.335   3.386 -0.7511 -0.8614  1.2260
19287TIP3   OH279275   5.530   6.306   3.160  0.5746 -0.2162  0.2328
19287TIP3    H179276   5.552   6.360   3.084 -1.2205  0.1143 -0.0838
19287TIP3    H279277   5.493   6.226   3.123 -3.5775  1.2982  0.6220
19288TIP3   OH279278   6.492   6.340  13.508 -0.0683 -0.4671 -0.4441
19288TIP3    H179279   6.579   6.381  13.512 -1.4468  2.7426 -0.1441
19288TIP3    H279280   6.453   6.375  13.428 -2.1466  0.6685  0.9795
19289TIP3   OH279281   3.491   2.751  17.145 -0.3250 -0.0156 -0.3578
19289TIP3    H179282   3.556   2.780  17.208 -1.1022  0.2310  0.3561
19289TIP3    H279283   3.494   2.655  17.150  0.6165 -0.0205 -1.0033
19290TIP3   OH279284   5.375   3.064  14.801 -0.0654  0.6535  0.1748
19290TIP3    H179285   5.431   2.989  14.779 -1.6780 -0.4536 -0.3022
19290TIP3    H279286   5.286   3.032  14.788 -0.8069  3.3225 -2.2954
19291TIP3   OH279287   0.415   0.004   5.889 -0.3676 -0.0946 -0.1732
19291TIP3    H179288   0.487   0.066   5.897 -0.5480 -0.1553  2.7697
19291TIP3    H279289   0.457  -0.081   5.878 -0.1247  0.2895 -3.2876
19292TIP3   OH279290   1.578   0.774   5.025  0.5219 -0.0188 -0.4498
19292TIP3    H179291   1.494   0.811   5.052  0.4593 -0.1790 -0.4247
19292TIP3    H279292   1.643   0.831   5.065  0.4266 -0.0207 -0.2905
19293TIP3   OH279293   1.374   3.974   0.661 -0.5470 -0.1284  0.1147
19293TIP3    H179294   1.357   3.942   0.750  1.3068  0.6396  0.8018
19293TIP3    H279295   1.441   3.915   0.627 -2.1737 -1.2342 -1.3309
19294TIP3   OH279296   3.465   3.224  13.587  0.2215  0.0855 -0.0223
19294TIP3    H179297   3.472   3.304  13.534  2.1350  0.1324  0.2554
19294TIP3    H279298   3.492   3.251  13.675 -0.9518 -0.4613  0.5277
19295TIP3   OH279299   2.882   4.524  13.541  0.1177  0.0370 -0.0168
19295TIP3    H179300   2.846   4.458  13.481  1.9953 -0.0450 -1.1442
19295TIP3    H279301   2.882   4.480  13.627 -0.7980 -0.5618 -0.3004
19296TIP3   OH279302   4.506   0.730  11.288  0.1086 -0.6374  0.2371
19296TIP3    H179303   4.476   0.780  11.212  1.7470  1.0746  0.6352
19296TIP3    H279304   4.558   0.659  11.251  1.0677  0.3031 -0.2927
19297TIP3   OH279305   4.566   3.614  15.752 -0.1421 -0.2746  0.1620
19297TIP3    H179306   4.524   3.672  15.688  1.1546  0.6448  0.1146
19297TIP3    H279307   4.529   3.640  15.836 -2.0541 -1.6619 -0.1806
19298TIP3   OH279308   3.114   3.898   6.200 -0.1353 -0.1374 -0.2852
19298TIP3    H179309   3.147   3.983   6.229 -0.8112  0.2244 -0.5465
19298TIP3    H279310   3.130   3.897   6.105 -1.6220  0.4035 -0.5612
19299TIP3   OH279311   5.234   5.464   0.938 -0.3892 -0.0335 -0.2170
19299TIP3    H179312   5.236   5.371   0.957  0.3905 -0.4209 -1.9503
19299TIP3    H279313   5.321   5.496   0.959 -0.9735  0.5663  1.4133
19300TIP3   OH279314   2.961   0.870   1.876  0.8057 -0.5028 -0.2768
19300TIP3    H179315   2.875   0.828   1.879  0.7675 -0.5212 -1.2381
19300TIP3    H279316   3.024   0.799   1.890  0.7604 -1.0227 -2.3380
19301TIP3   OH279317   5.404   6.644   1.746  0.4040  0.0529 -0.3909
19301TIP3    H179318   5.341   6.607   1.686  1.1090 -2.6195  0.3822
19301TIP3    H279319   5.385   6.603   1.830  1.4570  1.2529  0.4873
19302TIP3   OH279320   6.632   1.143   0.882 -0.1959  0.3467 -0.4159
19302TIP3    H179321   6.551   1.189   0.861  0.0881  0.9516 -0.2338
19302TIP3    H279322   6.697   1.181   0.823 -0.3792 -1.3541 -1.7929
19303TIP3   OH279323   4.180   3.630  11.218 -0.0772 -0.1680  0.2532
19303TIP3    H179324   4.238   3.557  11.197  0.1930  0.3358 -0.8288
19303TIP3    H279325   4.126   3.598  11.290 -0.2117 -1.5618 -0.4431
19304TIP3   OH279326   2.347   5.226   6.295  0.0200  0.1629 -0.1471
19304TIP3    H179327   2.275   5.281   6.328  1.4844  0.7932  2.2410
19304TIP3    H279328   2.321   5.204   6.205 -2.1232  2.1225 -0.1055
19305TIP3   OH279329   6.109   5.447  12.749 -0.1861  0.6593  0.5847
19305TIP3    H179330   6.069   5.482  12.829 -1.7981 -0.9912  0.5989
19305TIP3    H279331   6.034   5.413  12.699  1.0286 -0.7053 -0.3868
19306TIP3   OH279332   4.358   4.065   0.294  0.2737  0.2100 -0.4117
19306TIP3    H179333   4.405   3.982   0.300  0.4697  0.3713  0.3173
19306TIP3    H279334   4.276   4.043   0.249  0.2393 -0.4124 -0.0567
19307TIP3   OH279335   2.888   3.058  14.171  0.1895 -0.2391  0.4370
19307TIP3    H179336   2.818   3.112  14.207 -0.4646 -0.1267 -0.9285
19307TIP3    H279337   2.856   3.031  14.085  1.2834 -1.2804  0.3254
19308TIP3   OH279338   4.680   2.721   5.206 -0.2477  0.2193  0.1075
19308TIP3    H179339   4.718   2.798   5.163  1.2786 -0.2146  0.6211
19308TIP3    H279340   4.752   2.684   5.258 -1.0776 -1.2857  0.2481
19309TIP3   OH279341   3.585   1.821  15.984 -0.1168  0.5805  0.2317
19309TIP3    H179342   3.650   1.752  15.992  0.4325  0.8567 -1.5122
19309TIP3    H279343   3.627   1.898  16.022  1.0375  1.0213 -1.8312
19310TIP3   OH279344   1.887   4.319   0.751  0.2919 -0.1318 -0.1037
19310TIP3    H179345   1.934   4.397   0.779  2.2547 -0.8532 -1.1932
19310TIP3    H279346   1.799   4.351   0.729  0.2925  1.3072  1.7321
19311TIP3   OH279347   0.262   1.385   0.811  0.8538  0.6402  0.4379
19311TIP3    H179348   0.321   1.323   0.767 -0.0276  1.8207 -2.6876
19311TIP3    H279349   0.212   1.330   0.872  1.8693 -1.2522 -0.3218
19312TIP3   OH279350   0.010   0.362   0.684 -0.4325  0.5733  0.1501
19312TIP3    H179351   0.052   0.296   0.738  2.2477  1.3559 -0.8214
19312TIP3    H279352  -0.052   0.406   0.743  1.4856  0.5832  2.2672
19313TIP3   OH279353   5.852   2.428  15.772 -0.1457  0.4272 -0.0154
19313TIP3    H179354   5.805   2.367  15.828  0.3812  0.9507  1.0135
19313TIP3    H279355   5.791   2.499  15.756 -0.0423  0.6357  0.5131
19314TIP3   OH279356   1.823   6.449  13.277 -0.2597 -0.5132 -0.4604
19314TIP3    H179357   1.806   6.522  13.337 -0.4260  0.0610 -1.1957
19314TIP3    H279358   1.792   6.372  13.324 -1.0084  0.0127 -0.0778
19315TIP3   OH279359   3.603   1.783  13.662 -0.1773 -0.2467 -0.1816
19315TIP3    H179360   3.684   1.738  13.640  0.1730  0.2099  0.1387
19315TIP3    H279361   3.589   1.844  13.590 -0.3117 -0.4205 -0.3041
19316TIP3   OH279362   5.712   0.452  14.082  0.2408 -0.3051  0.1578
19316TIP3    H179363   5.625   0.421  14.109  1.0048 -0.9517  1.9902
19316TIP3    H279364   5.773   0.411  14.143  1.8499  0.2579 -0.9976
19317TIP3   OH279365   5.192   5.963   0.135  0.4573 -0.6254  0.2037
19317TIP3    H179366   5.137   5.924   0.203 -0.1996  2.1860  1.4339
19317TIP3    H279367   5.133   5.976   0.061  0.7935 -2.2928 -0.3839
19318TIP3   OH279368   5.766   2.009  14.917  0.0443  0.0897 -0.0970
19318TIP3    H179369   5.697   2.052  14.967  1.9209  2.8441  0.3501
19318TIP3    H279370   5.777   1.924  14.960  0.0858  1.4820  2.8782
19319TIP3   OH279371   2.435   6.000  12.994 -0.1635 -0.2208  0.3436
19319TIP3    H179372   2.368   5.988  12.927  0.8571  2.5237 -1.3543
19319TIP3    H279373   2.518   6.000  12.946  0.6283  1.5911  1.5906
19320TIP3   OH279374   0.408   0.460  11.885  0.0375 -0.3759 -0.3373
19320TIP3    H179375   0.372   0.485  11.970 -1.6545 -0.0743 -1.1053
19320TIP3    H279376   0.470   0.390  11.905 -1.0742 -1.0155  1.0647
19321TIP3   OH279377   2.986   1.085  15.567  0.4409  0.4829  0.5215
19321TIP3    H179378   2.923   1.129  15.624  1.7704  0.9922  1.6485
19321TIP3    H279379   2.979   1.131  15.484 -1.0418  0.1786  0.4500
19322TIP3   OH279380   6.402   6.767  14.864 -0.0781 -0.0362 -0.2161
19322TIP3    H179381   6.468   6.733  14.924 -0.6224  0.5318  0.7259
19322TIP3    H279382   6.333   6.803  14.920 -1.9669 -1.9928 -1.1489
19323TIP3   OH279383   2.677   5.700   6.138 -0.1631 -0.0681  0.6283
19323TIP3    H179384   2.772   5.712   6.142  0.0720 -1.4069 -0.2057
19323TIP3    H279385   2.646   5.769   6.080  0.0106  1.6296  2.4723
19324TIP3   OH279386   4.088   4.412   0.303  0.3070 -0.0496  0.0077
19324TIP3    H179387   4.008   4.390   0.255  0.0117 -1.0235  0.9182
19324TIP3    H279388   4.114   4.498   0.269 -0.4110 -0.2975 -1.2126
19325TIP3   OH279389   2.436   4.270  14.719 -0.7026 -0.0560 -0.5506
19325TIP3    H179390   2.512   4.312  14.759  0.4023 -2.1397 -0.3334
19325TIP3    H279391   2.375   4.257  14.792 -0.1165 -0.8007 -0.1819
19326TIP3   OH279392   4.813   0.216   0.846 -0.2144 -0.2247  0.1995
19326TIP3    H179393   4.777   0.299   0.815  0.0940  0.6453  2.0710
19326TIP3    H279394   4.740   0.173   0.889 -0.1655 -0.5616 -0.0502
19327TIP3   OH279395   6.728   4.316   1.382  0.4578  0.4847 -0.4531
19327TIP3    H179396   6.801   4.316   1.443 -0.3744  0.3220  0.5654
19327TIP3    H279397   6.745   4.241   1.324  1.0920  0.4534 -0.2311
19328TIP3   OH279398   1.121   1.174   1.516 -0.1054 -0.0250 -0.4421
19328TIP3    H179399   1.063   1.247   1.537 -0.6560 -0.5165 -0.2078
19328TIP3    H279400   1.142   1.135   1.601 -2.4547 -2.1068 -0.6746
19329TIP3   OH279401   1.150   6.635  16.621 -0.4041 -0.0323  0.2331
19329TIP3    H179402   1.056   6.618  16.626 -0.1718 -0.9839  2.0168
19329TIP3    H279403   1.186   6.601  16.703  1.4141  0.9344 -0.0919
19330TIP3   OH279404   4.400   5.018   3.145 -0.7993 -0.1626 -0.2689
19330TIP3    H179405   4.429   5.108   3.163  0.9743 -0.5966 -0.7043
19330TIP3    H279406   4.394   4.978   3.232 -1.6846  0.3914 -0.0659
19331TIP3   OH279407   5.852   1.078   5.592 -0.7211  0.3722 -0.3612
19331TIP3    H179408   5.840   1.134   5.668 -2.4975 -0.0241 -0.3129
19331TIP3    H279409   5.779   1.100   5.534 -1.5201 -1.9067 -0.3082
19332TIP3   OH279410   0.113   4.089   3.493 -0.0262 -0.4712 -0.0936
19332TIP3    H179411   0.151   4.044   3.418  1.6254  0.8417 -0.1077
19332TIP3    H279412   0.143   4.039   3.569 -1.5638 -1.7057 -0.2558
19333TIP3   OH279413   4.779   2.212  14.300  0.0508  0.3019 -0.6586
19333TIP3    H179414   4.780   2.117  14.295 -1.6132  0.2427 -0.4577
19333TIP3    H279415   4.847   2.233  14.364  0.1172 -0.7871 -0.3494
19334TIP3   OH279416   5.734   0.947  11.337 -0.3311 -0.3415 -0.6254
19334TIP3    H179417   5.712   1.006  11.409 -1.0300 -0.4399 -0.7429
19334TIP3    H279418   5.829   0.954  11.327 -0.1679 -0.6455  0.5827
19335TIP3   OH279419   5.276   5.146  11.094 -0.8486  0.6404  0.7261
19335TIP3    H179420   5.354   5.201  11.088 -2.2028  2.7654  1.4532
19335TIP3    H279421   5.214   5.186  11.033 -1.5101 -0.8109  0.3981
19336TIP3   OH279422   5.367   6.547   0.734  0.5401  0.3053  0.5073
19336TIP3    H179423   5.443   6.569   0.681  1.5425 -1.9176  0.9286
19336TIP3    H279424   5.301   6.612   0.708  1.8524  0.9659 -1.4504
19337TIP3   OH279425   0.678   0.052   5.843  0.4458 -0.4648 -0.1394
19337TIP3    H179426   0.725   0.080   5.764  0.8956 -0.1885  0.2187
19337TIP3    H279427   0.740  -0.006   5.888  0.8363  0.6480  0.8188
19338TIP3   OH279428   1.646   6.749  14.872  0.3248 -0.1106 -0.4838
19338TIP3    H179429   1.599   6.788  14.946  1.9079 -4.1416  3.0698
19338TIP3    H279430   1.714   6.813  14.850 -1.7231  2.2991 -0.3688
19339TIP3   OH279431   3.608   5.901   1.054  0.6699 -0.1806 -0.4903
19339TIP3    H179432   3.688   5.908   1.003  1.5335 -2.6042  0.3608
19339TIP3    H279433   3.538   5.920   0.992  1.8421  2.2084 -1.2034
19340TIP3   OH279434   3.605   1.052  16.344  0.2900  0.3507  0.5923
19340TIP3    H179435   3.621   0.957  16.346 -0.4952  0.2058  0.3724
19340TIP3    H279436   3.671   1.089  16.402 -0.4990 -0.5061  2.0881
19341TIP3   OH279437   1.933   0.837  13.737 -0.3076 -0.1289 -0.0495
19341TIP3    H179438   1.877   0.914  13.753 -1.3127 -0.6900 -0.7277
19341TIP3    H279439   1.934   0.791  13.821 -0.3529  0.2078  0.1400
19342TIP3   OH279440   6.038   2.160  15.550  0.5188 -0.5100 -0.1963
19342TIP3    H179441   6.062   2.209  15.629 -1.3992  0.4440 -0.1551
19342TIP3    H279442   5.950   2.126  15.569 -0.6870  1.0920 -2.4802
19343TIP3   OH279443   2.887   5.782  17.134  0.8169 -0.2334  0.0741
19343TIP3    H179444   2.868   5.805  17.043  2.5217 -0.7523 -0.4407
19343TIP3    H279445   2.939   5.703  17.128  0.5337 -0.5552  1.5480
19344TIP3   OH279446   0.469   1.139   0.305  0.2186 -0.9257  0.2840
19344TIP3    H179447   0.413   1.198   0.255  0.2681 -0.1902  1.0673
19344TIP3    H279448   0.445   1.051   0.275 -1.0572 -0.6020  0.3060
19345TIP3   OH279449   2.311   1.396   1.430 -0.4467 -0.0623  0.1897
19345TIP3    H179450   2.330   1.488   1.445 -1.0324  0.1499 -0.3060
19345TIP3    H279451   2.234   1.378   1.485  0.2636 -0.5232  1.0575
19346TIP3   OH279452   3.293   0.231   0.331  0.3680  0.3449  0.4354
19346TIP3    H179453   3.240   0.154   0.311 -1.4215  1.6792 -0.1321
19346TIP3    H279454   3.378   0.195   0.359 -0.4930 -1.8163  0.4214
19347TIP3   OH279455   0.070   6.121   4.343 -0.1155  0.7312  0.0616
19347TIP3    H179456  -0.025   6.126   4.336 -0.2392 -1.9906 -1.7816
19347TIP3    H279457   0.090   6.155   4.430 -2.4633  3.5876 -0.3304
19348TIP3   OH279458   0.907   6.373  13.315  0.4032 -0.0706 -0.2148
19348TIP3    H179459   0.997   6.401  13.296  0.2418 -1.2307 -3.0848
19348TIP3    H279460   0.906   6.280  13.294 -0.9338 -0.6703  2.1084
19349TIP3   OH279461   3.454   4.236  15.418 -0.3539 -0.4724 -0.4039
19349TIP3    H179462   3.470   4.154  15.372 -2.3622 -0.7335 -0.7522
19349TIP3    H279463   3.396   4.211  15.490  1.9382  0.0885  1.7684
19350TIP3   OH279464   4.157   6.494  11.199 -0.2268  0.0843  0.2418
19350TIP3    H179465   4.120   6.543  11.126  1.0131 -1.8154 -1.8145
19350TIP3    H279466   4.111   6.410  11.198  1.0317 -0.6485  0.4400
19351TIP3   OH279467   4.876   4.313   1.800 -0.7588 -0.1572 -0.1469
19351TIP3    H179468   4.952   4.342   1.750  0.4379 -0.4806  1.4197
19351TIP3    H279469   4.810   4.293   1.733  0.2163  0.9449 -1.4964
19352TIP3   OH279470   0.060   5.702  12.036  0.2793  0.4051 -0.0408
19352TIP3    H179471   0.001   5.636  12.073  0.5321  0.7129  0.9460
19352TIP3    H279472   0.049   5.694  11.941 -1.1050  0.2365  0.1146
19353TIP3   OH279473   2.820   1.578   4.796 -0.2449 -0.1084 -0.3300
19353TIP3    H179474   2.823   1.588   4.891 -1.7429  1.1460 -0.3722
19353TIP3    H279475   2.818   1.484   4.781 -2.6579 -0.3548  1.0444
19354TIP3   OH279476   4.616   0.663   0.122 -0.2853 -0.0866  0.6448
19354TIP3    H179477   4.551   0.698   0.061 -1.1342  1.8117  2.4991
19354TIP3    H279478   4.695   0.650   0.068 -1.6216 -0.7129 -1.2817
19355TIP3   OH279479   2.373   4.385  13.287  0.2283  0.1415  0.0956
19355TIP3    H179480   2.376   4.290  13.294  0.0979  0.1709  0.5987
19355TIP3    H279481   2.374   4.402  13.193  0.0297 -0.3660 -0.0036
19356TIP3   OH279482   5.979   6.102   1.075 -0.1883 -0.2747  0.2376
19356TIP3    H179483   6.064   6.071   1.106  0.9182 -0.1141 -2.3570
19356TIP3    H279484   5.948   6.162   1.144  1.6043 -0.6362  1.4199
19357TIP3   OH279485   6.362   1.684  13.978 -0.0166  0.1808  0.0924
19357TIP3    H179486   6.298   1.673  13.908 -2.2743 -1.2277  2.2007
19357TIP3    H279487   6.356   1.777  14.002 -0.3913  0.3191 -0.5340
19358TIP3   OH279488   6.085   5.574   3.103  0.5552 -0.3157 -0.0289
19358TIP3    H179489   6.167   5.534   3.073  0.5305 -1.5563  1.4137
19358TIP3    H279490   6.042   5.505   3.153 -0.2665  1.0514  1.2256
19359TIP3   OH279491   3.504   5.497   1.127 -0.4255  0.5156 -0.4010
19359TIP3    H179492   3.583   5.444   1.119 -0.8105  0.0295 -1.1223
19359TIP3    H279493   3.433   5.433   1.136 -1.0141  0.8282 -2.2488
19360TIP3   OH279494   0.692   2.905  16.951  0.6141  0.2747  0.1511
19360TIP3    H179495   0.597   2.912  16.945  0.6559  2.1074  0.9896
19360TIP3    H279496   0.724   2.995  16.945  2.4888 -0.4335 -2.3205
19361TIP3   OH279497   1.718   0.142  15.635  0.4148  0.2760 -0.3735
19361TIP3    H179498   1.636   0.159  15.681  0.4634  0.7956 -0.4711
19361TIP3    H279499   1.702   0.061  15.587  0.1997 -0.0088  0.1696
19362TIP3   OH279500   1.817   6.394  11.894  0.5976 -0.2718 -0.4109
19362TIP3    H179501   1.762   6.343  11.834  0.4843 -0.5895 -0.0349
19362TIP3    H279502   1.880   6.437  11.836  0.1793 -0.1848 -0.8097
19363TIP3   OH279503   6.293   2.597   2.453 -0.8615 -0.1563  0.0794
19363TIP3    H179504   6.338   2.648   2.521 -0.6528 -0.5431  0.2406
19363TIP3    H279505   6.353   2.598   2.379 -0.5825 -0.6576  0.2884
19364TIP3   OH279506   1.088   0.937  15.217  0.0848 -0.3965  0.3149
19364TIP3    H179507   1.157   0.902  15.161  1.2990  0.3758  1.2671
19364TIP3    H279508   1.112   1.029  15.230 -1.6911  0.1890 -0.1468
19365TIP3   OH279509   6.230   3.373  14.165 -0.0988 -0.0215  0.6752
19365TIP3    H179510   6.293   3.305  14.139  1.8320  1.7934  0.3718
19365TIP3    H279511   6.230   3.370  14.260 -0.1342 -0.5221  0.6642
19366TIP3   OH279512   2.432   4.650   5.509 -0.4073  0.1340  0.2046
19366TIP3    H179513   2.486   4.637   5.587  1.7494  2.0539 -0.8386
19366TIP3    H279514   2.464   4.586   5.446 -0.9155 -0.2179  0.2975
19367TIP3   OH279515   5.019   5.871  14.038  0.0802  0.2855 -0.4183
19367TIP3    H179516   5.099   5.896  13.993  0.5408 -1.8927 -0.9658
19367TIP3    H279517   4.958   5.848  13.968  0.3848 -1.9437 -0.0429
19368TIP3   OH279518   1.008   3.297  14.728  0.3133 -0.8015  0.1441
19368TIP3    H179519   0.945   3.369  14.718 -1.1113 -1.9947  0.1215
19368TIP3    H279520   1.091   3.340  14.749 -0.1171  0.9256 -1.4676
19369TIP3   OH279521   1.363   3.480  11.318  0.3187  0.1797  0.8715
19369TIP3    H179522   1.282   3.449  11.358 -0.4390  1.6504  0.5634
19369TIP3    H279523   1.376   3.423  11.242 -1.4366  0.9984 -0.1189
19370TIP3   OH279524   2.013   5.318   3.754 -0.1269 -0.0132 -0.7765
19370TIP3    H179525   2.099   5.351   3.780 -0.1736 -1.1814  1.0775
19370TIP3    H279526   2.030   5.267   3.675  0.6212  0.9308 -1.2482
19371TIP3   OH279527   3.303   5.414  16.769 -0.1236  0.1434 -0.3609
19371TIP3    H179528   3.358   5.336  16.771  0.8546  0.8189  0.2308
19371TIP3    H279529   3.228   5.389  16.715  0.9974 -0.6682 -1.6365
19372TIP3   OH279530   3.163   4.744  16.408 -0.2199 -0.4000 -0.7891
19372TIP3    H179531   3.109   4.742  16.329  1.2135  2.2426 -1.9836
19372TIP3    H279532   3.100   4.757  16.479 -1.3733 -0.1044 -1.8150
19373TIP3   OH279533   3.132   3.911   2.695 -0.0018  0.0531  0.2212
19373TIP3    H179534   3.218   3.896   2.733  0.0735  0.4723  0.2217
19373TIP3    H279535   3.149   3.930   2.602 -0.1590 -0.6493  0.0436
19374TIP3   OH279536   2.745   6.077  15.561  0.3877  0.3092 -0.0138
19374TIP3    H179537   2.833   6.085  15.525 -0.5724 -0.1982 -2.7136
19374TIP3    H279538   2.745   5.993  15.607  0.9664 -0.3730 -1.2030
19375TIP3   OH279539   1.416   4.316   0.565  0.1986  0.7218  0.0941
19375TIP3    H179540   1.433   4.394   0.512 -0.8041  0.6307 -0.3862
19375TIP3    H279541   1.381   4.350   0.647  0.3210  0.7930  0.1183
19376TIP3   OH279542   2.690   3.163   2.538  0.5323  0.1047  0.0597
19376TIP3    H179543   2.650   3.206   2.462 -0.1513 -1.0774 -0.2743
19376TIP3    H279544   2.687   3.229   2.607 -0.3346  0.6562 -0.4832
19377TIP3   OH279545   5.721   4.246   4.691  0.0209  0.4034  0.0436
19377TIP3    H179546   5.716   4.338   4.666 -1.2944  0.2074 -0.4526
19377TIP3    H279547   5.634   4.224   4.722 -1.0652 -1.7566 -3.8038
19378TIP3   OH279548   3.526   1.356  14.854  0.4646 -0.0749  0.0419
19378TIP3    H179549   3.616   1.361  14.887  0.7004 -2.1322 -0.1987
19378TIP3    H279550   3.528   1.288  14.787 -1.3869 -0.6053  0.4625
19379TIP3   OH279551   4.992   4.842  13.560  0.6128 -0.3388 -0.3164
19379TIP3    H179552   4.979   4.931  13.594 -1.9349 -0.8984  0.3608
19379TIP3    H279553   5.022   4.856  13.470  1.8387  1.1768  0.2758
19380TIP3   OH279554   6.080   5.239   5.974 -0.3747  0.6094  0.1164
19380TIP3    H179555   6.037   5.324   5.981 -0.0708  1.0165 -2.2328
19380TIP3    H279556   6.162   5.258   5.929 -0.4492 -0.9569 -0.7352
19381TIP3   OH279557   5.804   2.199   5.338 -0.1067 -0.0619 -0.2070
19381TIP3    H179558   5.865   2.183   5.266  0.8338  1.8110  0.1200
19381TIP3    H279559   5.840   2.150   5.412  0.6669  0.5367 -0.1831
19382TIP3   OH279560   2.023   1.770   2.241  0.3441  0.0906  0.1464
19382TIP3    H179561   1.961   1.791   2.172 -0.1180  0.2482  0.6050
19382TIP3    H279562   2.062   1.855   2.265 -0.2558  0.1991  0.7899
19383TIP3   OH279563   3.597   3.143  11.361 -0.8679 -0.2678 -0.0693
19383TIP3    H179564   3.626   3.208  11.425  0.0165 -0.5697 -0.1509
19383TIP3    H279565   3.534   3.189  11.306 -1.8542 -0.0801  1.1788
19384TIP3   OH279566   0.051   2.315  13.716 -0.1149  0.6336  0.3465
19384TIP3    H179567   0.073   2.399  13.675  0.0953 -0.1837 -1.3127
19384TIP3    H279568  -0.035   2.292  13.680 -0.7336  0.6833  1.7256
19385TIP3   OH279569   3.287   3.174   0.285 -0.2510  0.1778 -1.0982
19385TIP3    H179570   3.215   3.235   0.302  0.4979  1.4706 -2.3301
19385TIP3    H279571   3.288   3.165   0.190 -1.3305 -3.0444 -0.9218
19386TIP3   OH279572   0.180   2.363  14.497 -0.3012  0.1394  0.6475
19386TIP3    H179573   0.131   2.445  14.486  0.3102  0.3158 -1.0591
19386TIP3    H279574   0.158   2.312  14.419 -1.2157 -1.6653  1.9864
19387TIP3   OH279575   2.475   1.730   5.040 -0.2777 -0.8191  0.4486
19387TIP3    H179576   2.444   1.749   4.951  1.1835  0.3363  0.1457
19387TIP3    H279577   2.398   1.746   5.096 -0.0709  3.3903 -0.1171
19388TIP3   OH279578   2.016   2.225  16.838 -0.5152 -0.7098  0.0768
19388TIP3    H179579   2.008   2.130  16.835 -2.6724 -0.5540 -2.0838
19388TIP3    H279580   2.075   2.247  16.766  0.0336 -0.4041  0.6137
19389TIP3   OH279581   4.590   1.054   3.588 -0.2975  0.2874  0.3774
19389TIP3    H179582   4.521   1.118   3.607  0.4366  1.6207 -1.3061
19389TIP3    H279583   4.549   0.993   3.527 -0.5684 -0.0735  0.9087
19390TIP3   OH279584   3.316   0.264   5.125 -0.1016 -0.4529 -0.5837
19390TIP3    H179585   3.373   0.339   5.142 -1.1947  0.1288  0.6804
19390TIP3    H279586   3.357   0.192   5.172 -0.5647  0.0355  0.5846
19391TIP3   OH279587   4.669   4.233   4.232  0.1104 -0.2449  0.2294
19391TIP3    H179588   4.620   4.315   4.229 -1.7419 -1.3145 -0.3851
19391TIP3    H279589   4.694   4.217   4.142  1.3819  0.1327  0.4957
19392TIP3   OH279590   3.599   6.282   5.472  0.1804  0.0568  0.3006
19392TIP3    H179591   3.657   6.268   5.397 -1.7084 -0.8898 -1.0763
19392TIP3    H279592   3.617   6.209   5.530 -0.0450 -0.5739 -0.4053
19393TIP3   OH279593   4.967   1.159  15.846  0.0144  0.6019  0.5965
19393TIP3    H179594   4.987   1.148  15.753  0.9038  0.1123  0.8326
19393TIP3    H279595   5.022   1.232  15.874 -1.1041  1.5023  0.4885
19394TIP3   OH279596   4.391   4.217   2.763 -0.0236  0.0151  0.8438
19394TIP3    H179597   4.457   4.276   2.726  0.7138 -0.2587  1.7091
19394TIP3    H279598   4.308   4.262   2.749  0.3573  0.4488 -0.0861
19395TIP3   OH279599   2.136   3.770   1.154  0.4714  0.2413 -0.1910
19395TIP3    H179600   2.209   3.803   1.100  0.9991 -0.1473  0.2700
19395TIP3    H279601   2.165   3.684   1.183  0.6231  0.7920  1.4578
19396TIP3   OH279602   1.183   5.726   3.442 -0.1444 -0.0803 -0.6076
19396TIP3    H179603   1.094   5.691   3.455 -1.3934  3.4095  1.6665
19396TIP3    H279604   1.221   5.728   3.529  1.6860 -0.2304 -1.3586
19397TIP3   OH279605   4.452   4.585   2.085 -0.1231  0.1264  0.3082
19397TIP3    H179606   4.386   4.554   2.023 -1.5629  1.9865  0.8212
19397TIP3    H279607   4.465   4.677   2.063  0.9594  0.2528  1.3742
19398TIP3   OH279608   6.208   1.494   4.942 -0.1090 -0.0851  0.0854
19398TIP3    H179609   6.130   1.447   4.970  0.8805 -1.4241  0.6883
19398TIP3    H279610   6.232   1.547   5.017 -0.0565 -0.1908  0.1438
19399TIP3   OH279611   0.321   3.730   6.494  0.1594 -0.2847 -0.2745
19399TIP3    H179612   0.262   3.804   6.480  2.2153  1.5946  0.3579
19399TIP3    H279613   0.311   3.707   6.586 -1.6305 -1.9316 -0.8199
19400TIP3   OH279614   4.245   5.946  13.442 -0.3316 -0.2120  0.2887
19400TIP3    H179615   4.286   6.020  13.488  1.3518 -0.1733 -1.1582
19400TIP3    H279616   4.299   5.870  13.467  0.7244 -0.1666 -1.6323
19401TIP3   OH279617   0.183   0.215  12.112  0.0642  0.2397  0.3087
19401TIP3    H179618   0.142   0.288  12.066 -1.6121 -0.2324  0.9581
19401TIP3    H279619   0.220   0.253  12.192 -0.7795  0.3964  0.6304
19402TIP3   OH279620   3.602   1.796   4.742 -0.4345  0.0832  0.2060
19402TIP3    H179621   3.658   1.795   4.664 -0.7185 -0.1331 -0.0012
19402TIP3    H279622   3.596   1.704   4.768  0.1828  0.2269  0.8708
19403TIP3   OH279623   6.638   5.520  15.600 -0.2347  0.6364  0.0224
19403TIP3    H179624   6.582   5.455  15.558 -0.5191  0.6796  0.3291
19403TIP3    H279625   6.707   5.537  15.537  0.5704 -0.9037  0.4527
19404TIP3   OH279626   4.058   0.520   5.411  0.1220  0.0919 -0.1467
19404TIP3    H179627   4.083   0.436   5.372 -0.2581 -0.4551  0.7692
19404TIP3    H279628   3.978   0.501   5.460 -0.1504  1.0604 -0.1892
19405TIP3   OH279629   3.291   1.764  15.559 -0.0833  0.0537 -0.5891
19405TIP3    H179630   3.247   1.846  15.581  2.4232  1.0774  1.1115
19405TIP3    H279631   3.302   1.720  15.643  0.4996 -0.9984 -1.1986
19406TIP3   OH279632   5.385   4.222   5.909  0.2524 -0.3456  0.8335
19406TIP3    H179633   5.324   4.285   5.946  1.4038  0.7475  0.9469
19406TIP3    H279634   5.426   4.180   5.984 -1.0870 -1.8679  0.7676
19407TIP3   OH279635   1.237   1.386   0.250 -0.5113 -0.0061  0.0757
19407TIP3    H179636   1.155   1.346   0.279 -0.3564 -0.6218 -0.3168
19407TIP3    H279637   1.299   1.313   0.245 -0.0249  0.4056  0.0609
19408TIP3   OH279638   4.940   0.631  14.684 -0.4586  0.1094 -0.2094
19408TIP3    H179639   4.961   0.724  14.671 -1.7253  0.2242 -1.8598
19408TIP3    H279640   4.869   0.614  14.622 -0.3517 -1.9413  0.1585
19409TIP3   OH279641   4.281   1.686  11.019 -0.3008 -0.5938  0.3818
19409TIP3    H179642   4.232   1.766  11.002 -0.4708 -0.3075  2.1390
19409TIP3    H279643   4.229   1.638  11.083  0.6860 -1.2593  0.7076
19410TIP3   OH279644   1.210   5.413  15.503 -0.4978  0.4190 -0.2111
19410TIP3    H179645   1.118   5.440  15.509 -0.1163  1.5449  1.0572
19410TIP3    H279646   1.255   5.470  15.565  0.8076 -1.2676  0.4350
19411TIP3   OH279647   6.319   0.830  16.047 -0.0777  0.0018 -0.0278
19411TIP3    H179648   6.376   0.759  16.077 -0.6392 -1.0757 -1.3753
19411TIP3    H279649   6.292   0.803  15.959 -0.6913  1.6793 -0.3894
19412TIP3   OH279650   0.280   3.042  13.463  0.5248  0.0177 -0.5326
19412TIP3    H179651   0.367   3.076  13.483  0.5375 -1.3943  2.3394
19412TIP3    H279652   0.288   3.004  13.376  2.1686  1.7126 -1.1967
19413TIP3   OH279653   3.299   0.015  12.640 -0.1746  0.2131  0.4538
19413TIP3    H179654   3.385   0.053  12.620  0.3735 -1.0867  0.2123
19413TIP3    H279655   3.237   0.069  12.592  0.5812  0.7414  0.0464
19414TIP3   OH279656   6.778   1.380   3.927  0.6300 -0.5221 -0.6829
19414TIP3    H179657   6.721   1.344   3.995  0.3254  1.3269  0.0959
19414TIP3    H279658   6.736   1.355   3.844  1.1612 -3.0514 -0.2894
19415TIP3   OH279659   2.150   3.320  11.237 -0.1745  0.0140  0.2952
19415TIP3    H179660   2.062   3.356  11.231 -0.0445  0.2450 -0.2538
19415TIP3    H279661   2.193   3.373  11.304  0.2099  1.2970 -0.9378
19416TIP3   OH279662   2.287   5.753  12.635  0.4544 -0.4740  0.0148
19416TIP3    H179663   2.382   5.763  12.635  0.4870 -0.6906  1.0350
19416TIP3    H279664   2.265   5.736  12.726 -0.7882  1.4811  0.1268
19417TIP3   OH279665   6.457   1.303   2.094 -0.4925  0.1840  0.2099
19417TIP3    H179666   6.551   1.308   2.077 -0.3957 -0.5232  0.5148
19417TIP3    H279667   6.418   1.363   2.030 -0.0765 -1.6641 -1.9298
19418TIP3   OH279668   1.118   4.177  11.240  0.8739 -0.3962  0.0935
19418TIP3    H179669   1.132   4.187  11.334  0.3849 -0.1127  0.1390
19418TIP3    H279670   1.205   4.186  11.202  0.8644  1.2295  0.3835
19419TIP3   OH279671   5.090   6.424  15.659  0.0856 -0.1120 -0.4227
19419TIP3    H179672   5.082   6.337  15.619  0.1214  0.6684 -2.2495
19419TIP3    H279673   5.002   6.461  15.653  0.4411  0.6310 -1.3318
19420TIP3   OH279674   1.394   3.248  16.437 -0.4431 -0.1262 -0.7240
19420TIP3    H179675   1.380   3.166  16.485 -0.2571  0.6355  0.6794
19420TIP3    H279676   1.393   3.222  16.345 -1.2268 -1.5738 -0.3396
19421TIP3   OH279677   1.677   3.504  16.911  0.0038 -0.4580  0.1839
19421TIP3    H179678   1.685   3.546  16.996 -1.0068 -0.3630  0.2419
19421TIP3    H279679   1.624   3.426  16.928  1.0518 -1.2499 -0.0955
19422TIP3   OH279680   1.654   5.136  14.470 -0.6236 -0.6461  0.5948
19422TIP3    H179681   1.744   5.104  14.462 -0.7090 -1.4308  2.1951
19422TIP3    H279682   1.604   5.083  14.408  0.1373  0.4388 -0.9864
19423TIP3   OH279683   5.539   3.411  11.363 -0.0416 -0.1452  0.2210
19423TIP3    H179684   5.497   3.379  11.283  0.2784  0.4613 -0.2028
19423TIP3    H279685   5.538   3.506  11.353 -0.0514 -0.0612  0.9735
19424TIP3   OH279686   4.792   2.667   3.747 -0.1491 -0.2616 -0.0037
19424TIP3    H179687   4.796   2.755   3.711  0.2293 -0.1474  0.3179
19424TIP3    H279688   4.798   2.610   3.671  0.6534 -0.0200 -0.1219
19425TIP3   OH279689   0.967   4.130  16.487 -1.2377 -0.0337 -0.3237
19425TIP3    H179690   1.038   4.069  16.468 -0.0856  0.9756  0.5783
19425TIP3    H279691   0.949   4.118  16.581 -0.3255  1.6648  0.0910
19426TIP3   OH279692   3.298   0.181   1.823 -0.5724  0.2496  0.6527
19426TIP3    H179693   3.259   0.186   1.911 -0.3100  2.6333  0.6937
19426TIP3    H279694   3.255   0.249   1.773  2.3579  2.0037  0.2574
19427TIP3   OH279695   5.956   0.883   6.176 -0.5180 -0.2636 -0.0750
19427TIP3    H179696   5.983   0.965   6.217 -0.1493  0.0128 -0.8583
19427TIP3    H279697   6.003   0.815   6.225 -1.2429 -0.0629  0.9300
19428TIP3   OH279698   0.239   2.662  13.110 -0.5470 -0.2144 -0.2053
19428TIP3    H179699   0.185   2.686  13.035  0.5738 -2.6536 -1.8833
19428TIP3    H279700   0.328   2.661  13.077  0.1446 -0.0219  1.5446
19429TIP3   OH279701   5.062   0.733   0.367  0.0352 -0.0623  0.1606
19429TIP3    H179702   5.079   0.716   0.460  0.3779 -0.0864  0.0950
19429TIP3    H279703   5.086   0.825   0.355 -2.0258  0.5717  0.5674
19430TIP3   OH279704   2.072   6.616  12.270  0.0550  0.1270 -0.2600
19430TIP3    H179705   2.011   6.570  12.327 -0.9802 -0.9086 -2.0856
19430TIP3    H279706   2.035   6.704  12.261 -0.8623 -0.3050 -0.8601
19431TIP3   OH279707   3.805   5.693   0.827  0.2484  0.7583  0.1920
19431TIP3    H179708   3.766   5.695   0.915 -0.0593  1.4621  0.0530
19431TIP3    H279709   3.828   5.601   0.812 -1.4309  0.2911  0.2702
19432TIP3   OH279710   6.722   4.298   2.704  0.5783 -0.1856  0.1821
19432TIP3    H179711   6.736   4.377   2.757 -0.1413  0.0732  0.0119
19432TIP3    H279712   6.707   4.229   2.768 -2.3015  0.4998  0.4098
19433TIP3   OH279713   4.694   5.868   0.735  0.1436 -0.3170  0.1331
19433TIP3    H179714   4.648   5.925   0.797  1.5926 -1.1071  2.0702
19433TIP3    H279715   4.743   5.928   0.679  1.8135  0.4555  2.2626
19434TIP3   OH279716   6.416   6.651  12.425  0.3989 -0.2074  0.1906
19434TIP3    H179717   6.325   6.679  12.437  0.9250  0.8208  2.2070
19434TIP3    H279718   6.415   6.600  12.344 -2.0254 -0.4967  0.3339
19435TIP3   OH279719   5.693   2.492  13.616 -0.3536 -0.1463 -0.1117
19435TIP3    H179720   5.744   2.566  13.649 -0.5847  0.2620 -0.6779
19435TIP3    H279721   5.603   2.511  13.640 -0.3577 -0.4805  0.1613
19436TIP3   OH279722   5.907   4.647   1.381 -0.3770 -0.0781  0.7239
19436TIP3    H179723   5.981   4.701   1.353 -1.2526  0.3225 -0.9047
19436TIP3    H279724   5.905   4.658   1.476  0.7610  1.0553  0.6443
19437TIP3   OH279725   3.225   2.499  11.347  0.0270  0.6781 -0.9238
19437TIP3    H179726   3.151   2.523  11.292  0.8911  2.8314 -1.2616
19437TIP3    H279727   3.298   2.489  11.286 -0.0152 -1.9474 -0.6594
19438TIP3   OH279728   2.578   0.379  14.127  0.3281 -0.6209  0.2395
19438TIP3    H179729   2.512   0.407  14.190 -1.2026  0.1713 -1.6168
19438TIP3    H279730   2.659   0.421  14.156 -0.1034 -1.0086  2.1351
19439TIP3   OH279731   1.459   6.017   3.133 -0.8609  0.1662 -0.0192
19439TIP3    H179732   1.439   5.997   3.041  0.2846 -0.8740 -0.0600
19439TIP3    H279733   1.391   5.972   3.183 -0.8785 -0.1413 -0.3152
19440TIP3   OH279734   4.651   0.501  12.511 -0.4937 -0.5411  0.0531
19440TIP3    H179735   4.741   0.492  12.479 -0.3586 -0.9647  0.5443
19440TIP3    H279736   4.618   0.579  12.467  0.2206 -0.1997  0.1039
19441TIP3   OH279737   3.632   3.320   2.726  0.2668  0.5718 -0.6554
19441TIP3    H179738   3.667   3.396   2.773  0.4100  0.1190 -0.0007
19441TIP3    H279739   3.709   3.266   2.708  0.5456  1.7818 -3.4620
19442TIP3   OH279740   2.772   6.598   4.822 -0.8411 -0.2267 -0.2170
19442TIP3    H179741   2.726   6.676   4.791 -1.4064 -0.7729 -0.7763
19442TIP3    H279742   2.703   6.542   4.857 -0.4571 -0.5448  0.0393
19443TIP3   OH279743   6.285   0.932  14.998 -0.3298  0.3717 -0.7725
19443TIP3    H179744   6.194   0.943  14.968 -0.1824  0.5000 -1.1905
19443TIP3    H279745   6.307   1.016  15.038 -0.9287 -0.2061  0.8395
19444TIP3   OH279746   2.521   2.705  12.858  0.0832 -0.1441  0.2182
19444TIP3    H179747   2.544   2.719  12.950 -0.3288 -0.1725  0.3251
19444TIP3    H279748   2.440   2.655  12.860 -1.6745  2.4635 -0.1046
19445TIP3   OH279749   4.941   5.020   5.452 -0.7899  0.4512 -0.3054
19445TIP3    H179750   4.902   5.052   5.534  0.1834 -2.4206  1.4296
19445TIP3    H279751   4.913   4.929   5.446 -0.9698  0.6068 -3.3501
19446TIP3   OH279752   0.447   3.744   1.326 -0.0457  0.0641 -0.3542
19446TIP3    H179753   0.396   3.726   1.247  2.4779 -1.2265 -1.8387
19446TIP3    H279754   0.406   3.690   1.394 -0.7894 -0.7546 -1.4161
19447TIP3   OH279755   4.750   0.484   1.020  0.1912  0.8761  0.5601
19447TIP3    H179756   4.700   0.526   0.950  0.2518  0.9281  0.5472
19447TIP3    H279757   4.685   0.439   1.073  0.3291 -1.2009 -0.9016
19448TIP3   OH279758   5.325   0.772  12.205 -0.6731  0.2550  0.0446
19448TIP3    H179759   5.357   0.810  12.123  2.1500 -2.5523 -0.3548
19448TIP3    H279760   5.382   0.810  12.272 -1.4448  0.7793  0.4156
19449TIP3   OH279761   2.374   0.989  13.122 -0.1041 -0.0034 -0.2870
19449TIP3    H179762   2.435   0.916  13.132 -0.0502  0.1515  0.5504
19449TIP3    H279763   2.291   0.956  13.155  0.2226  0.7150  1.3428
19450TIP3   OH279764   2.598   6.335  13.402  0.1317 -0.4835 -0.1398
19450TIP3    H179765   2.612   6.416  13.355 -0.6362  0.0419  0.5129
19450TIP3    H279766   2.548   6.280  13.342 -0.0469 -0.1714 -0.2753
19451TIP3   OH279767   5.558   1.969  13.015 -0.5712  0.4806  0.2612
19451TIP3    H179768   5.480   2.024  13.012 -0.1364  1.1045  0.2693
19451TIP3    H279769   5.618   2.009  12.951 -1.0536 -1.2277 -1.3606
19452TIP3   OH279770   1.550   6.133  17.081 -0.0126 -0.4608  0.1751
19452TIP3    H179771   1.630   6.126  17.028 -0.3091  0.4832 -0.4273
19452TIP3    H279772   1.566   6.077  17.156 -0.6056 -4.0486 -2.1291
19453TIP3   OH279773   4.935   0.928  12.131 -0.8338  0.5784  0.5652
19453TIP3    H179774   4.920   1.017  12.099 -0.5373  0.2256 -0.6081
19453TIP3    H279775   4.847   0.893  12.145 -0.9680  0.8229  0.3537
19454TIP3   OH279776   4.622   5.156  16.479 -0.5092 -0.6919  0.5177
19454TIP3    H179777   4.563   5.158  16.553 -0.4483  0.2342  0.5556
19454TIP3    H279778   4.572   5.115  16.409 -1.1383 -0.0893  0.6052
19455TIP3   OH279779   4.320   1.030  13.295 -0.3117  0.0352 -0.3538
19455TIP3    H179780   4.309   0.988  13.380 -0.2744 -0.0114 -0.3722
19455TIP3    H279781   4.415   1.034  13.282 -0.3261 -0.3505 -0.5887
19456TIP3   OH279782   5.827   4.869  12.868 -0.1065  0.1085  0.4285
19456TIP3    H179783   5.904   4.868  12.924 -0.0293  0.6264  0.3389
19456TIP3    H279784   5.861   4.879  12.779 -0.2254 -0.7554  0.2747
19457TIP3   OH279785   2.160   2.375   5.485 -0.3014 -0.7465 -0.6423
19457TIP3    H179786   2.207   2.441   5.434 -1.1358  0.6307  0.2907
19457TIP3    H279787   2.068   2.402   5.481 -0.6389 -1.7342 -0.0499
19458TIP3   OH279788   4.157   0.875   4.144  0.6901 -0.0464  0.2325
19458TIP3    H179789   4.106   0.924   4.080  0.4761 -3.2234 -2.2742
19458TIP3    H279790   4.100   0.870   4.221 -1.1611 -0.1337 -1.0684
19459TIP3   OH279791   0.301   1.941   2.290  0.4237  0.3159 -0.6326
19459TIP3    H179792   0.232   1.905   2.345 -1.8492 -3.0840 -5.0607
19459TIP3    H279793   0.257   1.964   2.208  3.9367  2.3125 -2.2076
19460TIP3   OH279794   6.075   6.669  14.221 -0.0979  0.1324 -0.5484
19460TIP3    H179795   6.159   6.625  14.238 -0.7422 -0.1067  2.6644
19460TIP3    H279796   6.012   6.597  14.218 -0.3063  0.3238 -2.8560
19461TIP3   OH279797   0.173   3.174  15.106  0.3416  0.1347  0.2771
19461TIP3    H179798   0.245   3.133  15.059 -0.4022  0.9772 -1.7229
19461TIP3    H279799   0.215   3.232  15.169  1.4075 -0.1583 -0.1511
19462TIP3   OH279800   3.943   4.921   0.692  0.2087  0.0153  0.3912
19462TIP3    H179801   4.036   4.935   0.674 -0.2229 -0.0210 -2.2162
19462TIP3    H279802   3.921   4.991   0.754  1.7920  0.5290  0.4412
19463TIP3   OH279803   2.828   2.016  16.518  0.5098  0.5053 -0.0322
19463TIP3    H179804   2.825   1.921  16.518 -1.0038  0.4215 -3.4457
19463TIP3    H279805   2.898   2.039  16.457  0.1447  1.5685 -0.0795
19464TIP3   OH279806   2.633   4.174  11.167 -0.1368  0.7703  0.1181
19464TIP3    H179807   2.549   4.203  11.130 -0.2880  1.5176  1.0002
19464TIP3    H279808   2.675   4.126  11.096 -1.7699 -0.5675 -0.0161
19465TIP3   OH279809   2.144   1.734   1.276 -0.1430 -0.1593  0.7069
19465TIP3    H179810   2.115   1.825   1.284 -0.0124 -0.1932  1.7356
19465TIP3    H279811   2.192   1.717   1.358  3.6797  0.2016 -1.2464
19466TIP3   OH279812   6.018   5.736   1.965  0.4790  0.0383  0.5769
19466TIP3    H179813   6.056   5.669   1.908 -0.2845 -0.8605  1.1128
19466TIP3    H279814   6.059   5.722   2.050  1.1304  0.9636  0.4293
19467TIP3   OH279815   4.853   2.701   1.250 -0.4123 -0.1539  0.2534
19467TIP3    H179816   4.830   2.783   1.294  0.7872  0.4154 -0.1329
19467TIP3    H279817   4.928   2.668   1.300 -0.8288 -0.9745  0.3490
19468TIP3   OH279818   4.651   1.652   1.745 -0.2709 -0.2141  0.2887
19468TIP3    H179819   4.679   1.629   1.833 -0.3480 -1.0036  0.1132
19468TIP3    H279820   4.637   1.568   1.701  0.7406  0.1464 -0.7891
19469TIP3   OH279821   5.856   4.975  15.568  0.4188 -0.0415 -0.4307
19469TIP3    H179822   5.782   4.918  15.549 -0.9152  1.5071 -0.1381
19469TIP3    H279823   5.865   4.972  15.664  0.5390 -0.0075 -0.4403
19470TIP3   OH279824   1.796   6.341  13.002  0.2796 -0.0061 -0.6134
19470TIP3    H179825   1.816   6.348  13.096  1.0417  2.0663 -0.8769
19470TIP3    H279826   1.703   6.320  12.999 -0.1148  1.3575  0.6398
19471TIP3   OH279827   5.455   3.706  14.470 -0.5406  0.2938  0.3250
19471TIP3    H179828   5.386   3.653  14.431 -0.2538  0.5088 -0.4963
19471TIP3    H279829   5.461   3.675  14.560 -2.2712  0.8183  0.6656
19472TIP3   OH279830   0.341   1.093   1.098 -0.6504 -0.4202  0.5035
19472TIP3    H179831   0.324   1.138   1.181  0.3177 -0.5399  0.7703
19472TIP3    H279832   0.380   1.009   1.123  0.2214 -0.2050 -0.0771
19473TIP3   OH279833   2.960   0.010  16.619 -0.0079  0.6320 -0.0345
19473TIP3    H179834   3.045   0.004  16.662 -0.1552 -1.3570  0.0888
19473TIP3    H279835   2.909   0.070  16.674  0.7270  0.3765  0.9497
19474TIP3   OH279836   2.315   3.149   0.241  0.0945 -0.3683 -0.6856
19474TIP3    H179837   2.294   3.237   0.272  1.5248 -0.1153 -0.3395
19474TIP3    H279838   2.236   3.098   0.257 -0.3055  0.5373  0.3547
19475TIP3   OH279839   2.414   5.551   3.334 -0.1370 -0.0326  0.1766
19475TIP3    H179840   2.443   5.596   3.414 -1.9562  0.0267  0.8400
19475TIP3    H279841   2.388   5.464   3.364 -2.1963  0.4486 -0.0475
19476TIP3   OH279842   2.410   2.160  13.768 -0.4616  0.4794  0.0539
19476TIP3    H179843   2.315   2.167  13.760 -0.6195 -0.8449  0.5185
19476TIP3    H279844   2.424   2.087  13.828  0.8188  2.1327  1.9308
19477TIP3   OH279845   0.568   5.604   3.378 -0.1298  0.1585 -0.2975
19477TIP3    H179846   0.623   5.682   3.380  0.8594 -0.0428 -5.3912
19477TIP3    H279847   0.480   5.638   3.365  0.3162  0.6301 -2.6835
19478TIP3   OH279848   4.466   3.375   3.598  0.1540 -0.4517 -0.0251
19478TIP3    H179849   4.400   3.442   3.615  0.5861  0.0891 -0.4477
19478TIP3    H279850   4.442   3.340   3.512  1.2602  0.7905 -0.8803
19479TIP3   OH279851   2.123   5.753   5.384 -0.4249 -0.9511 -0.0818
19479TIP3    H179852   2.033   5.780   5.400  0.3642  0.7786  1.7832
19479TIP3    H279853   2.121   5.657   5.392 -2.3194 -1.0897 -1.5544
19480TIP3   OH279854   3.582   0.453  11.731 -0.4491 -0.2304  0.6389
19480TIP3    H179855   3.604   0.534  11.778  0.5631 -0.2417  0.2100
19480TIP3    H279856   3.490   0.437  11.753 -1.0353  1.6603 -0.1837
19481TIP3   OH279857   5.534   3.654   1.724 -0.5130  0.6095  0.0633
19481TIP3    H179858   5.514   3.686   1.812  1.8348 -0.3008  1.0228
19481TIP3    H279859   5.605   3.591   1.738 -0.3959  0.1092 -2.4532
19482TIP3   OH279860   0.845   0.931  12.090 -0.1909  0.0174  0.7481
19482TIP3    H179861   0.901   0.927  12.012 -0.2001  0.0265  0.7411
19482TIP3    H279862   0.847   1.023  12.116 -1.0118  0.2095  0.1557
19483TIP3   OH279863   0.042   1.942  15.552  0.0009  0.2752  0.1418
19483TIP3    H179864   0.124   1.893  15.553  0.2743  0.7161 -0.1756
19483TIP3    H279865  -0.014   1.896  15.490  0.7716  1.1635 -1.2869
19484TIP3   OH279866   4.442   1.846  16.398  0.7140  0.2533 -0.2465
19484TIP3    H179867   4.379   1.918  16.405  0.7881  0.2024  1.0044
19484TIP3    H279868   4.525   1.890  16.375  0.4271  0.3977 -1.0582
19485TIP3   OH279869   6.296   5.663  14.752  0.0019  0.2852  0.4421
19485TIP3    H179870   6.267   5.588  14.701  0.5738  0.5474 -0.2970
19485TIP3    H279871   6.285   5.738  14.693  1.2114  0.5175  0.4812
19486TIP3   OH279872   6.049   3.995   0.431  0.3834 -0.0796 -0.3174
19486TIP3    H179873   5.995   4.006   0.352  0.5048 -0.9676 -0.5314
19486TIP3    H279874   6.078   3.904   0.427  0.3136 -0.1593  0.8018
19487TIP3   OH279875   2.036   5.908  10.744 -0.3322 -0.5816  0.3639
19487TIP3    H179876   2.079   5.989  10.715  0.4019 -0.2354  2.2476
19487TIP3    H279877   2.085   5.883  10.822 -0.7790 -2.6771  0.0144
19488TIP3   OH279878   3.097   4.914   3.551  0.8695  0.3004  0.0074
19488TIP3    H179879   3.119   5.007   3.553 -1.7518  1.0267 -1.1898
19488TIP3    H279880   3.073   4.893   3.641 -0.8644  1.4759 -0.1287
19489TIP3   OH279881   2.681   0.810  10.743 -0.0620  0.6542 -0.0118
19489TIP3    H179882   2.674   0.791  10.650  1.0333 -0.8631  0.1829
19489TIP3    H279883   2.591   0.817  10.773 -0.4273  1.3104 -1.1995
19490TIP3   OH279884   0.773   0.813   0.734 -0.3149  0.5429 -0.5580
19490TIP3    H179885   0.681   0.812   0.763 -0.6043  0.3884 -1.4353
19490TIP3    H279886   0.781   0.733   0.681  0.5481  0.1415  0.1540
19491TIP3   OH279887   4.728   6.141   1.541  0.1094  0.0612 -0.8228
19491TIP3    H179888   4.754   6.050   1.552 -0.9450 -0.1864 -0.2158
19491TIP3    H279889   4.639   6.137   1.506 -1.3347  0.7565  2.3975
19492TIP3   OH279890   6.418   2.325   4.366 -0.2162 -0.8676 -0.0893
19492TIP3    H179891   6.356   2.390   4.398  0.4174  0.7863 -1.9481
19492TIP3    H279892   6.451   2.281   4.444 -2.0184 -0.2186  1.0867
19493TIP3   OH279893   0.258   5.706  15.354 -0.3541 -0.0106  0.4823
19493TIP3    H179894   0.333   5.664  15.397 -0.0021  0.3011  0.1779
19493TIP3    H279895   0.249   5.659  15.271 -0.2754  0.1828  0.3634
19494TIP3   OH279896   3.812   3.027   3.504 -0.1712 -0.0419 -0.2641
19494TIP3    H179897   3.724   3.021   3.543  0.8366  0.3008  2.2900
19494TIP3    H279898   3.853   2.943   3.524  0.6095  0.3928 -0.0125
19495TIP3   OH279899   0.295   5.512  11.116 -0.4922 -0.3845 -0.2242
19495TIP3    H179900   0.383   5.542  11.141 -1.2768  1.3413  0.6586
19495TIP3    H279901   0.289   5.530  11.022  0.3426 -1.2013 -0.4437
19496TIP3   OH279902   1.971   6.493   2.131 -0.0653  0.1026  0.4005
19496TIP3    H179903   2.011   6.412   2.098 -1.2001 -0.2891 -0.0597
19496TIP3    H279904   2.044   6.542   2.169  0.7543 -0.8315  0.0729
19497TIP3   OH279905   1.841   3.978   5.887 -0.2985 -0.5415  0.0430
19497TIP3    H179906   1.892   3.928   5.951 -2.8057 -2.0205  1.0366
19497TIP3    H279907   1.855   3.931   5.805 -1.8648 -2.4596  0.7813
19498TIP3   OH279908   3.353   0.198  11.968  0.2179  0.4280  0.3343
19498TIP3    H179909   3.398   0.115  11.952 -0.1330  0.4150 -0.6187
19498TIP3    H279910   3.275   0.174  12.017 -1.5677 -0.2609 -2.6092
19499TIP3   OH279911   1.984   3.416  13.394 -0.0103 -0.2349  0.1297
19499TIP3    H179912   2.007   3.325  13.379 -2.6958 -1.0597  0.4898
19499TIP3    H279913   2.052   3.466  13.349  0.7600 -2.4139 -1.2662
19500TIP3   OH279914   3.126   0.057   6.140 -0.3607  0.8230  0.4255
19500TIP3    H179915   3.084   0.140   6.162 -1.2661  0.6282 -0.4695
19500TIP3    H279916   3.118   0.051   6.045 -1.8309 -1.0405  0.6007
19501TIP3   OH279917   6.082   2.214  13.619 -0.3197  0.4859 -0.5850
19501TIP3    H179918   6.027   2.226  13.696 -0.0412  2.6701 -0.6618
19501TIP3    H279919   6.171   2.210  13.653 -0.2968  0.0436 -0.6917
19502TIP3   OH279920   3.749   3.470  14.348 -0.1352 -0.3383 -0.4939
19502TIP3    H179921   3.758   3.390  14.399 -0.7976 -0.8320 -1.1197
19502TIP3    H279922   3.810   3.532  14.388 -0.6304 -0.7076  0.8867
19503TIP3   OH279923   0.747   5.457  14.167  0.3953  0.1018  0.0865
19503TIP3    H179924   0.695   5.378  14.156 -0.6075  1.0278 -2.7399
19503TIP3    H279925   0.686   5.521  14.203  0.9558 -0.1005  1.4663
19504TIP3   OH279926   0.824   0.629  16.099  0.3097  0.1645 -0.0763
19504TIP3    H179927   0.870   0.566  16.155  0.6601  0.2046 -0.3123
19504TIP3    H279928   0.894   0.678  16.056  0.0399  0.4986 -0.1411
19505TIP3   OH279929   6.379   6.326  11.227  0.0709 -0.8798  0.4514
19505TIP3    H179930   6.370   6.365  11.140 -1.2732 -0.3102  0.8162
19505TIP3    H279931   6.460   6.275  11.223 -0.6045 -1.8719 -1.4972
19506TIP3   OH279932   6.150   6.217  12.685  0.5070 -0.7112  0.3623
19506TIP3    H179933   6.095   6.230  12.762 -0.0605 -0.4941 -0.0664
19506TIP3    H279934   6.131   6.127  12.658  1.5439 -1.1645  1.1145
19507TIP3   OH279935   6.481   2.016  15.112 -0.1745  0.3080 -0.0156
19507TIP3    H179936   6.394   1.996  15.079  0.0102  0.4552 -0.5977
19507TIP3    H279937   6.466   2.079  15.183 -0.7547 -1.6881  1.7613
19508TIP3   OH279938   0.316   5.649   3.201 -0.1991 -0.0168 -0.1336
19508TIP3    H179939   0.394   5.612   3.160 -0.0565 -0.1711  0.2731
19508TIP3    H279940   0.327   5.744   3.191 -0.4348 -0.0679 -0.9340
19509TIP3   OH279941   5.415   6.531   4.487  0.1291 -0.0855 -0.1164
19509TIP3    H179942   5.377   6.444   4.477  0.9271 -0.4109 -0.4114
19509TIP3    H279943   5.438   6.558   4.399 -2.3184  1.4912 -0.3596
19510TIP3   OH279944   0.943   4.478   4.946  0.1814 -0.3782  0.0167
19510TIP3    H179945   0.850   4.458   4.955  0.5080 -1.2099  1.8496
19510TIP3    H279946   0.946   4.553   4.885 -1.7972  0.7670  1.2380
19511TIP3   OH279947   1.945   1.431  15.857  0.6820  0.2079 -0.1338
19511TIP3    H179948   1.953   1.351  15.908  0.3750 -1.4512 -2.5679
19511TIP3    H279949   1.867   1.419  15.804  1.0251  1.8257 -1.0898
19512TIP3   OH279950   0.386   5.299  14.358  0.0338  0.6092  0.3836
19512TIP3    H179951   0.327   5.280  14.286 -1.2431 -0.6013  1.6702
19512TIP3    H279952   0.424   5.385  14.337  1.2716 -0.5639 -2.6655
19513TIP3   OH279953   0.285   2.453   0.341  0.4725 -0.2129  0.6351
19513TIP3    H179954   0.270   2.531   0.394  0.2289  0.1751  0.0170
19513TIP3    H279955   0.379   2.450   0.327  0.7496 -1.3041  2.5374
19514TIP3   OH279956   5.149   1.138   1.497  0.3252  0.6150 -0.4055
19514TIP3    H179957   5.074   1.197   1.503  0.2209  0.4643 -0.2199
19514TIP3    H279958   5.111   1.051   1.499  0.5569  0.5286  0.4611
19515TIP3   OH279959   4.321   0.498   6.451  0.2453  0.1224 -0.4849
19515TIP3    H179960   4.236   0.541   6.441 -0.8835 -1.5261  1.3039
19515TIP3    H279961   4.384   0.570   6.453 -1.1832  1.4531 -0.9373
19516TIP3   OH279962   3.777   0.021   3.328 -0.1189 -0.4056  0.3305
19516TIP3    H179963   3.819   0.040   3.244 -0.1029 -1.8341 -0.0080
19516TIP3    H279964   3.848  -0.015   3.382 -0.8367 -2.8778 -0.2582
19517TIP3   OH279965   2.618   6.749  11.351  0.1107  0.2096 -0.4379
19517TIP3    H179966   2.608   6.690  11.277 -0.5781  0.9069 -0.9116
19517TIP3    H279967   2.656   6.828  11.314  0.1531  0.4120  0.0275
19518TIP3   OH279968   6.031   0.425  10.766 -0.1276  0.4217 -0.4445
19518TIP3    H179969   6.115   0.445  10.807 -0.2943 -0.7109  0.4881
19518TIP3    H279970   5.970   0.488  10.804  0.1954  0.9753 -0.8176
19519TIP3   OH279971   1.574   0.660  14.606  0.7233 -0.2388 -0.0613
19519TIP3    H179972   1.524   0.721  14.552 -0.3309  0.3691  1.5307
19519TIP3    H279973   1.560   0.575  14.564  0.2764  0.2634 -0.9753
19520TIP3   OH279974   4.775   1.276  12.391 -0.5145  0.2431  0.3279
19520TIP3    H179975   4.755   1.183  12.395 -0.2097  0.1760  0.3268
19520TIP3    H279976   4.796   1.293  12.299 -0.2139  0.2351  0.3928
19521TIP3   OH279977   2.973   4.693   6.403 -0.3259  0.0916  1.1765
19521TIP3    H179978   3.023   4.767   6.367 -1.5630  0.3552 -0.0654
19521TIP3    H279979   2.887   4.730   6.422 -0.5151 -0.7050  1.9207
19522TIP3   OH279980   4.782   5.851  15.660 -0.0430  0.1563  0.1951
19522TIP3    H179981   4.704   5.797  15.662  0.5128 -0.6829  2.8053
19522TIP3    H279982   4.832   5.825  15.738  2.1085  1.7218 -0.5513
19523TIP3   OH279983   5.047   1.968  15.580 -1.0689  0.5294  0.4035
19523TIP3    H179984   5.077   2.002  15.664  0.8711 -1.2454  0.4888
19523TIP3    H279985   4.981   1.902  15.602 -0.3235 -0.1682  0.5569
19524TIP3   OH279986   0.026   6.157   0.795  0.0411  0.0502 -0.5759
19524TIP3    H179987   0.085   6.115   0.857 -1.6628 -0.2990  0.9053
19524TIP3    H279988   0.057   6.129   0.709  0.7825 -1.7817  0.2455
19525TIP3   OH279989   4.941   0.608   0.163 -0.1754 -0.0030 -0.2440
19525TIP3    H179990   4.998   0.657   0.222  0.6308  0.4208 -1.3556
19525TIP3    H279991   4.954   0.647   0.077 -1.1784 -0.7393 -0.7647
19526TIP3   OH279992   3.472   5.880  11.724  0.0409  0.0658 -0.8927
19526TIP3    H179993   3.567   5.888  11.736  0.0210 -0.7291 -0.0888
19526TIP3    H279994   3.436   5.948  11.781  0.0795 -1.0854  0.5642
19527TIP3   OH279995   3.512   6.498  12.355  0.3399 -0.4350  0.2372
19527TIP3    H179996   3.588   6.469  12.405  1.3562 -0.4139 -1.2274
19527TIP3    H279997   3.474   6.418  12.320  1.3237 -0.2987 -1.2521
19528TIP3   OH279998   3.592   3.208  15.304  0.0484 -0.3039 -0.0655
19528TIP3    H179999   3.544   3.152  15.244 -1.2411  1.8383 -1.1449
19528TIP3    H280000   3.552   3.191  15.389 -2.4430  1.1108 -0.8647
19529TIP3   OH280001   4.897   2.420  13.197  0.1966 -0.1080 -0.0223
19529TIP3    H180002   4.983   2.433  13.237  0.9413 -0.3091 -1.4699
19529TIP3    H280003   4.842   2.487  13.236  1.3374  0.8416  0.0282
19530TIP3   OH280004   5.915   3.370   1.161 -0.2873  0.5015 -0.4802
19530TIP3    H180005   5.983   3.307   1.138 -0.9466 -0.8413  1.0510
19530TIP3    H280006   5.835   3.335   1.123 -0.3004  1.6338 -1.5546
19531TIP3   OH280007   2.430   1.385  15.196 -0.4565  0.3240  0.0036
19531TIP3    H180008   2.515   1.344  15.212 -0.1325  0.9579 -0.0736
19531TIP3    H280009   2.425   1.393  15.101  0.2926  2.1147  0.0740
19532TIP3   OH280010   1.478   4.584   5.441 -0.4271 -0.0130 -0.2019
19532TIP3    H180011   1.497   4.577   5.535  0.5134 -2.6224 -0.4849
19532TIP3    H280012   1.385   4.603   5.437  0.0316  3.1512  1.2054
19533TIP3   OH280013   5.439   5.257   0.347  0.0639  0.7478  0.1283
19533TIP3    H180014   5.464   5.193   0.413  1.8286  1.0262 -0.1992
19533TIP3    H280015   5.376   5.314   0.391  0.3659  0.2655  1.2255
19534TIP3   OH280016   3.832   3.955   6.018 -0.2503 -0.2690  0.0521
19534TIP3    H180017   3.775   4.020   5.977 -0.4747  0.1723  1.0365
19534TIP3    H280018   3.911   4.004   6.041 -0.5037 -0.2807  0.9887
19535TIP3   OH280019   6.353   6.366  15.780  0.3015 -0.7232  0.0640
19535TIP3    H180020   6.322   6.439  15.832 -1.2111 -0.7384 -0.7572
19535TIP3    H280021   6.287   6.355  15.712  1.7689 -1.2465 -1.3565
19536TIP3   OH280022   1.108   4.198   3.074 -0.1707  0.3205 -0.1563
19536TIP3    H180023   1.038   4.251   3.037  0.0000  0.4279 -0.3241
19536TIP3    H280024   1.107   4.219   3.168 -0.6526 -0.0116 -0.0874
19537TIP3   OH280025   6.013   4.532   4.174  0.0248 -0.4475  0.3122
19537TIP3    H180026   5.957   4.460   4.205  0.9772 -1.0051  0.7763
19537TIP3    H280027   6.084   4.489   4.128  1.1649  0.1180  1.4766
19538TIP3   OH280028   3.279   4.134  12.849  0.3161 -0.1682  0.1107
19538TIP3    H180029   3.365   4.126  12.807  0.3904  0.6446  0.0887
19538TIP3    H280030   3.217   4.105  12.782  0.4703  0.6829 -0.4298
19539TIP3   OH280031   3.177   6.370   0.326  0.1485  0.1324  0.0982
19539TIP3    H180032   3.182   6.457   0.286 -0.6570 -0.2366 -0.8580
19539TIP3    H280033   3.127   6.383   0.407 -1.3665  0.3246 -0.8232
19540TIP3   OH280034   5.355   4.398   2.132 -0.0846  0.2151 -0.0322
19540TIP3    H180035   5.334   4.402   2.039  1.2817 -0.8124 -0.4249
19540TIP3    H280036   5.410   4.475   2.147 -0.7636  0.6879  0.0673
19541TIP3   OH280037   3.700   6.106  17.085  0.5178 -0.1327 -0.0458
19541TIP3    H180038   3.667   6.047  17.018 -0.0543  0.1998 -0.0672
19541TIP3    H280039   3.633   6.174  17.092  1.0909  0.4228  0.0930
19542TIP3   OH280040   2.029   1.566   0.855 -0.5246 -0.6781  0.4253
19542TIP3    H180041   2.005   1.579   0.947  0.6572 -1.4061  0.8637
19542TIP3    H280042   1.974   1.627   0.807 -1.0413 -0.1562  1.6383
19543TIP3   OH280043   2.133   6.525  16.789  0.3626  0.1536  0.2486
19543TIP3    H180044   2.102   6.443  16.828  1.0473  0.1714  0.8540
19543TIP3    H280045   2.222   6.535  16.824 -0.3599  2.1033  1.7040
19544TIP3   OH280046   6.045   4.730  13.512 -0.0645 -0.0888  0.0081
19544TIP3    H180047   5.990   4.700  13.440 -1.6746 -0.8332  1.5044
19544TIP3    H280048   6.105   4.792  13.471 -2.5193  1.4075 -1.5733
19545TIP3   OH280049   4.025   5.396  16.666  0.2111  0.3189 -0.1993
19545TIP3    H180050   4.039   5.463  16.733  0.1448  0.6684 -0.5299
19545TIP3    H280051   3.931   5.379  16.669  0.0665  0.9332 -0.7530
19546TIP3   OH280052   2.602   5.783  15.690 -0.7150 -0.3658 -0.3365
19546TIP3    H180053   2.550   5.830  15.755 -0.7654  1.6967 -1.7733
19546TIP3    H280054   2.670   5.739  15.741 -0.5675  1.4016  1.1034
19547TIP3   OH280055   1.106   3.344  10.914 -0.2697 -0.5725 -0.4983
19547TIP3    H180056   1.152   3.423  10.885  0.1295 -0.7090 -0.2389
19547TIP3    H280057   1.014   3.370  10.916 -0.1501 -0.1399 -0.5105
19548TIP3   OH280058   3.377   4.779   3.438  0.6011  0.5298 -0.1982
19548TIP3    H180059   3.415   4.839   3.503  0.4399  0.9237 -0.4633
19548TIP3    H280060   3.391   4.823   3.354  0.3988  0.2379 -0.3847
19549TIP3   OH280061   5.465   6.047  13.914 -0.1279  0.4141 -0.4895
19549TIP3    H180062   5.449   6.138  13.891 -2.5076 -0.0061 -0.7388
19549TIP3    H280063   5.549   6.026  13.873 -0.1424  2.1378 -1.4748
19550TIP3   OH280064   3.928   2.259  11.151  0.4115  0.1666  0.3127
19550TIP3    H180065   4.011   2.306  11.148  0.1148  0.6702 -0.0672
19550TIP3    H280066   3.948   2.174  11.112  0.8874  0.0641  0.7696
19551TIP3   OH280067   3.089   1.018   2.100 -0.6231 -0.2412 -0.1602
19551TIP3    H180068   3.123   0.937   2.138 -1.7450 -0.6568  0.0061
19551TIP3    H280069   3.035   0.988   2.026  1.2270  0.5210 -1.9067
19552TIP3   OH280070   0.304   6.402  16.958  0.2708 -0.3726 -0.4838
19552TIP3    H180071   0.240   6.427  16.891 -3.0684 -1.8876  1.8613
19552TIP3    H280072   0.251   6.377  17.033  3.7275 -1.3951  1.8361
19553TIP3   OH280073   0.881   1.549  12.707 -0.5745 -0.1721 -0.5605
19553TIP3    H180074   0.881   1.461  12.670 -2.0302 -0.1925 -0.5447
19553TIP3    H280075   0.879   1.607  12.632  1.3423 -0.1023 -0.6014
19554TIP3   OH280076   2.700   4.098  12.324 -0.2534 -0.0957 -0.3664
19554TIP3    H180077   2.621   4.049  12.299 -0.1444  0.0028 -0.9237
19554TIP3    H280078   2.763   4.030  12.347 -0.8313 -0.1603  1.1912
19555TIP3   OH280079   5.417   3.897   5.717  0.2900 -0.1819  0.3337
19555TIP3    H180080   5.463   3.927   5.795  0.8586 -0.1751  0.0027
19555TIP3    H280081   5.436   3.962   5.650  3.0012 -2.0635 -0.9029
19556TIP3   OH280082   1.779   2.082   4.124  0.0799 -0.0818 -0.3151
19556TIP3    H180083   1.847   2.029   4.083 -1.4032 -3.1054  0.7984
19556TIP3    H280084   1.704   2.075   4.065 -0.4197  0.0510  0.2957
19557TIP3   OH280085   1.590   6.762   4.039  0.0996  0.1294  0.1235
19557TIP3    H180086   1.510   6.784   3.991 -0.2377 -0.2359  0.5063
19557TIP3    H280087   1.590   6.666   4.043  1.6681  0.0130 -1.7071
19558TIP3   OH280088   3.901   0.414  16.221 -0.3293  0.1707 -0.6721
19558TIP3    H180089   3.947   0.377  16.297 -1.6193  0.8298  0.4750
19558TIP3    H280090   3.945   0.497  16.205  0.5982 -0.4191 -1.3231
19559TIP3   OH280091   5.808   0.730  15.199  0.1410  0.0380 -0.5628
19559TIP3    H180092   5.731   0.676  15.184  0.6496 -0.8156 -0.1351
19559TIP3    H280093   5.787   0.813  15.156 -0.7584 -0.3946 -0.9888
19560TIP3   OH280094   2.017   6.383  17.122  1.0343 -0.6634 -0.9468
19560TIP3    H180095   1.999   6.347  17.035 -1.6432  0.6603 -1.0419
19560TIP3    H280096   2.012   6.307  17.181 -0.3747 -1.1135 -1.5990
19561TIP3   OH280097   2.672   2.796   3.731  0.1484  0.7252  0.3808
19561TIP3    H180098   2.634   2.726   3.784  0.5224  1.5626  1.8140
19561TIP3    H280099   2.604   2.816   3.666 -0.9239  0.6361  1.4412
19562TIP3   OH280100   1.207   0.680   5.010  0.1448 -0.2428 -0.0797
19562TIP3    H180101   1.221   0.767   5.049  0.7873 -0.5894  0.4814
19562TIP3    H280102   1.219   0.619   5.083  0.2053 -0.8338 -0.5818
19563TIP3   OH280103   3.938   4.120  11.919  0.4907 -0.0553 -0.2674
19563TIP3    H180104   3.989   4.189  11.963  1.4468 -0.3713 -0.8536
19563TIP3    H280105   3.931   4.150  11.829 -2.5840  1.2265  0.2784
19564TIP3   OH280106   6.709   0.795  13.900 -0.0902 -0.2036  0.2454
19564TIP3    H180107   6.645   0.840  13.954 -0.2997 -2.0354  1.6294
19564TIP3    H280108   6.723   0.711  13.944  1.1334 -1.0226 -1.5670
19565TIP3   OH280109   1.547   5.437   0.397 -0.3196 -0.7030 -0.0238
19565TIP3    H180110   1.575   5.349   0.424  3.7766  0.6186  0.6648
19565TIP3    H280111   1.587   5.450   0.311 -0.9800  0.4520 -0.1704
19566TIP3   OH280112   0.418   2.678   0.464  0.7146  0.5811 -0.2019
19566TIP3    H180113   0.397   2.769   0.443 -1.7181  0.0992 -0.0677
19566TIP3    H280114   0.514   2.674   0.457  0.8605  3.0497 -0.5275
19567TIP3   OH280115   3.058   1.916  16.808 -0.0309 -0.2246 -0.0556
19567TIP3    H180116   2.984   1.977  16.804  0.7521  0.7147 -0.7592
19567TIP3    H280117   3.023   1.834  16.772 -0.6147  0.3358 -0.8037
19568TIP3   OH280118   6.773   5.655   4.525  0.3491  0.3702  0.1614
19568TIP3    H180119   6.793   5.720   4.458  0.7904  0.2127  0.1345
19568TIP3    H280120   6.704   5.695   4.578  1.1285  1.1766  0.5999
19569TIP3   OH280121   3.210   0.549   4.698  0.4741  0.0769  0.7315
19569TIP3    H180122   3.261   0.600   4.760  0.1443  0.0745  1.0077
19569TIP3    H280123   3.206   0.461   4.737  0.8356 -0.0968  0.3781
19570TIP3   OH280124   5.396   2.552  13.208  0.0066  0.1722 -0.1560
19570TIP3    H180125   5.412   2.575  13.116  1.6283 -0.1831  0.0049
19570TIP3    H280126   5.301   2.555  13.217 -0.1396  1.1792 -1.5896
19571TIP3   OH280127   3.914   1.256   4.214 -0.3773 -0.6468  0.4724
19571TIP3    H180128   3.965   1.241   4.134 -0.8476 -0.7547  0.1902
19571TIP3    H280129   3.977   1.294   4.276 -0.3628  0.8710 -0.4285
19572TIP3   OH280130   4.176   5.055   2.048  0.6788 -0.0044  0.3575
19572TIP3    H180131   4.127   5.076   2.128 -0.4088  1.3026 -0.6184
19572TIP3    H280132   4.242   5.124   2.042 -0.3478  0.9189 -0.7539
19573TIP3   OH280133   4.651   6.120  11.327 -0.6081  0.1601  0.1786
19573TIP3    H180134   4.746   6.108  11.327 -0.6422 -0.1190 -0.0392
19573TIP3    H280135   4.627   6.130  11.235 -0.8466 -0.2751  0.1883
19574TIP3   OH280136   6.026   6.725   5.218 -0.4058 -0.0596 -0.3422
19574TIP3    H180137   5.961   6.681   5.163 -1.1498 -0.2282  0.6467
19574TIP3    H280138   6.019   6.682   5.303 -0.0695  0.9533  0.2118
19575TIP3   OH280139   3.413   3.105  11.813 -0.2796 -0.2411  0.3431
19575TIP3    H180140   3.459   3.023  11.797 -0.2461 -0.0235 -0.7592
19575TIP3    H280141   3.440   3.131  11.901  1.3476 -0.3550 -0.0833
19576TIP3   OH280142   2.802   0.903  11.001 -0.0569  0.9130 -1.1096
19576TIP3    H180143   2.894   0.878  10.994 -0.1875  0.3881 -0.9856
19576TIP3    H280144   2.769   0.900  10.912 -0.4051 -0.6859 -0.9604
19577TIP3   OH280145   6.464   1.708  13.455  0.3037  0.0195  0.3670
19577TIP3    H180146   6.498   1.674  13.537 -0.2146 -2.2251 -0.2858
19577TIP3    H280147   6.391   1.651  13.433  0.1405  0.8334 -1.4363
19578TIP3   OH280148   1.450   5.119   4.146 -0.2108 -0.1842  0.3370
19578TIP3    H180149   1.502   5.047   4.183  0.3186 -1.0154 -1.8303
19578TIP3    H280150   1.507   5.195   4.153  0.4312 -0.6176 -0.0075
19579TIP3   OH280151   4.498   2.574  14.761 -0.4067  0.1072  0.1031
19579TIP3    H180152   4.439   2.603  14.831  0.4651  0.4019  0.7364
19579TIP3    H280153   4.471   2.484  14.743 -0.4115 -0.0984  1.0838
19580TIP3   OH280154   2.265   0.159  15.557 -0.3640 -0.2507  0.0561
19580TIP3    H180155   2.267   0.089  15.622 -1.4702 -1.0192 -0.7045
19580TIP3    H280156   2.192   0.136  15.499 -1.8111  2.3233  0.7025
19581TIP3   OH280157   6.526   4.193  12.788  0.1214  0.0271  0.4062
19581TIP3    H180158   6.478   4.147  12.857  0.8417  2.0635  2.3732
19581TIP3    H280159   6.600   4.233  12.833  1.4504  0.2873 -1.8389
19582TIP3   OH280160   0.016   4.988  16.694 -0.0815  0.0055 -0.2850
19582TIP3    H180161   0.020   4.993  16.598 -0.4897 -0.2823 -0.3151
19582TIP3    H280162  -0.071   5.020  16.717 -0.0532 -0.1027 -0.0221
19583TIP3   OH280163   3.389   0.742   1.669  0.1443 -0.6214  0.0282
19583TIP3    H180164   3.324   0.805   1.700 -1.5079 -2.5402  0.7053
19583TIP3    H280165   3.389   0.751   1.574 -0.7923 -0.2740  0.0520
19584TIP3   OH280166   5.291   3.157   1.591 -0.0940 -0.0895 -1.1616
19584TIP3    H180167   5.342   3.234   1.568  0.3582 -0.4965 -1.5466
19584TIP3    H280168   5.219   3.190   1.645  0.5695  0.4931 -0.6146
19585TIP3   OH280169   2.064   0.469   0.768  0.1629 -0.1823  0.2108
19585TIP3    H180170   2.141   0.412   0.767 -0.4468 -1.1118  1.9576
19585TIP3    H280171   2.100   0.557   0.755  1.3220 -0.7573 -0.6910
19586TIP3   OH280172   6.399   5.661   3.426 -0.3779 -0.2101 -0.0794
19586TIP3    H180173   6.425   5.570   3.417 -1.7800 -0.6376 -0.1231
19586TIP3    H280174   6.310   5.657   3.461 -1.8102  1.0015 -3.2105
19587TIP3   OH280175   6.775   3.998  11.099  0.5991 -0.0518  0.1340
19587TIP3    H180176   6.710   3.984  11.169  1.1171 -1.5740  0.3596
19587TIP3    H280177   6.774   3.916  11.050  2.4539 -0.1604  0.2288
19588TIP3   OH280178   3.222   2.166  13.450  0.0903  0.2951 -0.5398
19588TIP3    H180179   3.298   2.109  13.465 -0.7943 -0.7541  0.1205
19588TIP3    H280180   3.228   2.233  13.518  0.4824  0.2756 -0.5552
19589TIP3   OH280181   0.515   6.423   3.124 -0.0448 -0.4536 -0.0578
19589TIP3    H180182   0.533   6.358   3.192  0.9317 -0.8912 -0.7047
19589TIP3    H280183   0.599   6.435   3.079 -1.0927 -1.9626 -2.6926
19590TIP3   OH280184   2.892   0.593  14.706  0.1459 -0.5404 -0.0942
19590TIP3    H180185   2.874   0.575  14.614 -1.5141 -2.2709  0.5143
19590TIP3    H280186   2.877   0.510  14.751  0.0048  0.4819  1.8748
19591TIP3   OH280187   6.062   2.188  16.372  0.9888 -0.0155 -0.7648
19591TIP3    H180188   6.000   2.255  16.342  0.2418 -0.7620 -0.9348
19591TIP3    H280189   6.100   2.225  16.452  2.0733  1.4502 -1.9144
19592TIP3   OH280190   6.010   5.783  15.354  0.4649  0.1214  0.2432
19592TIP3    H180191   6.100   5.792  15.323  0.4673  0.4634  0.3539
19592TIP3    H280192   5.957   5.830  15.290  0.3683 -0.0500  0.1968
19593TIP3   OH280193   3.007   0.909  12.267  0.2161  0.7336  0.0537
19593TIP3    H180194   2.975   0.997  12.286 -0.4286  0.5536 -0.1807
19593TIP3    H280195   2.932   0.863  12.230  0.3988 -0.0719  0.6494
19594TIP3   OH280196   5.959   4.379  13.201 -0.4990  0.2346  0.0953
19594TIP3    H180197   5.955   4.287  13.228  0.8179  0.1418  0.0543
19594TIP3    H280198   5.911   4.381  13.118  1.4177 -0.9587 -1.1662
19595TIP3   OH280199   0.564   6.386  11.142 -0.6912  0.5197 -0.4596
19595TIP3    H180200   0.558   6.346  11.055 -1.9133 -0.6490  0.1239
19595TIP3    H280201   0.476   6.380  11.177 -0.0750  0.3267  1.1408
19596TIP3   OH280202   2.390   3.560   2.485 -0.8417  0.4267 -0.3732
19596TIP3    H180203   2.332   3.572   2.561 -0.4960  2.8301 -0.4145
19596TIP3    H280204   2.474   3.536   2.523 -1.0414  0.1332 -0.1077
19597TIP3   OH280205   0.286   4.133   0.700 -0.0830  0.3101  0.1978
19597TIP3    H180206   0.285   4.038   0.710  1.8052  0.1820 -0.4780
19597TIP3    H280207   0.317   4.165   0.785  0.9885  0.1819 -0.1250
19598TIP3   OH280208   2.102   3.439  14.323  0.2463  0.4567  0.0700
19598TIP3    H180209   2.044   3.475  14.256  1.9131  0.9534 -1.1807
19598TIP3    H280210   2.185   3.487  14.312  0.9394 -0.2640  1.7286
19599TIP3   OH280211   0.900   0.959   2.045 -0.3897 -0.4219 -0.3506
19599TIP3    H180212   0.876   0.920   2.128  1.2471  1.7234  1.2651
19599TIP3    H280213   0.989   0.926   2.028  0.4593  1.3593  0.3417
19600TIP3   OH280214   4.841   4.455  11.803 -0.3390 -0.0768  0.9006
19600TIP3    H180215   4.821   4.391  11.872 -0.4963 -1.8357 -0.7026
19600TIP3    H280216   4.790   4.425  11.728  0.9447  0.9468 -0.4169
19601TIP3   OH280217   4.864   4.443  12.270  0.2561 -0.1734  0.2369
19601TIP3    H180218   4.913   4.364  12.251  0.1271 -0.4007  0.8310
19601TIP3    H280219   4.784   4.413  12.313 -0.2626  0.2153 -0.4332
19602TIP3   OH280220   0.815   4.966   4.737  0.4728 -0.0961  0.0674
19602TIP3    H180221   0.743   5.016   4.699  1.5641  1.4421 -0.0847
19602TIP3    H280222   0.832   5.009   4.821  1.0677 -0.5716  0.1946
19603TIP3   OH280223   6.658   2.049  14.877  0.3678  0.0147  0.9685
19603TIP3    H180224   6.568   2.024  14.898 -0.3811  0.6076 -1.3499
19603TIP3    H280225   6.708   1.969  14.891 -1.1086 -1.3587 -1.0657
19604TIP3   OH280226   0.859   5.685  13.252 -0.1485  0.1889  0.6313
19604TIP3    H180227   0.936   5.652  13.206 -1.1600 -2.4335  0.6101
19604TIP3    H280228   0.791   5.690  13.185 -0.1637  2.0717  0.7341
19605TIP3   OH280229   1.214   2.872  16.942  0.0195 -0.5553 -0.9146
19605TIP3    H180230   1.293   2.926  16.936 -0.1498 -0.4611 -2.7836
19605TIP3    H280231   1.169   2.904  17.021  2.0082 -0.8839  0.4265
19606TIP3   OH280232   4.158   0.698  13.762  0.4066 -0.2008 -0.0597
19606TIP3    H180233   4.162   0.617  13.813 -0.1609 -0.2290 -0.0569
19606TIP3    H280234   4.242   0.741  13.779 -0.1443  0.2596  1.6885
19607TIP3   OH280235   5.814   4.824  11.224  0.1883 -0.2849 -0.0884
19607TIP3    H180236   5.777   4.782  11.147 -0.5150 -0.2168  0.2042
19607TIP3    H280237   5.859   4.902  11.190  1.3046 -1.1192 -0.6070
19608TIP3   OH280238   3.483   2.139   3.585 -0.0448 -0.2476  0.5861
19608TIP3    H180239   3.420   2.209   3.604  0.0639 -0.2493  0.9567
19608TIP3    H280240   3.472   2.122   3.492 -1.7345 -1.3573  0.9444
19609TIP3   OH280241   1.408   5.291   5.852 -0.2127  0.2846 -0.3063
19609TIP3    H180242   1.387   5.322   5.940 -0.9593  1.1735 -0.7796
19609TIP3    H280243   1.359   5.209   5.843  0.3864 -0.1510  0.3312
19610TIP3   OH280244   2.756   0.443  16.612  1.0333 -0.0905  0.2851
19610TIP3    H180245   2.725   0.358  16.581  1.5546  0.2905 -1.3755
19610TIP3    H280246   2.680   0.501  16.604  1.4469  0.2607 -1.3958
19611TIP3   OH280247   3.217   1.565  14.467 -0.6167  0.6814 -0.4895
19611TIP3    H180248   3.139   1.556  14.412 -1.0107  3.2134 -0.4575
19611TIP3    H280249   3.290   1.564  14.406 -1.0468  3.3891 -1.1666
19612TIP3   OH280250   0.412   0.554  12.165  0.5915 -0.2623 -0.2731
19612TIP3    H180251   0.473   0.574  12.235  1.4742 -1.2698 -0.7185
19612TIP3    H280252   0.333   0.524  12.209 -0.7092  3.6213  0.4238
19613TIP3   OH280253   6.741   1.189  13.302  0.1074  0.0487 -0.7564
19613TIP3    H180254   6.733   1.196  13.207 -0.9779  0.8432 -0.6239
19613TIP3    H280255   6.667   1.133  13.328  0.9382 -0.9516 -0.4516
19614TIP3   OH280256   6.509   1.519   5.400 -0.4903  0.0100  0.1820
19614TIP3    H180257   6.499   1.606   5.438  3.5610 -0.2196  2.3296
19614TIP3    H280258   6.494   1.459   5.473  2.9567 -0.6421  0.5412
19615TIP3   OH280259   4.682   4.148  11.271  0.0440 -0.3293 -0.0157
19615TIP3    H180260   4.609   4.188  11.318  0.7026  0.3213  0.4945
19615TIP3    H280261   4.717   4.083  11.332 -0.9994 -1.6860 -0.8305
19616TIP3   OH280262   5.111   2.012   3.764 -0.0098 -0.0083 -0.1702
19616TIP3    H180263   5.054   2.022   3.687  1.0555  0.3015 -0.9427
19616TIP3    H280264   5.148   1.924   3.754  1.2821  0.5869 -0.8388
19617TIP3   OH280265   0.652   6.280   5.251 -0.2673  0.1712 -0.0027
19617TIP3    H180266   0.674   6.354   5.308 -0.0260 -0.1365  0.3084
19617TIP3    H280267   0.664   6.313   5.162 -0.4268  0.5883  0.1307
19618TIP3   OH280268   1.499   3.029   0.628  0.2839  0.0884  0.1768
19618TIP3    H180269   1.581   3.069   0.656  0.1392  1.1124 -0.7947
19618TIP3    H280270   1.438   3.046   0.700  1.1174 -1.4702  1.3161
19619TIP3   OH280271   3.725   1.219   1.343  0.1039 -0.9396  0.0571
19619TIP3    H180272   3.651   1.278   1.331 -0.2650 -1.3567  0.2293
19619TIP3    H280273   3.797   1.275   1.369  0.0989 -0.4110 -1.0401
19620TIP3   OH280274   3.243   2.570  13.051  0.5194  0.0231  0.1371
19620TIP3    H180275   3.236   2.663  13.073 -0.2589 -0.0291  0.1585
19620TIP3    H280276   3.285   2.530  13.127  2.7744  0.6577 -0.7196
19621TIP3   OH280277   0.509   4.070  11.219 -0.1476  0.2990  0.2007
19621TIP3    H180278   0.496   3.983  11.183 -0.3055  1.2480 -2.2319
19621TIP3    H280279   0.489   4.061  11.312 -0.9496 -2.0589 -0.1347
19622TIP3   OH280280   4.445   3.940  16.686 -0.6559  0.0949  0.1922
19622TIP3    H180281   4.406   3.970  16.768 -0.5854  2.2384 -0.4970
19622TIP3    H280282   4.374   3.946  16.622 -0.3353 -0.1655 -0.1933
19623TIP3   OH280283   6.408   3.038   5.508 -0.1949  0.0855 -0.5444
19623TIP3    H180284   6.388   2.945   5.516  0.8307 -0.0263  1.2483
19623TIP3    H280285   6.327   3.077   5.476 -1.1322 -1.2332  0.1324
19624TIP3   OH280286   5.141   1.172  17.079  0.5563 -0.1029 -0.3642
19624TIP3    H180287   5.063   1.117  17.074  1.4093 -1.5740  1.1715
19624TIP3    H280288   5.108   1.260  17.100 -0.6830 -0.7900  0.7218
19625TIP3   OH280289   6.302   1.636   0.385  0.0561  0.0734  0.2112
19625TIP3    H180290   6.268   1.650   0.473 -0.7533 -0.7058  0.0303
19625TIP3    H280291   6.361   1.710   0.371  0.1249  0.2592  1.3662
19626TIP3   OH280292   5.552   2.263  16.880 -0.0579  0.0075 -0.3108
19626TIP3    H180293   5.458   2.282  16.885 -0.0593 -0.0499 -0.1183
19626TIP3    H280294   5.568   2.249  16.787 -0.4370 -0.9729 -0.2393
19627TIP3   OH280295   3.619   1.745  16.967 -0.4299  0.2275  0.2013
19627TIP3    H180296   3.592   1.748  16.875 -0.3993  0.5188  0.1993
19627TIP3    H280297   3.673   1.823  16.978 -2.2020  1.4114  1.0171
19628TIP3   OH280298   3.337   4.414   2.821  0.3130 -0.1328  0.2293
19628TIP3    H180299   3.274   4.410   2.894 -0.1486 -0.6081 -0.1919
19628TIP3    H280300   3.378   4.500   2.831  0.2114 -0.1646  1.0160
19629TIP3   OH280301   2.762   0.942  15.866 -0.2570 -0.2952  0.0722
19629TIP3    H180302   2.754   0.882  15.940 -0.9829 -0.3273 -0.0287
19629TIP3    H280303   2.716   1.021  15.895  1.0064  0.3656  0.3546
19630TIP3   OH280304   4.957   5.915  13.573 -0.0251 -0.4864  0.2878
19630TIP3    H180305   4.959   5.863  13.493  2.3730 -0.3202  0.1607
19630TIP3    H280306   4.981   5.853  13.642 -1.6091 -0.5191  0.8506
19631TIP3   OH280307   3.339   1.262   3.455  0.5457  0.6006  0.1386
19631TIP3    H180308   3.298   1.330   3.401  1.5724  0.9516 -0.2215
19631TIP3    H280309   3.279   1.252   3.529 -0.8282  0.1867 -0.9827
19632TIP3   OH280310   6.022   4.312   0.032  0.0872  0.1473  0.4060
19632TIP3    H180311   6.045   4.220   0.017  1.4823  0.5842 -0.2598
19632TIP3    H280312   6.032   4.324   0.127  3.4066  0.4455  0.1494
19633TIP3   OH280313   2.894   4.988  12.409  0.1509 -0.5317 -0.0741
19633TIP3    H180314   2.842   5.058  12.370 -0.4137 -2.1748 -2.5017
19633TIP3    H280315   2.892   5.006  12.503 -1.1792  1.8487 -0.4833
19634TIP3   OH280316   2.404   5.848   4.127  0.1312 -0.5123  0.1094
19634TIP3    H180317   2.441   5.800   4.200  0.3010  0.2381  0.5301
19634TIP3    H280318   2.310   5.848   4.143  0.2009  0.0072  0.5644
19635TIP3   OH280319   3.622   1.640  14.092  0.6059 -0.1447  0.0298
19635TIP3    H180320   3.655   1.722  14.058  1.7556  0.7854  3.0259
19635TIP3    H280321   3.536   1.662  14.128  0.8190 -0.2886  0.6402
19636TIP3   OH280322   6.399   0.520  14.675 -0.0533 -0.4473  0.2358
19636TIP3    H180323   6.401   0.588  14.608 -0.3837 -0.2126  0.4609
19636TIP3    H280324   6.341   0.555  14.743  1.1018 -0.2199  1.1326
19637TIP3   OH280325   6.044   5.581  14.462 -0.3678  0.3165  0.1117
19637TIP3    H180326   6.105   5.533  14.407 -1.2029  0.0514 -0.6249
19637TIP3    H280327   6.066   5.557  14.552  0.0846 -0.3842 -0.1866
19638TIP3   OH280328   6.127   0.288   1.014  0.1088  0.4758  0.1674
19638TIP3    H180329   6.218   0.276   0.986  0.2237  0.7351  0.4169
19638TIP3    H280330   6.127   0.373   1.059 -0.3565  0.7026 -0.2429
19639TIP3   OH280331   4.825   1.172   2.694  0.0333  0.0703  0.0338
19639TIP3    H180332   4.846   1.223   2.772 -0.9098  0.6549 -0.0850
19639TIP3    H280333   4.903   1.118   2.680  1.3577  1.9421 -0.2410
19640TIP3   OH280334   4.958   4.861  16.922  0.2083  0.2980 -0.4227
19640TIP3    H180335   4.984   4.940  16.875  0.4284  0.3775 -0.1660
19640TIP3    H280336   4.902   4.892  16.993  0.7236  0.2760 -0.0002
19641TIP3   OH280337   2.311   2.338   1.034  0.0180  0.3849  0.1894
19641TIP3    H180338   2.331   2.388   0.955  1.1530  1.5785  1.1730
19641TIP3    H280339   2.308   2.404   1.103  0.7124 -0.8177  1.4020
19642TIP3   OH280340   3.555   4.955   4.794  0.2417 -0.3889  0.1793
19642TIP3    H180341   3.587   5.040   4.826 -2.0799  0.1544  1.2688
19642TIP3    H280342   3.574   4.894   4.866 -0.1064 -0.3141  0.3350
19643TIP3   OH280343   0.912   3.521  15.247 -0.4475 -0.2886  0.1298
19643TIP3    H180344   0.961   3.530  15.329  1.4322 -0.2256 -0.9633
19643TIP3    H280345   0.823   3.548  15.270  0.4099  1.3856  1.7606
19644TIP3   OH280346   5.546   1.366   1.795  0.1892 -0.1661  0.0862
19644TIP3    H180347   5.591   1.450   1.808 -2.4540  1.5858 -1.2453
19644TIP3    H280348   5.585   1.330   1.715 -0.5489  1.2454 -0.9556
19645TIP3   OH280349   1.772   5.270   0.462  0.0050 -0.0269  0.4026
19645TIP3    H180350   1.734   5.284   0.548  0.0555 -2.1333  0.8189
19645TIP3    H280351   1.866   5.262   0.478  0.1395  0.5610 -0.0151
19646TIP3   OH280352   1.044   0.222  16.438 -0.1818 -0.4898 -0.4777
19646TIP3    H180353   1.085   0.141  16.408  4.1001  1.6608 -1.2996
19646TIP3    H280354   1.078   0.235  16.526  0.1877  0.9127 -0.8018
19647TIP3   OH280355   5.693   2.970   6.359 -0.2241  0.6794 -0.8070
19647TIP3    H180356   5.630   2.958   6.429  0.1090  2.8721 -0.0417
19647TIP3    H280357   5.712   2.882   6.327 -1.1859 -0.2786  1.1334
19648TIP3   OH280358   3.126   0.872  14.196  0.4712  0.1221 -0.1839
19648TIP3    H180359   3.062   0.943  14.193 -0.0776 -0.3855 -0.9530
19648TIP3    H280360   3.148   0.856  14.104 -0.7660 -1.8735 -0.2072
19649TIP3   OH280361   4.381   4.781   2.978 -0.0552  0.1855  0.1781
19649TIP3    H180362   4.343   4.846   3.038 -1.2762  1.0358 -1.4526
19649TIP3    H280363   4.350   4.697   3.012 -1.3794  0.7052  0.3338
19650TIP3   OH280364   6.670   5.478   3.860  0.4614  0.3654  0.5545
19650TIP3    H180365   6.648   5.410   3.923  1.3953 -0.8780 -0.3940
19650TIP3    H280366   6.766   5.477   3.855  0.4095 -0.4989 -1.7739
19651TIP3   OH280367   2.027   0.065   4.987  0.1520 -0.4687  0.1545
19651TIP3    H180368   1.956   0.014   5.025 -0.0786 -0.5663 -0.3992
19651TIP3    H280369   2.012   0.061   4.892  1.2259 -0.9998 -0.0088
19652TIP3   OH280370   3.881   4.730  15.157 -0.5722  0.4213 -0.0943
19652TIP3    H180371   3.929   4.655  15.191 -1.8274 -0.3956 -0.0760
19652TIP3    H280372   3.883   4.794  15.229  0.9303  0.6455 -0.2950
19653TIP3   OH280373   2.999   4.817   2.276  0.2371  0.4388 -0.4395
19653TIP3    H180374   2.975   4.755   2.207  1.1644 -0.9368  0.4306
19653TIP3    H280375   2.986   4.768   2.357  3.3511  0.4884  0.1915
19654TIP3   OH280376   3.601   0.965   0.259  0.1862  0.0003 -0.4815
19654TIP3    H180377   3.555   0.944   0.178  0.6482 -2.3519 -0.2044
19654TIP3    H280378   3.532   0.972   0.325 -0.0789  0.6380 -0.8160
19655TIP3   OH280379   1.346   3.067   4.099 -0.0055  0.3659 -0.3280
19655TIP3    H180380   1.348   3.091   4.192 -1.5567  0.6385 -0.3367
19655TIP3    H280381   1.290   3.133   4.058 -0.2961 -0.4284 -1.2451
19656TIP3   OH280382   3.529   1.486  13.736  0.4131  0.5645  0.6169
19656TIP3    H180383   3.499   1.411  13.685  3.1278 -1.2358  1.4824
19656TIP3    H280384   3.512   1.561  13.679 -3.4144 -0.4342  0.1562
19657TIP3   OH280385   6.632   2.381   5.294 -0.1304 -0.5202  0.1149
19657TIP3    H180386   6.610   2.472   5.315  1.6952 -0.6662  3.4497
19657TIP3    H280387   6.554   2.331   5.317 -0.3808  0.0262  0.4654
19658TIP3   OH280388   3.021   6.579   2.714  0.2328  0.2769  0.1358
19658TIP3    H180389   2.940   6.568   2.665  0.7123  0.8694 -0.8228
19658TIP3    H280390   3.050   6.489   2.733  0.6386 -0.0279 -1.7181
19659TIP3   OH280391   2.083   4.621   0.055 -0.1070 -0.1116 -1.1974
19659TIP3    H180392   2.124   4.556   0.112  1.3413  0.5316 -1.4496
19659TIP3    H280393   1.989   4.602   0.060  0.1081 -0.9558  0.2700
19660TIP3   OH280394   4.726   2.433  12.615 -0.4584 -0.0018 -0.3849
19660TIP3    H180395   4.790   2.421  12.545  0.7792  0.8779  0.5445
19660TIP3    H280396   4.647   2.390  12.583  0.5966 -1.1558 -1.5640
19661TIP3   OH280397   0.729   0.473  16.811 -0.4464  0.0731 -0.1870
19661TIP3    H180398   0.776   0.518  16.740 -1.2369 -0.5831 -1.1562
19661TIP3    H280399   0.720   0.383  16.780 -0.4606 -0.3266  0.9388
19662TIP3   OH280400   1.902   0.106   4.416  0.1812  0.3712 -0.6585
19662TIP3    H180401   1.813   0.118   4.384 -0.7777 -0.6901  1.3936
19662TIP3    H280402   1.920   0.185   4.467  0.0089  0.1624 -0.2648
19663TIP3   OH280403   4.420   0.588   2.521  0.0369  0.0997 -0.1516
19663TIP3    H180404   4.509   0.554   2.513  2.2710  5.3232 -1.1249
19663TIP3    H280405   4.386   0.589   2.432 -0.2540  0.0065 -0.0465
19664TIP3   OH280406   1.885   3.487   4.024  0.0227  0.3296 -0.4313
19664TIP3    H180407   1.894   3.495   4.119 -2.2549  0.8043 -0.1770
19664TIP3    H280408   1.828   3.560   3.999  0.8568  0.4312 -2.2405
19665TIP3   OH280409   3.705   2.568  15.197 -0.4655  0.3109  0.3981
19665TIP3    H180410   3.676   2.603  15.113  0.2718  1.4640  0.6037
19665TIP3    H280411   3.735   2.479  15.177  3.2970  1.7891 -1.3991
19666TIP3   OH280412   1.812   4.896   2.354  0.1142  0.4695 -0.1070
19666TIP3    H180413   1.795   4.876   2.262  1.1028 -0.2833 -0.1349
19666TIP3    H280414   1.816   4.811   2.397 -2.3128  0.8471  1.0346
19667TIP3   OH280415   5.688   0.326  14.829 -0.2304 -0.2742  0.1650
19667TIP3    H180416   5.635   0.380  14.770 -0.1978 -0.8698 -0.4167
19667TIP3    H280417   5.655   0.237  14.817  0.8828 -0.6558 -0.1902
19668TIP3   OH280418   6.164   6.731   0.845  0.7138 -0.1322  0.7008
19668TIP3    H180419   6.170   6.783   0.764  1.0011  0.4573  1.0949
19668TIP3    H280420   6.132   6.646   0.816 -0.6082  0.5145  0.1258
19669TIP3   OH280421   6.687   6.585  11.546  0.1388  0.3239 -0.3212
19669TIP3    H180422   6.599   6.562  11.576  0.3257 -0.6177 -0.4542
19669TIP3    H280423   6.673   6.625  11.460 -0.0641 -1.4597 -1.1715
19670TIP3   OH280424   4.417   4.165  15.367  0.3917  0.3778 -0.6082
19670TIP3    H180425   4.365   4.209  15.434 -0.9746 -1.3282 -0.4788
19670TIP3    H280426   4.498   4.140  15.411  0.3104  0.9365 -0.1320
19671TIP3   OH280427   0.053   6.421   1.104 -0.4055  0.0450  0.1110
19671TIP3    H180428   0.141   6.412   1.069  0.2317 -0.5129  1.7971
19671TIP3    H280429   0.008   6.476   1.040  0.6717 -0.9741 -1.6033
19672TIP3   OH280430   2.859   5.672  14.251  1.0121  0.2067  0.3361
19672TIP3    H180431   2.931   5.726  14.216  1.0364  0.1566  0.3100
19672TIP3    H280432   2.791   5.736  14.274  0.7619  0.1923 -0.3533
19673TIP3   OH280433   1.308   1.671  16.199  0.4273 -0.1693  0.3541
19673TIP3    H180434   1.224   1.684  16.154  1.3796  0.2620 -1.3994
19673TIP3    H280435   1.346   1.594  16.157  1.6972  0.7101 -0.1965
19674TIP3   OH280436   1.398   5.360   6.362  0.0820 -0.1985  0.1368
19674TIP3    H180437   1.476   5.340   6.413 -0.6322 -1.5169  0.7558
19674TIP3    H280438   1.329   5.377   6.427 -0.5712 -0.8066 -0.3732
19675TIP3   OH280439   4.971   4.929  11.067  0.4309 -0.1930  0.1828
19675TIP3    H180440   4.904   4.946  11.001 -0.2402 -2.2200  0.2679
19675TIP3    H280441   4.975   5.010  11.118 -0.7739  0.5499 -0.8243
19676TIP3   OH280442   4.086   0.051  15.769 -0.6017 -0.2635 -0.3627
19676TIP3    H180443   4.048   0.055  15.857  0.8477  0.4904  0.2661
19676TIP3    H280444   4.179   0.067  15.783 -0.3374 -0.2284 -2.0362
19677TIP3   OH280445   1.293   5.127   4.561 -0.3364  0.5223 -0.2695
19677TIP3    H180446   1.357   5.190   4.529 -1.2522  1.5672 -0.1308
19677TIP3    H280447   1.257   5.087   4.482 -0.0715  0.5092 -0.3843
19678TIP3   OH280448   3.395   4.783  14.142 -0.2521  0.1923  0.8156
19678TIP3    H180449   3.422   4.874  14.155  1.5446 -0.3454  1.0463
19678TIP3    H280450   3.349   4.760  14.223 -1.5451  1.1450  0.3899
19679TIP3   OH280451   0.004   1.840   0.767  0.3574 -0.1886  0.2177
19679TIP3    H180452   0.064   1.906   0.801  0.4022 -0.8922  1.5703
19679TIP3    H280453   0.062   1.769   0.738  0.2864  0.1558 -0.8042
19680TIP3   OH280454   5.770   5.380  13.734 -0.3064  0.5228 -0.0851
19680TIP3    H180455   5.728   5.343  13.656  0.9258 -1.1950  0.0029
19680TIP3    H280456   5.840   5.318  13.756  0.1173  1.5459  1.7292
19681TIP3   OH280457   6.205   2.637  15.901  0.5241  0.0851  0.2584
19681TIP3    H180458   6.287   2.598  15.871  0.7608  0.0737  0.9079
19681TIP3    H280459   6.181   2.586  15.978 -1.1080 -1.1708 -1.0090
19682TIP3   OH280460   4.694   0.886  17.049 -0.0119  0.3420  0.2738
19682TIP3    H180461   4.619   0.937  17.017 -0.9350  0.0380  1.8293
19682TIP3    H280462   4.704   0.912  17.140 -0.0859 -1.7143  0.9288
19683TIP3   OH280463   2.780   0.144  11.239 -0.4183  0.3820 -0.4921
19683TIP3    H180464   2.812   0.231  11.213 -0.2976  0.3673 -0.3928
19683TIP3    H280465   2.839   0.083  11.196 -0.0479  0.3618  0.0313
19684TIP3   OH280466   4.774   2.385   0.319 -0.0285  0.0975 -0.0103
19684TIP3    H180467   4.856   2.363   0.364  1.2155  0.2423 -2.0462
19684TIP3    H280468   4.706   2.342   0.371  1.5004 -1.4849  0.8159
19685TIP3   OH280469   1.762   3.682  13.196 -0.2703  0.1436  0.3514
19685TIP3    H180470   1.791   3.760  13.148  0.7469 -0.0984  0.5559
19685TIP3    H280471   1.724   3.626  13.129  0.5674  0.0814 -0.0918
19686TIP3   OH280472   5.462   4.188   4.762  0.4556  0.1526 -0.3659
19686TIP3    H180473   5.372   4.196   4.793  0.2831 -0.4470 -0.7000
19686TIP3    H280474   5.508   4.144   4.834  0.4511  0.3199 -0.2592
19687TIP3   OH280475   1.673   2.568  15.295  0.1715 -0.4735  0.9450
19687TIP3    H180476   1.623   2.487  15.306 -1.1910  0.1317 -0.5600
19687TIP3    H280477   1.617   2.636  15.331 -1.0163  0.4739 -2.3634
19688TIP3   OH280478   1.007   0.935   5.184 -0.3447 -0.1752 -0.1400
19688TIP3    H180479   1.017   0.992   5.261 -2.5680 -0.9604  0.8164
19688TIP3    H280480   1.052   0.981   5.114  1.9199  0.5185  1.6189
19689TIP3   OH280481   0.613   2.378  14.906 -0.2285 -0.4387 -0.4909
19689TIP3    H180482   0.522   2.408  14.905  0.5096  2.0830  0.2397
19689TIP3    H280483   0.633   2.364  14.998  0.7616  1.4430 -0.3547
19690TIP3   OH280484   4.360   0.144  15.831 -0.4321  0.2136  0.1342
19690TIP3    H180485   4.401   0.142  15.745 -0.9392 -1.1359 -0.1094
19690TIP3    H280486   4.429   0.116  15.892 -0.1014  1.0760  0.1656
19691TIP3   OH280487   4.402   6.777  16.076 -0.0976 -0.3363  0.4035
19691TIP3    H180488   4.337   6.726  16.027  0.6383 -1.0476  0.1433
19691TIP3    H280489   4.359   6.796  16.160 -0.6451 -0.7902  0.2311
19692TIP3   OH280490   3.483   1.107   3.669 -0.0985 -0.0565  0.1460
19692TIP3    H180491   3.440   1.099   3.584  1.4529  0.5860 -0.7492
19692TIP3    H280492   3.477   1.200   3.690  2.7303  0.5220 -1.1217
19693TIP3   OH280493   3.032   4.427  14.845 -0.2675 -0.4107 -0.3388
19693TIP3    H180494   3.059   4.379  14.923 -2.0414 -0.2918  0.3814
19693TIP3    H280495   3.089   4.504  14.843  1.9014 -1.9313 -0.9276
19694TIP3   OH280496   2.831   6.352  12.839 -0.0502 -0.2757 -0.3903
19694TIP3    H180497   2.892   6.418  12.806  2.7201 -2.6421 -0.3217
19694TIP3    H280498   2.821   6.374  12.931  0.4747  0.3032 -0.4598
19695TIP3   OH280499   1.926   3.119  12.365 -0.7056 -0.2236  0.0528
19695TIP3    H180500   1.836   3.138  12.340 -0.4621 -0.3794 -1.0196
19695TIP3    H280501   1.960   3.064  12.294  0.5286  0.6596 -0.0873
19696TIP3   OH280502   2.165   5.589  17.060 -0.4694 -0.7779 -0.5923
19696TIP3    H180503   2.165   5.522  16.992 -0.5719 -0.1173 -1.2549
19696TIP3    H280504   2.226   5.656  17.028 -2.3174  0.6926 -1.2207
19697TIP3   OH280505   0.419   3.171   0.839 -0.0650  0.3945  0.2853
19697TIP3    H180506   0.471   3.107   0.791  1.0382  2.3183 -1.2341
19697TIP3    H280507   0.344   3.188   0.782 -0.1066  0.8105  0.4614
19698TIP3   OH280508   6.383   0.535   3.283  0.1101 -0.6291 -0.0921
19698TIP3    H180509   6.288   0.528   3.288  0.0233  0.7226  0.4408
19698TIP3    H280510   6.415   0.453   3.322 -0.8192 -1.7185 -1.5364
19699TIP3   OH280511   3.752   5.279   2.266  0.2261 -0.4067  0.6374
19699TIP3    H180512   3.715   5.218   2.330  1.2617  0.3163  1.9715
19699TIP3    H280513   3.725   5.244   2.181 -1.7888 -0.9933  1.4773
19700TIP3   OH280514   3.344   5.320   3.571  0.4285 -0.2953  0.1111
19700TIP3    H180515   3.350   5.394   3.510 -3.4467  0.2105  0.1178
19700TIP3    H280516   3.391   5.250   3.526  0.5305  0.9839 -1.9454
19701TIP3   OH280517   2.578   0.816  13.873 -1.2400  0.8683 -0.0474
19701TIP3    H180518   2.615   0.814  13.962 -0.6802  0.1121 -0.2853
19701TIP3    H280519   2.652   0.796  13.816 -1.8701  0.0135 -0.5861
19702TIP3   OH280520   3.032   6.596  14.117  0.5129 -0.6673 -0.3467
19702TIP3    H180521   3.030   6.501  14.119  0.8916 -0.7144 -1.6154
19702TIP3    H280522   2.946   6.622  14.152  0.0892 -1.4874 -0.7525
19703TIP3   OH280523   3.047   5.204   2.889  0.3382 -0.3954  0.1811
19703TIP3    H180524   3.013   5.219   2.801 -0.3567 -1.9396  0.1551
19703TIP3    H280525   3.123   5.146   2.876  0.7364  0.0434  0.5323
19704TIP3   OH280526   3.218   6.668   0.959  0.0147  0.2967 -0.3164
19704TIP3    H180527   3.193   6.592   1.010 -0.6327 -0.2311 -1.3846
19704TIP3    H280528   3.302   6.644   0.919 -0.4246 -0.0717 -1.0450
19705TIP3   OH280529   2.342   0.782  15.453 -0.0295  0.3209  0.0251
19705TIP3    H180530   2.327   0.767  15.546 -0.8759  0.9893  0.0125
19705TIP3    H280531   2.256   0.807  15.418  0.1020 -0.6818 -1.0968
19706TIP3   OH280532   1.699   5.693   0.896 -0.4041  0.3330  0.0344
19706TIP3    H180533   1.693   5.645   0.979  0.6916  2.3118  1.3252
19706TIP3    H280534   1.775   5.655   0.852  1.2628  1.6431  1.6372
19707TIP3   OH280535   3.033   4.384  10.837 -0.5061 -0.1322  0.0700
19707TIP3    H180536   3.002   4.325  10.768 -2.4112 -1.3597  1.8637
19707TIP3    H280537   2.959   4.440  10.857  0.4861  1.1937  0.1411
19708TIP3   OH280538   3.474   0.542   2.043  0.5022  0.0943  0.2157
19708TIP3    H180539   3.537   0.475   2.017 -1.4700 -1.2713 -1.3303
19708TIP3    H280540   3.441   0.514   2.128 -0.1786 -0.8260 -0.3426
19709TIP3   OH280541   5.970   4.554   5.466 -0.1832 -0.1136 -0.3958
19709TIP3    H180542   5.970   4.623   5.400  0.2280  0.7378  0.4701
19709TIP3    H280543   5.899   4.495   5.440  0.1903  0.0108 -1.7784
19710TIP3   OH280544   3.555   2.341   3.254 -0.1897 -0.2199 -0.1670
19710TIP3    H180545   3.477   2.301   3.216  0.0058 -0.6381 -0.1315
19710TIP3    H280546   3.528   2.430   3.276 -0.6770 -0.3841 -0.0907
19711TIP3   OH280547   3.551   6.646  14.245  0.0099  0.3634 -0.4829
19711TIP3    H180548   3.505   6.730  14.248 -0.8592 -0.1002 -0.1111
19711TIP3    H280549   3.481   6.582  14.228  0.1040 -0.6211  2.2512
19712TIP3   OH280550   6.321   2.878  14.102 -0.0576  0.5055  0.0929
19712TIP3    H180551   6.266   2.854  14.177  0.7771 -0.1026  0.5260
19712TIP3    H280552   6.268   2.939  14.051 -0.7805  0.6290  0.9844
19713TIP3   OH280553   3.440   0.042   6.078  0.5002 -0.2186  0.6725
19713TIP3    H180554   3.506   0.112   6.074  1.4435 -0.9005  2.9613
19713TIP3    H280555   3.386   0.064   6.153  0.3237 -1.5245  0.9459
19714TIP3   OH280556   5.553   3.726  15.588  0.3224  0.0777 -0.3231
19714TIP3    H180557   5.623   3.667  15.615  0.8047  0.5085 -0.6165
19714TIP3    H280558   5.526   3.694  15.502 -0.9114 -1.0232  0.4159
19715TIP3   OH280559   0.775   5.047   0.317 -0.2815  0.0492 -0.0503
19715TIP3    H180560   0.819   5.056   0.402 -0.0685 -0.3229 -0.1176
19715TIP3    H280561   0.708   5.115   0.317  1.1450  1.5484 -0.4893
19716TIP3   OH280562   0.642   3.031  15.708  0.5322 -0.1983  0.3141
19716TIP3    H180563   0.612   3.022  15.798 -0.2314 -1.3986 -0.0294
19716TIP3    H280564   0.662   2.942  15.681  1.5612  0.2435 -0.4503
19717TIP3   OH280565   5.549   0.564  13.409 -0.0211 -0.0188  0.2669
19717TIP3    H180566   5.487   0.620  13.456 -1.0305 -2.2018  1.6914
19717TIP3    H280567   5.626   0.561  13.465  0.3949  0.6160 -0.2497
19718TIP3   OH280568   3.281   1.877   5.742  0.3916  0.4496 -0.1957
19718TIP3    H180569   3.186   1.887   5.747  0.4425  0.7255  0.2754
19718TIP3    H280570   3.297   1.853   5.651 -0.3416 -2.0313  0.2514
19719TIP3   OH280571   1.695   1.478  14.328  0.1416  0.3940 -0.3520
19719TIP3    H180572   1.618   1.444  14.282  0.0370 -0.6576  0.5485
19719TIP3    H280573   1.747   1.400  14.346  1.1222  1.0270 -0.3884
19720TIP3   OH280574   2.807   0.247   5.368  0.2228  0.5903  0.8523
19720TIP3    H180575   2.753   0.324   5.357  0.8827  0.9870  0.3327
19720TIP3    H280576   2.867   0.247   5.293  0.9479  0.1721  1.4040
19721TIP3   OH280577   6.525   2.374  15.440  0.5737  0.0070 -0.2263
19721TIP3    H180578   6.598   2.313  15.453 -0.2075 -0.7493  0.7057
19721TIP3    H280579   6.489   2.352  15.354 -1.1296 -2.4366  1.0158
19722TIP3   OH280580   3.118   2.780   5.133 -0.4833  0.1112 -0.7322
19722TIP3    H180581   3.149   2.844   5.198 -0.1394 -0.3912 -0.3897
19722TIP3    H280582   3.027   2.763   5.158 -1.0869  1.6106 -1.7522
19723TIP3   OH280583   2.412   3.296   3.431 -0.2514 -0.4949  0.5887
19723TIP3    H180584   2.490   3.246   3.453  0.5013  0.0415 -0.8026
19723TIP3    H280585   2.378   3.325   3.516  1.6554  0.1471  1.1936
19724TIP3   OH280586   6.167   2.498   4.448  0.1553  0.4534  0.5581
19724TIP3    H180587   6.101   2.471   4.512  2.0202  0.2084  2.4840
19724TIP3    H280588   6.178   2.592   4.465  0.9492  0.3019  0.9080
19725TIP3   OH280589   5.497   5.453  11.280 -0.4344 -0.1679  0.1139
19725TIP3    H180590   5.470   5.518  11.216 -0.4511 -1.3953 -1.1902
19725TIP3    H280591   5.489   5.369  11.234  0.3958 -1.0271  1.4409
19726TIP3   OH280592   4.742   3.151   5.792  0.2686  0.5436 -0.1306
19726TIP3    H180593   4.818   3.199   5.759  0.1827  0.0308 -1.1193
19726TIP3    H280594   4.693   3.215   5.843  0.6583  1.2546 -0.6294
19727TIP3   OH280595   4.220   2.879   4.329 -0.2735 -0.1578 -0.2220
19727TIP3    H180596   4.230   2.970   4.355 -1.2964 -0.1669  0.2499
19727TIP3    H280597   4.205   2.832   4.411 -0.6938 -0.6106 -0.5548
19728TIP3   OH280598   2.382   0.175  11.320  0.3332 -0.2694  0.3659
19728TIP3    H180599   2.431   0.111  11.371  0.9901 -0.4409 -0.4676
19728TIP3    H280600   2.323   0.216  11.383  1.3097 -0.2875  1.3153
19729TIP3   OH280601   1.705   5.653   0.531  0.0575  0.3465 -0.1158
19729TIP3    H180602   1.699   5.559   0.511  0.1307 -0.1662  1.9569
19729TIP3    H280603   1.616   5.685   0.521  0.0216  0.0626 -0.8052
19730TIP3   OH280604   3.533   1.953   1.734  0.0139  0.2396  0.1684
19730TIP3    H180605   3.441   1.963   1.710 -0.3087  1.4640  1.7420
19730TIP3    H280606   3.581   1.988   1.659 -0.8842  1.9736  0.3473
19731TIP3   OH280607   6.531   3.687   2.184  0.3771  0.1033  0.1429
19731TIP3    H180608   6.441   3.670   2.156  0.2438 -0.8729  1.0623
19731TIP3    H280609   6.548   3.778   2.160 -2.3598  1.8010  3.7217
19732TIP3   OH280610   1.410   6.604   5.689 -0.4976  0.3723  0.3034
19732TIP3    H180611   1.385   6.577   5.777 -0.0062 -4.4324 -0.7273
19732TIP3    H280612   1.329   6.637   5.650 -1.9760 -1.8972  1.2254
19733TIP3   OH280613   1.691   4.792  14.475 -0.0141  0.2049 -0.2326
19733TIP3    H180614   1.751   4.855  14.435  0.3143 -0.1806 -0.3586
19733TIP3    H280615   1.604   4.820  14.445  0.0881  0.8313  0.0424
19734TIP3   OH280616   5.040   1.809   3.323  1.1413 -0.0958 -0.0082
19734TIP3    H180617   5.049   1.799   3.228  0.4696  1.1658 -0.2294
19734TIP3    H280618   4.998   1.729   3.352  0.5991 -0.1500 -0.9054
19735TIP3   OH280619   4.930   2.333   3.611  0.0099  0.1476  0.0336
19735TIP3    H180620   5.013   2.354   3.570  0.7434 -0.9520  0.8868
19735TIP3    H280621   4.881   2.415   3.611  1.3017  0.9410 -0.0098
19736TIP3   OH280622   0.686   2.634  16.977 -0.0507 -0.0973 -0.3981
19736TIP3    H180623   0.761   2.590  16.938  0.4967 -0.2632  0.7893
19736TIP3    H280624   0.710   2.727  16.978 -0.2618 -0.0323 -0.8510
19737TIP3   OH280625   6.505   4.672   3.645 -0.6966 -0.4617  0.2888
19737TIP3    H180626   6.457   4.621   3.710 -0.9354  0.1039  0.5681
19737TIP3    H280627   6.587   4.695   3.689 -1.2225  0.6528  0.7219
19738TIP3   OH280628   3.144   2.058  12.075  0.1330 -0.2226  0.5351
19738TIP3    H180629   3.056   2.021  12.064  0.5979 -1.0561 -0.5857
19738TIP3    H280630   3.129   2.144  12.115 -1.0747 -0.9995  1.8135
19739TIP3   OH280631   1.918   2.493   5.489  0.3275  0.1451 -0.1250
19739TIP3    H180632   1.864   2.517   5.564  1.5056  0.5933  0.5998
19739TIP3    H280633   1.856   2.454   5.427 -0.2187 -3.3874  2.3636
19740TIP3   OH280634   1.987   1.007  13.013 -0.1542 -0.0692  0.0879
19740TIP3    H180635   1.969   1.092  12.973  0.2515  0.0128  0.0717
19740TIP3    H280636   1.917   0.994  13.077 -1.0122 -0.3466 -0.8743
19741TIP3   OH280637   3.893   0.646  13.749  0.1116 -0.2300  0.1093
19741TIP3    H180638   3.985   0.675  13.749  0.1185 -0.1728 -1.2927
19741TIP3    H280639   3.847   0.713  13.800  0.5331  0.9089 -0.9350
19742TIP3   OH280640   3.917   1.512  14.514  0.1080  0.7559  0.6455
19742TIP3    H180641   3.853   1.531  14.445  0.6707  0.0682 -0.0890
19742TIP3    H280642   3.941   1.598  14.549 -1.3197  1.0285  1.0578
19743TIP3   OH280643   6.558   0.494   2.329 -0.2181 -0.4376 -0.2336
19743TIP3    H180644   6.612   0.415   2.317 -0.4577 -0.5824 -0.3644
19743TIP3    H280645   6.485   0.482   2.268  0.7198  0.7573 -1.6631
19744TIP3   OH280646   5.432   0.492   1.602  0.6534  1.0461  0.1643
19744TIP3    H180647   5.399   0.460   1.517  1.8637 -0.5346  0.2184
19744TIP3    H280648   5.475   0.575   1.581  0.9676  0.6582 -0.7955
19745TIP3   OH280649   5.751   5.246  15.215  0.0130 -0.1515  0.6953
19745TIP3    H180650   5.732   5.202  15.298 -0.9924 -0.4602  0.3190
19745TIP3    H280651   5.760   5.338  15.238  1.9004 -0.4894  1.4601
19746TIP3   OH280652   0.216   3.965   4.429  1.0985 -0.1383 -0.2454
19746TIP3    H180653   0.294   4.012   4.401  0.2809  0.3681 -1.7226
19746TIP3    H280654   0.161   4.031   4.471 -0.9835  0.8701 -4.1417
19747TIP3   OH280655   4.903   0.329   4.392  0.3165 -0.4880 -0.3548
19747TIP3    H180656   4.965   0.373   4.450 -2.0944  0.9323  1.3039
19747TIP3    H280657   4.911   0.236   4.415  0.4533 -0.1105  1.2315
19748TIP3   OH280658   0.987   5.860   5.135  0.4345  0.3604 -0.0067
19748TIP3    H180659   0.917   5.802   5.104  0.9910 -0.7042  0.6764
19748TIP3    H280660   0.942   5.927   5.186  0.0143 -1.2451  1.8234
19749TIP3   OH280661   0.291   0.412  12.749 -0.4403 -0.2959 -0.1917
19749TIP3    H180662   0.296   0.506  12.770 -0.7569 -0.6132  1.4593
19749TIP3    H280663   0.198   0.394  12.739 -0.4185 -0.5238 -0.0020
19750TIP3   OH280664   4.863   3.937  13.320 -0.3561  0.2023 -0.2096
19750TIP3    H180665   4.911   3.946  13.238  0.2571 -0.6446  0.0397
19750TIP3    H280666   4.793   3.875  13.301  0.3010 -0.6561  0.1096
19751TIP3   OH280667   3.723   5.778  14.483  0.3378  0.3811 -0.0689
19751TIP3    H180668   3.701   5.770  14.575 -0.6677  1.6260 -0.1611
19751TIP3    H280669   3.703   5.869  14.461 -0.6392 -0.1899 -1.8033
19752TIP3   OH280670   3.066   2.466   3.868  0.3932  0.2539 -0.0192
19752TIP3    H180671   3.088   2.407   3.940 -1.6730  1.2249  1.5047
19752TIP3    H280672   3.100   2.422   3.790  0.7571 -1.9134  1.2819
19753TIP3   OH280673   2.779   1.188   0.882  0.5684 -0.7429 -0.2348
19753TIP3    H180674   2.734   1.107   0.856 -0.9646 -0.1748  0.5349
19753TIP3    H280675   2.809   1.170   0.971 -1.7499  0.2280  0.8388
19754TIP3   OH280676   0.167   6.011   0.992 -0.7138  0.3513  0.2913
19754TIP3    H180677   0.254   5.999   0.954 -0.4565 -1.1583  1.2814
19754TIP3    H280678   0.183   6.065   1.070 -0.7038  0.2867  0.3339
19755TIP3   OH280679   0.688   4.410   4.884  0.7773 -0.3428  0.3465
19755TIP3    H180680   0.675   4.316   4.892  0.6815 -0.1906  2.6448
19755TIP3    H280681   0.668   4.430   4.793 -0.1912 -2.3814  0.0755
19756TIP3   OH280682   4.961   1.463  16.162 -0.1417  0.1235 -0.3155
19756TIP3    H180683   5.024   1.421  16.104 -0.0885 -0.1014 -0.0947
19756TIP3    H280684   4.903   1.512  16.104 -0.0694 -0.0771 -0.5550
19757TIP3   OH280685   3.561   6.498   5.212 -0.1066 -0.0913 -0.0859
19757TIP3    H180686   3.516   6.544   5.141  0.0495  0.6938  0.3161
19757TIP3    H280687   3.518   6.412   5.216 -0.6028  0.1213 -0.6402
19758TIP3   OH280688   5.832   5.156  11.504 -0.2598 -0.2937 -0.2029
19758TIP3    H180689   5.889   5.180  11.577 -1.5290  0.8849  0.4523
19758TIP3    H280690   5.819   5.062  11.514  0.8150 -0.4155  0.1688
19759TIP3   OH280691   3.453   0.375  13.519 -0.2058  0.0968 -0.2485
19759TIP3    H180692   3.460   0.320  13.596 -0.0846  0.9296  0.3531
19759TIP3    H280693   3.448   0.314  13.445  0.5585 -0.7033  0.3442
19760TIP3   OH280694   3.257   0.445   1.560  0.0978  0.4100  0.0769
19760TIP3    H180695   3.230   0.451   1.651  1.5335  2.1257  0.4429
19760TIP3    H280696   3.213   0.517   1.516  0.2618  0.2471 -0.3633
19761TIP3   OH280697   5.089   3.529  15.245 -0.0164 -0.2808 -0.5437
19761TIP3    H180698   5.126   3.462  15.301 -0.7479  0.1504  0.4777
19761TIP3    H280699   5.160   3.551  15.184  1.4413  0.5515  1.3757
19762TIP3   OH280700   2.092   5.275  12.737 -0.5867  0.1193 -0.6879
19762TIP3    H180701   2.082   5.188  12.698  0.3507  0.0668 -0.8374
19762TIP3    H280702   2.103   5.258  12.830 -0.9002  0.1154 -0.6498
19763TIP3   OH280703   4.304   0.797   4.579 -0.2064 -0.2513 -0.1759
19763TIP3    H180704   4.240   0.868   4.571  0.9868  1.1119  1.6498
19763TIP3    H280705   4.366   0.813   4.508 -0.3531  0.0781 -0.2311
19764TIP3   OH280706   2.612   1.185  15.238 -0.5116  0.3102  0.5933
19764TIP3    H180707   2.653   1.146  15.161 -0.2369  0.6160  0.5827
19764TIP3    H280708   2.565   1.112  15.279 -0.5407  0.1129  0.2198
19765TIP3   OH280709   2.923   2.737  11.935 -0.4527 -0.6073 -0.1885
19765TIP3    H180710   2.980   2.660  11.939 -1.2803 -1.2353 -0.1741
19765TIP3    H280711   2.850   2.716  11.993 -0.2569  0.5719  0.5228
19766TIP3   OH280712   2.387   4.797   5.107  0.2398 -0.1889 -0.1435
19766TIP3    H180713   2.466   4.756   5.142 -0.8389 -1.6464  0.6858
19766TIP3    H280714   2.322   4.786   5.176  0.2005  4.3193  0.8330
19767TIP3   OH280715   1.408   6.525  12.438 -0.1639  0.2635 -0.3639
19767TIP3    H180716   1.387   6.570  12.355 -0.2955  0.9421  0.0277
19767TIP3    H280717   1.461   6.450  12.411  1.9332  1.8318 -0.9240
19768TIP3   OH280718   2.303   3.203   4.434 -0.5063 -0.5401  0.0822
19768TIP3    H180719   2.226   3.204   4.492 -0.8513 -1.7420 -0.3348
19768TIP3    H280720   2.282   3.267   4.365 -1.8334 -1.9642 -0.8857
19769TIP3   OH280721   2.427   0.769  16.078  0.1208  0.2324  0.0975
19769TIP3    H180722   2.372   0.766  16.156 -1.6976  0.6073 -1.1276
19769TIP3    H280723   2.438   0.677  16.053 -1.1848  0.2285 -0.4838
19770TIP3   OH280724   2.944   3.944  14.506  0.4340  0.2555  0.7632
19770TIP3    H180725   2.985   3.950  14.592 -0.6724  2.8025  1.2139
19770TIP3    H280726   2.854   3.917  14.525  0.3624  0.2052  0.3512
19771TIP3   OH280727   2.448   3.684  15.123 -0.8236  0.1283  0.1018
19771TIP3    H180728   2.447   3.770  15.083  0.1865 -0.4343 -1.2325
19771TIP3    H280729   2.376   3.636  15.082  0.3532 -0.5216 -1.2852
19772TIP3   OH280730   5.704   5.188   3.398 -0.8452  0.4923  0.5113
19772TIP3    H180731   5.689   5.276   3.433  0.5023  0.8152  0.3438
19772TIP3    H280732   5.751   5.142   3.469 -0.9884  0.1136  0.3612
19773TIP3   OH280733   4.458   6.196  15.865  0.6192 -0.3893  0.4937
19773TIP3    H180734   4.436   6.184  15.773  1.9194 -0.0010  0.1058
19773TIP3    H280735   4.411   6.276  15.891 -0.5067 -1.0147  0.4549
19774TIP3   OH280736   4.694   3.111  16.239 -0.4250  0.1827  0.4805
19774TIP3    H180737   4.640   3.046  16.283 -1.3538  2.3851  2.8182
19774TIP3    H280738   4.670   3.103  16.146 -1.1274 -2.1407  0.7944
19775TIP3   OH280739   5.811   0.819  16.880  0.2379  0.0563  0.0044
19775TIP3    H180740   5.820   0.786  16.969  0.8354 -1.8767 -0.7295
19775TIP3    H280741   5.876   0.889  16.873  1.7346 -1.2309  0.4607
19776TIP3   OH280742   2.553   4.902  16.142  0.0605 -0.2111 -0.5798
19776TIP3    H180743   2.489   4.945  16.199  0.9863 -0.3793  0.6532
19776TIP3    H280744   2.562   4.814  16.179  2.5159  0.4602  0.6212
19777TIP3   OH280745   5.891   2.200   2.130 -0.6341 -0.1997 -0.2218
19777TIP3    H180746   5.968   2.240   2.090  0.6257 -0.9158  1.3652
19777TIP3    H280747   5.863   2.263   2.197 -1.9480  0.4176 -1.3060
19778TIP3   OH280748   0.103   5.664   2.871 -0.2210  0.7924  0.2066
19778TIP3    H180749   0.072   5.745   2.830 -0.2036  0.8110  0.2306
19778TIP3    H280750   0.023   5.621   2.902 -0.1657  1.1987  0.9377
19779TIP3   OH280751   1.400   1.172   0.911  0.4043  0.3396  0.2557
19779TIP3    H180752   1.470   1.178   0.976 -0.9403 -2.8062  2.2474
19779TIP3    H280753   1.425   1.098   0.855 -1.3535 -1.1345  1.2741
19780TIP3   OH280754   4.880   2.307   4.102  0.1768 -0.1474 -0.0283
19780TIP3    H180755   4.932   2.383   4.128  2.0489 -1.3927  0.0597
19780TIP3    H280756   4.907   2.288   4.012 -0.7942 -0.3117 -0.3028
19781TIP3   OH280757   2.689   3.867   2.212  0.3685  0.3438 -0.4208
19781TIP3    H180758   2.767   3.838   2.163 -0.9841 -0.5241 -2.1788
19781TIP3    H280759   2.615   3.830   2.164 -1.1365  0.4841  1.6385
19782TIP3   OH280760   0.527   4.535   1.377 -0.4249  0.1544 -0.3541
19782TIP3    H180761   0.487   4.463   1.328 -2.1714  1.1325 -0.4436
19782TIP3    H280762   0.483   4.533   1.462 -2.3636  2.5781 -1.1845
19783TIP3   OH280763   0.713   4.519  11.402 -0.2781  0.0296  0.0130
19783TIP3    H180764   0.774   4.471  11.457 -1.7716 -1.7165  0.2321
19783TIP3    H280765   0.753   4.606  11.392  2.4420 -1.1505 -0.2593
19784TIP3   OH280766   3.314   5.593  13.722 -0.1907  0.1034 -0.3667
19784TIP3    H180767   3.302   5.512  13.772  2.6604 -0.9089 -1.0981
19784TIP3    H280768   3.392   5.634  13.760  0.4309  0.7026 -2.1618
19785TIP3   OH280769   4.163   3.674   5.231  0.0815  0.0487 -0.4125
19785TIP3    H180770   4.135   3.749   5.282  1.6989  1.0589 -0.9432
19785TIP3    H280771   4.083   3.640   5.192 -0.7571  1.0915  0.3623
19786TIP3   OH280772   6.115   5.990  14.157 -0.6006 -0.3957 -0.2545
19786TIP3    H180773   6.174   5.947  14.094  0.9463  1.8972 -0.4832
19786TIP3    H280774   6.173   6.043  14.211 -2.4016  1.3419  0.0571
19787TIP3   OH280775   5.946   4.585  12.290 -0.5130  0.0041  0.0955
19787TIP3    H180776   6.040   4.590  12.270 -0.2687  3.9036  1.2998
19787TIP3    H280777   5.925   4.492  12.282  3.0983 -0.8747 -1.6187
19788TIP3   OH280778   1.149   6.470  11.753 -0.0036 -0.7404 -0.1635
19788TIP3    H180779   1.195   6.519  11.685 -0.4996 -1.7920 -1.2929
19788TIP3    H280780   1.094   6.408  11.705 -2.3303  0.1940  1.1123
19789TIP3   OH280781   1.528   5.920  10.589 -0.1312 -0.0558  0.1205
19789TIP3    H180782   1.484   5.992  10.634 -0.3219 -0.4381  0.5500
19789TIP3    H280783   1.512   5.843  10.644 -0.1932 -0.4910 -0.4880
19790TIP3   OH280784   5.111   3.219  16.975 -0.2251  0.1643 -0.1480
19790TIP3    H180785   5.103   3.306  16.936 -2.8795  0.6302  1.2144
19790TIP3    H280786   5.040   3.168  16.935  1.0170 -1.2865 -0.5950
19791TIP3   OH280787   1.618   4.123  15.488  0.4202 -0.0065 -0.3186
19791TIP3    H180788   1.638   4.211  15.519  0.9367 -0.0886 -0.4137
19791TIP3    H280789   1.526   4.111  15.509  0.1741  0.7959 -0.8703
19792TIP3   OH280790   5.228   2.880  16.847 -0.3014  0.4942  0.1552
19792TIP3    H180791   5.233   2.795  16.890 -0.0006  0.2785 -0.3033
19792TIP3    H280792   5.152   2.874  16.790 -0.3612  0.5800  0.2246
19793TIP3   OH280793   3.693   3.733   2.888  0.9325  0.1517  0.3269
19793TIP3    H180794   3.621   3.736   2.825  0.5143 -1.9677  0.6073
19793TIP3    H280795   3.668   3.796   2.956  0.0811  0.5142 -0.3042
19794TIP3   OH280796   1.945   0.428  14.578  0.0243  0.4365  0.1863
19794TIP3    H180797   1.970   0.342  14.543 -0.6454 -0.2019  1.2116
19794TIP3    H280798   1.955   0.488  14.504  0.4019 -0.5391 -0.5818
19795TIP3   OH280799   4.682   6.606   6.220  0.4764  0.5121 -0.6000
19795TIP3    H180800   4.756   6.644   6.268  0.0083  1.2430 -0.4433
19795TIP3    H280801   4.721   6.566   6.142  1.3674 -1.4348  0.7613
19796TIP3   OH280802   4.945   0.656  15.147 -0.4340  0.3173  0.0136
19796TIP3    H180803   4.899   0.636  15.228 -0.2969 -0.6551 -0.1451
19796TIP3    H280804   5.034   0.680  15.175 -0.4358  0.1522  0.1606
19797TIP3   OH280805   3.192   5.617  11.613 -0.4719 -0.0185 -0.0782
19797TIP3    H180806   3.157   5.633  11.701  0.3806 -2.3565  0.7824
19797TIP3    H280807   3.209   5.523  11.611 -0.2288  0.0035 -2.6915
19798TIP3   OH280808   4.012   0.463  10.469  0.1534  0.2122 -0.0458
19798TIP3    H180809   3.992   0.411  10.391  0.5321  1.7144 -1.1994
19798TIP3    H280810   4.069   0.533  10.437 -3.2758  3.6483  0.5946
19799TIP3   OH280811   4.467   1.004  14.029 -0.4476 -0.0399  0.0088
19799TIP3    H180812   4.437   1.093  14.051 -0.9522  0.0610 -1.0487
19799TIP3    H280813   4.562   1.014  14.020 -0.2051 -0.0719  1.9778
19800TIP3   OH280814   3.933   5.358  10.789 -0.3804 -0.0492 -0.6596
19800TIP3    H180815   3.996   5.360  10.862 -1.5090 -0.5090  0.3621
19800TIP3    H280816   3.967   5.291  10.730 -0.5000 -1.1350  0.4590
19801TIP3   OH280817   0.767   0.936   4.235 -0.5115  0.6083 -1.0429
19801TIP3    H180818   0.749   0.958   4.326  0.1554 -0.7303 -0.5661
19801TIP3    H280819   0.863   0.935   4.229 -0.5265 -0.9374 -1.3265
19802TIP3   OH280820   3.674   2.184   5.262  0.0817 -0.1161  0.3534
19802TIP3    H180821   3.741   2.134   5.216 -0.6473 -1.3878  0.6214
19802TIP3    H280822   3.709   2.196   5.350  0.2662 -0.1512  0.2847
19803TIP3   OH280823   4.936   3.077   1.008  0.0767  0.1027 -0.2390
19803TIP3    H180824   5.004   3.113   1.064  1.2847 -0.6750 -1.1367
19803TIP3    H280825   4.857   3.125   1.031  0.4013 -0.4839  2.4304
19804TIP3   OH280826   0.072   4.763   6.699  0.1158 -0.2875  0.0508
19804TIP3    H180827   0.002   4.807   6.651  0.0091  0.5866  0.9682
19804TIP3    H280828   0.150   4.817   6.683 -0.1515  0.6850  1.7113
19805TIP3   OH280829   4.229   2.486   2.662  0.1148 -0.1047 -0.3570
19805TIP3    H180830   4.270   2.522   2.741  1.5517 -1.7319 -0.2743
19805TIP3    H280831   4.135   2.493   2.678  0.3745  1.0286  0.8103
19806TIP3   OH280832   0.336   6.722   1.739 -0.1038 -0.0496 -0.1652
19806TIP3    H180833   0.286   6.658   1.790 -0.0562 -0.5574 -0.7362
19806TIP3    H280834   0.270   6.773   1.692 -0.1967  1.1383  1.2175
19807TIP3   OH280835   0.921   6.576   0.804 -0.3662 -0.1499 -0.2470
19807TIP3    H180836   0.957   6.658   0.838  1.0771 -0.3696 -1.1397
19807TIP3    H280837   0.977   6.508   0.842  0.5094 -0.4771 -2.0177
19808TIP3   OH280838   4.718   0.075  15.817 -0.2045 -0.4713 -0.7636
19808TIP3    H180839   4.667   0.053  15.740  0.2208  0.7230 -1.4170
19808TIP3    H280840   4.809   0.058  15.793 -0.1073 -0.5592 -0.3532
19809TIP3   OH280841   6.395   2.997  13.268  0.2168  0.2493 -0.5894
19809TIP3    H180842   6.336   3.027  13.199 -1.2792  0.5368  0.7706
19809TIP3    H280843   6.381   2.903  13.273 -1.8814  0.5858  1.2287
19810TIP3   OH280844   2.682   3.870  13.421 -1.2323 -0.0448  0.1374
19810TIP3    H180845   2.613   3.829  13.369  0.2592 -2.2504 -0.2449
19810TIP3    H280846   2.686   3.818  13.501  0.3695 -0.4039 -0.1322
19811TIP3   OH280847   6.670   3.912   2.822 -0.7473  0.0378  0.0733
19811TIP3    H180848   6.663   3.998   2.863 -1.5577 -1.4912  3.4874
19811TIP3    H280849   6.599   3.862   2.859  0.0392 -2.3137 -1.3804
19812TIP3   OH280850   0.843   5.283   4.722  0.0084  0.3501  0.0890
19812TIP3    H180851   0.890   5.264   4.640 -0.1770  2.2828 -0.4943
19812TIP3    H280852   0.753   5.257   4.704  0.2129 -0.4329  0.1417
19813TIP3   OH280853   2.384   6.748   2.882  0.6348  0.4310  0.0409
19813TIP3    H180854   2.444   6.676   2.903  1.5537  0.5393 -1.9540
19813TIP3    H280855   2.298   6.717   2.909  0.9909 -1.4907 -0.8768
19814TIP3   OH280856   5.522   6.396  14.500  0.5336  0.2164  0.3737
19814TIP3    H180857   5.507   6.487  14.474  0.3810  0.2047  0.4225
19814TIP3    H280858   5.476   6.386  14.584 -1.4653 -0.5522 -0.7385
19815TIP3   OH280859   3.417   5.927   4.487  0.7989  0.2679  0.5825
19815TIP3    H180860   3.484   5.881   4.436  1.0854  0.4394  0.8061
19815TIP3    H280861   3.449   6.017   4.494  0.4340  0.4075  0.4968
19816TIP3   OH280862   4.148   3.700  16.623  0.3654  0.3630  0.0230
19816TIP3    H180863   4.081   3.769  16.617  0.4757  0.3755 -1.2766
19816TIP3    H280864   4.108   3.625  16.578  1.4375  0.5536 -1.2932
19817TIP3   OH280865   1.484   0.646   3.644 -0.1748  0.1295  0.6443
19817TIP3    H180866   1.534   0.689   3.712  0.0412  0.9592 -0.0218
19817TIP3    H280867   1.549   0.617   3.580 -0.0060 -3.5291  2.2310
19818TIP3   OH280868   3.417   5.354  13.874 -0.0905  0.1495  0.5592
19818TIP3    H180869   3.422   5.332  13.781  0.4761  2.7000 -0.0866
19818TIP3    H280870   3.468   5.286  13.918  0.7637 -0.3599 -1.1443
19819TIP3   OH280871   1.769   4.758   1.722 -0.3867 -0.2025 -0.1206
19819TIP3    H180872   1.800   4.832   1.774  0.0550  0.8986 -1.8340
19819TIP3    H280873   1.849   4.710   1.698 -0.7723 -2.1458  2.1611
19820TIP3   OH280874   5.145   6.787  15.165 -0.2928  0.4173 -0.1448
19820TIP3    H180875   5.205   6.814  15.096 -0.5372  0.0116 -0.5185
19820TIP3    H280876   5.151   6.857  15.230  0.0010  0.7621 -0.5356
19821TIP3   OH280877   3.529   6.257  15.723 -0.4118 -0.1703  0.3029
19821TIP3    H180878   3.477   6.191  15.677 -0.1392  0.1119 -0.4398
19821TIP3    H280879   3.475   6.284  15.797  0.2090 -2.5304  1.7325
19822TIP3   OH280880   4.628   3.846   1.861 -0.1317 -0.3676  0.3323
19822TIP3    H180881   4.613   3.891   1.944 -1.3360 -0.4383  0.1779
19822TIP3    H280882   4.709   3.798   1.873 -0.9501 -1.4350  1.9473
19823TIP3   OH280883   1.090   2.425   5.398  0.0829  0.1410  0.0662
19823TIP3    H180884   1.022   2.491   5.401 -0.1491 -0.1470  1.5727
19823TIP3    H280885   1.116   2.411   5.489  1.3418 -0.5924 -0.3695
19824TIP3   OH280886   0.024   1.864   4.256 -0.1539 -0.3781  0.1662
19824TIP3    H180887  -0.004   1.923   4.186  1.3506 -0.2976 -0.3903
19824TIP3    H280888   0.005   1.777   4.222  0.1745 -0.3207 -0.1759
19825TIP3   OH280889   3.899   2.250  11.736 -0.0544 -0.6255  0.5151
19825TIP3    H180890   3.822   2.298  11.768  0.2696  0.4612 -0.2736
19825TIP3    H280891   3.917   2.185  11.804 -1.8020 -1.0544  0.6102
19826TIP3   OH280892   0.340   4.743   6.229  0.1885 -0.7346  0.0574
19826TIP3    H180893   0.259   4.783   6.198 -0.2170 -0.8990  0.8803
19826TIP3    H280894   0.345   4.659   6.183 -1.8909 -2.3140  2.4199
19827TIP3   OH280895   6.727   6.007  14.255 -0.5180 -0.3192  0.1895
19827TIP3    H180896   6.734   5.970  14.167 -0.8955 -0.2532  0.1299
19827TIP3    H280897   6.665   6.079  14.246 -0.0834  0.0799  0.3860
19828TIP3   OH280898   6.494   4.948   2.492 -0.0722 -0.0511  0.0482
19828TIP3    H180899   6.405   4.979   2.472  0.2430  3.0818  2.6726
19828TIP3    H280900   6.481   4.861   2.529 -2.0620  0.2499  0.1963
19829TIP3   OH280901   5.715   0.176   5.859 -0.6646 -0.0638  0.0001
19829TIP3    H180902   5.718   0.256   5.912  0.7401  0.1687 -0.4046
19829TIP3    H280903   5.625   0.145   5.868 -0.6719  0.3956  1.8984
19830TIP3   OH280904   2.874   5.149  10.334  0.0547 -0.2706 -0.7317
19830TIP3    H180905   2.787   5.128  10.367  0.3853 -0.5063  0.0206
19830TIP3    H280906   2.924   5.068  10.347  0.4921 -0.0094 -0.7785
19831TIP3   OH280907   6.542   3.107   2.888 -0.0734  0.5999  0.6678
19831TIP3    H180908   6.582   3.170   2.828  2.9361 -0.4404  1.4330
19831TIP3    H280909   6.505   3.160   2.958 -0.9550  1.6579 -0.5465
19832TIP3   OH280910   0.510   4.281  14.720  0.4457 -0.4468  0.1122
19832TIP3    H180911   0.606   4.271  14.721  0.7554  1.9826  0.1273
19832TIP3    H280912   0.496   4.375  14.714 -1.9765 -0.7708 -0.2243
19833TIP3   OH280913   0.379   1.516   1.087  0.4867 -0.3781  0.2040
19833TIP3    H180914   0.432   1.440   1.062  0.4297 -0.2871 -0.1924
19833TIP3    H280915   0.313   1.480   1.146  0.7118 -0.5679  0.3451
19834TIP3   OH280916   1.049   5.188   2.453  0.2017  0.1931 -0.3400
19834TIP3    H180917   0.989   5.262   2.449 -1.5685 -1.1880 -0.2427
19834TIP3    H280918   1.118   5.211   2.390  1.1456  3.0478  1.4995
19835TIP3   OH280919   4.174   0.104   1.071 -0.3298  0.2349 -0.0066
19835TIP3    H180920   4.229   0.176   1.039  0.6709 -1.8737 -3.5058
19835TIP3    H280921   4.237   0.039   1.102 -0.9879 -0.7623 -0.7154
19836TIP3   OH280922   4.849   4.013   4.563  0.0575  0.5830 -0.5657
19836TIP3    H180923   4.787   4.015   4.636  1.2416 -0.0822  0.4813
19836TIP3    H280924   4.829   3.932   4.517  0.1270  0.3878 -0.2514
19837TIP3   OH280925   1.002   6.742  12.957 -0.2092  0.1746 -0.1971
19837TIP3    H180926   1.094   6.757  12.935  0.2892 -0.1600  1.5288
19837TIP3    H280927   0.953   6.787  12.888  1.2268  2.1701  0.0146
19838TIP3   OH280928   3.304   2.385  14.891  0.2965  0.6381  0.4029
19838TIP3    H180929   3.323   2.297  14.923  0.8338  1.6719  3.1526
19838TIP3    H280930   3.211   2.382  14.866  0.5652 -0.9309 -0.6010
19839TIP3   OH280931   5.204   3.548  14.410 -0.2626  0.1429  0.6911
19839TIP3    H180932   5.144   3.622  14.403 -1.0228 -0.5357 -0.2419
19839TIP3    H280933   5.164   3.480  14.357  1.4568 -0.2540 -0.1729
19840TIP3   OH280934   2.978   2.270   2.754 -0.0037 -0.0789 -0.2732
19840TIP3    H180935   3.009   2.232   2.836 -0.4947 -0.3092 -0.1861
19840TIP3    H280936   2.946   2.357   2.778  1.0943  0.3974 -0.4675
19841TIP3   OH280937   1.990   6.106   5.442 -0.2159  0.4003 -0.3422
19841TIP3    H180938   2.066   6.157   5.472 -1.0850  0.1052  2.6790
19841TIP3    H280939   1.975   6.042   5.512 -3.1928  0.3775 -0.8807
19842TIP3   OH280940   2.941   1.802   1.599  0.5197 -0.0830 -0.1308
19842TIP3    H180941   2.848   1.826   1.605  0.7172  0.4692  1.0678
19842TIP3    H280942   2.978   1.831   1.683  1.8169 -0.1080 -0.6785
19843TIP3   OH280943   1.892   3.206   2.620  0.1033  0.4038 -0.2877
19843TIP3    H180944   1.985   3.195   2.602  0.2466  1.4330 -0.2023
19843TIP3    H280945   1.849   3.152   2.553  0.7321  1.0133 -1.2129
19844TIP3   OH280946   1.556   1.660  10.391  0.2732 -0.1910  0.2549
19844TIP3    H180947   1.626   1.607  10.429 -0.4739 -0.0871  1.8965
19844TIP3    H280948   1.581   1.750  10.410 -0.3214 -0.1579  0.9312
19845TIP3   OH280949   1.901   0.853   1.244  0.1072 -0.4129 -0.1721
19845TIP3    H180950   1.902   0.912   1.318  2.6727 -0.9559  0.3144
19845TIP3    H280951   1.921   0.908   1.168 -0.0648 -0.2561 -0.1030
19846TIP3   OH280952   4.768   2.085   1.430 -0.0732  0.0351 -0.5830
19846TIP3    H180953   4.719   2.119   1.355  1.5647  2.2832 -0.7250
19846TIP3    H280954   4.822   2.015   1.394 -0.8844 -0.3596 -1.0455
19847TIP3   OH280955   4.931   4.683  14.440 -0.0302  0.0727 -0.1520
19847TIP3    H180956   4.860   4.682  14.376  0.2086  1.7652 -0.4894
19847TIP3    H280957   4.994   4.747  14.405 -0.2655  1.6846  2.1454
19848TIP3   OH280958   3.410   4.543   2.172  0.0748 -0.5519  0.7770
19848TIP3    H180959   3.356   4.622   2.170 -1.2994 -1.4485  1.2331
19848TIP3    H280960   3.379   4.491   2.098  1.0118 -0.6640  0.4445
19849TIP3   OH280961   4.592   0.177   3.662  0.6924  0.1401  0.6011
19849TIP3    H180962   4.528   0.224   3.716  2.1939  1.9040  0.9577
19849TIP3    H280963   4.676   0.194   3.705  1.7278  0.1731 -1.3284
19850TIP3   OH280964   5.283   1.274   4.800  0.2087  0.5516 -0.4780
19850TIP3    H180965   5.218   1.334   4.837 -0.2093  0.6280 -1.3149
19850TIP3    H280966   5.315   1.319   4.722  0.1859 -0.1254 -0.8900
19851TIP3   OH280967   2.490   3.476   2.840  0.1487 -0.0294 -0.1557
19851TIP3    H180968   2.571   3.456   2.794 -0.2794  1.1258 -1.4886
19851TIP3    H280969   2.455   3.390   2.865  0.9255 -0.6458 -1.0925
19852TIP3   OH280970   6.151   0.205  13.221 -0.2481  0.1234 -0.4543
19852TIP3    H180971   6.088   0.269  13.187 -1.1033 -0.1103  0.6250
19852TIP3    H280972   6.236   0.238  13.194 -0.6856  1.6310 -0.0809
19853TIP3   OH280973   6.716   6.061   5.763  0.2052 -0.6083  0.6478
19853TIP3    H180974   6.763   5.978   5.771  0.8404 -0.3639 -0.4578
19853TIP3    H280975   6.681   6.060   5.674 -1.3085 -0.4710  1.2139
19854TIP3   OH280976   3.135   2.293   0.494  0.0400  0.0725 -0.1187
19854TIP3    H180977   3.190   2.251   0.427 -0.0505  0.4674 -0.4407
19854TIP3    H280978   3.168   2.258   0.577  1.2640  0.8525 -0.2535
19855TIP3   OH280979   4.725   1.689   5.006 -0.2418  0.3060 -0.3559
19855TIP3    H180980   4.716   1.781   4.980 -1.0669 -0.4328 -2.9519
19855TIP3    H280981   4.635   1.662   5.027 -0.1547 -0.1503 -0.5590
19856TIP3   OH280982   0.199   5.984  16.917  0.0040 -0.1549  0.2321
19856TIP3    H180983   0.137   6.053  16.897 -1.7023 -1.5440  0.5085
19856TIP3    H280984   0.247   5.970  16.835  0.0286  0.9796  0.0394
19857TIP3   OH280985   1.245   2.361   3.773 -0.3430  0.1657 -0.1031
19857TIP3    H180986   1.230   2.367   3.867 -0.9241  2.0248 -0.2831
19857TIP3    H280987   1.166   2.398   3.734 -1.1347 -2.6378 -1.4258
19858TIP3   OH280988   1.427   2.695   0.414 -0.0480 -0.4327  0.3440
19858TIP3    H180989   1.416   2.788   0.434 -0.4902 -0.6788  1.2552
19858TIP3    H280990   1.436   2.653   0.499 -0.8104 -1.3512 -0.0156
19859TIP3   OH280991   5.636   3.146  13.652 -0.0284 -0.6636  0.7562
19859TIP3    H180992   5.673   3.234  13.644  1.0801 -1.2239 -0.7336
19859TIP3    H280993   5.666   3.100  13.574 -1.7218 -1.9723  0.8026
19860TIP3   OH280994   6.619   1.881   4.737  0.2038 -0.1343  0.0328
19860TIP3    H180995   6.581   1.802   4.697  0.4401  0.0786 -0.6298
19860TIP3    H280996   6.550   1.916   4.792 -0.1269 -0.4541 -0.1761
19861TIP3   OH280997   6.592   6.014  16.923  0.1113  0.4681 -0.6654
19861TIP3    H180998   6.644   6.094  16.918  1.0096  0.2240  2.4508
19861TIP3    H280999   6.651   5.945  16.894  0.5312  0.5430 -0.0064
19862TIP3   OH281000   5.757   3.396  14.898  0.1219 -0.1204 -0.0358
19862TIP3    H181001   5.742   3.481  14.857  0.9325 -0.1472 -0.4173
19862TIP3    H281002   5.734   3.332  14.831  1.3721 -0.1657 -0.4462
19863TIP3   OH281003   2.027   6.183  13.513 -0.2308  0.0565 -0.0497
19863TIP3    H181004   2.119   6.158  13.511  0.1966  1.5642 -2.4128
19863TIP3    H281005   2.028   6.277  13.533 -1.4251 -0.3206  2.0881
19864TIP3   OH281006   6.360   0.246   5.837 -0.1040  0.4867 -0.4232
19864TIP3    H181007   6.325   0.158   5.823  0.7818 -0.3043  1.8211
19864TIP3    H281008   6.418   0.261   5.762  0.4594 -1.2696 -0.3927
19865TIP3   OH281009   6.782   4.022   5.593  0.0779 -0.0543  0.2274
19865TIP3    H181010   6.722   3.997   5.522 -0.3973 -0.4472  0.7654
19865TIP3    H281011   6.727   4.031   5.670  0.4384  1.3906  0.3390
19866TIP3   OH281012   0.700   0.381  15.630 -0.4226 -0.3730 -0.2409
19866TIP3    H181013   0.664   0.302  15.592 -2.0508 -0.2405  0.9348
19866TIP3    H281014   0.771   0.406  15.570 -0.0243 -2.5382 -0.7732
19867TIP3   OH281015   1.688   1.955   2.316  0.6126 -0.3627  0.0999
19867TIP3    H181016   1.704   1.969   2.409 -1.2384 -2.7581  0.8942
19867TIP3    H281017   1.717   1.865   2.300 -0.1066 -0.3648 -1.3583
19868TIP3   OH281018   6.110   0.165   2.689  0.0554  0.0602  0.0628
19868TIP3    H181019   6.189   0.218   2.697  0.2603 -0.2991  0.4226
19868TIP3    H281020   6.112   0.106   2.764 -0.6001  0.1032  0.1236
19869TIP3   OH281021   6.479   1.115   5.201  0.0099 -0.1698 -0.3596
19869TIP3    H181022   6.418   1.188   5.204 -0.1883 -0.2820 -1.3223
19869TIP3    H281023   6.435   1.046   5.251 -0.1378  0.1236 -0.0810
19870TIP3   OH281024   3.297   0.964  11.609  0.4008 -1.0938 -0.1728
19870TIP3    H181025   3.223   0.971  11.670 -0.6349  0.6657 -1.5378
19870TIP3    H281026   3.356   1.035  11.635  0.0085 -0.4068 -1.0690
19871TIP3   OH281027   4.358   3.062   1.357  0.7007  0.7467 -0.2825
19871TIP3    H181028   4.344   3.155   1.376 -2.3898  0.3464 -0.1693
19871TIP3    H281029   4.387   3.061   1.266  0.4510  1.7878 -0.3914
19872TIP3   OH281030   4.005   0.904   3.902  0.2790 -0.3134  0.0096
19872TIP3    H181031   4.054   0.933   3.825 -0.9738  1.0389 -0.3239
19872TIP3    H281032   3.970   0.818   3.877  2.0014 -1.0683  0.0690
19873TIP3   OH281033   2.434   5.870   2.290  0.2377 -0.3306 -0.1927
19873TIP3    H181034   2.518   5.904   2.258  0.1266  1.3097  1.1297
19873TIP3    H281035   2.455   5.830   2.374 -0.2252 -0.2638 -0.0451
19874TIP3   OH281036   3.812   3.983   4.951 -0.3302 -0.1909  0.0325
19874TIP3    H181037   3.776   4.011   4.866 -0.8668 -2.6325 -0.6301
19874TIP3    H281038   3.742   4.002   5.014 -0.5898  0.1325 -0.3498
19875TIP3   OH281039   1.759   6.541  15.789  0.0224  0.0710  0.1662
19875TIP3    H181040   1.715   6.600  15.727  0.7477 -1.1099 -1.5652
19875TIP3    H281041   1.744   6.454  15.753  2.6133 -0.4670  0.2470
19876TIP3   OH281042   4.542   1.927  16.737  0.6150 -0.2233  0.5024
19876TIP3    H181043   4.523   1.974  16.818  0.4134  1.1330 -0.2969
19876TIP3    H281044   4.528   1.992  16.668  2.4946 -0.8370 -0.5114
19877TIP3   OH281045   1.089   6.338  12.721 -0.4224  0.5009 -0.1813
19877TIP3    H181046   1.032   6.415  12.722 -0.9006  0.1487  0.4301
19877TIP3    H281047   1.034   6.267  12.753 -0.0949 -0.1852 -1.1119
19878TIP3   OH281048   6.188   4.120   5.672 -0.0101 -0.2073  0.0019
19878TIP3    H181049   6.251   4.048   5.664 -1.9997 -2.1187  0.4496
19878TIP3    H281050   6.150   4.108   5.759 -2.0683 -0.1198 -0.8325
19879TIP3   OH281051   3.275   1.659   0.132  0.4700  0.2184  0.5145
19879TIP3    H181052   3.199   1.648   0.074  1.7525  2.8469 -1.9351
19879TIP3    H281053   3.350   1.654   0.073  2.2071 -1.3611  2.7292
19880TIP3   OH281054   0.246   5.568  11.609 -0.2094  0.6462 -0.0051
19880TIP3    H181055   0.261   5.517  11.688 -1.0489 -0.1917 -0.3620
19880TIP3    H281056   0.305   5.531  11.544  1.2878  2.0606  0.4975
19881TIP3   OH281057   0.598   6.240   3.662 -0.2421  0.5906 -0.1356
19881TIP3    H181058   0.598   6.211   3.571 -0.8125 -0.6964  0.2489
19881TIP3    H281059   0.525   6.192   3.702  0.2873  0.7826  1.0955
19882TIP3   OH281060   1.231   5.514  14.105 -0.2586  0.1021 -0.5548
19882TIP3    H181061   1.186   5.566  14.038  0.0668 -0.7759 -1.4937
19882TIP3    H281062   1.161   5.463  14.146 -0.4726  0.7051 -0.1577
19883TIP3   OH281063   0.341   3.139  14.719  0.5504  0.3102  0.4650
19883TIP3    H181064   0.398   3.101  14.653  2.7238  0.8355  1.9278
19883TIP3    H281065   0.348   3.234  14.705  1.3004  0.4398  1.6258
19884TIP3   OH281066   6.525   4.426   1.896 -0.3188  0.4920  0.4354
19884TIP3    H181067   6.539   4.360   1.829  0.2031  0.9067  0.1295
19884TIP3    H281068   6.442   4.467   1.872 -0.8171 -0.2628  0.8164
19885TIP3   OH281069   0.554   1.589   1.901  0.8094 -0.8957 -0.3312
19885TIP3    H181070   0.640   1.617   1.934  0.8613  0.7204 -1.7241
19885TIP3    H281071   0.505   1.670   1.890 -1.2932 -1.8410  1.3167
19886TIP3   OH281072   0.639   2.198  11.185 -0.5121  0.2161 -0.0510
19886TIP3    H181073   0.646   2.255  11.108 -0.9526  0.7177  0.2764
19886TIP3    H281074   0.690   2.242  11.252 -2.0480  1.0027  0.6497
19887TIP3   OH281075   6.598   4.731  13.612  0.1955  0.5956  0.7397
19887TIP3    H181076   6.522   4.675  13.599 -0.3716  1.0799  1.7796
19887TIP3    H281077   6.635   4.742  13.525 -1.1080  0.5878  0.1499
19888TIP3   OH281078   5.269   3.524  15.016  0.2496  0.1752 -0.1517
19888TIP3    H181079   5.298   3.461  14.950 -0.9820  0.2106 -0.7533
19888TIP3    H281080   5.197   3.571  14.974 -0.9068 -0.1317  1.3812
19889TIP3   OH281081   3.203   3.973  15.820  0.1020 -0.2857  0.6854
19889TIP3    H181082   3.147   3.998  15.893  1.4963  1.6511  1.1699
19889TIP3    H281083   3.182   3.881  15.804 -0.5716 -0.6476  3.2245
19890TIP3   OH281084   4.763   5.164  11.077  0.3594 -0.3500 -0.4925
19890TIP3    H181085   4.695   5.192  11.139  0.8516 -1.0142  0.3743
19890TIP3    H281086   4.718   5.160  10.992 -1.5225 -3.4690  0.4658
19891TIP3   OH281087   5.239   6.703  10.934 -0.3428 -0.0367 -1.0152
19891TIP3    H181088   5.161   6.666  10.894 -0.4483 -1.0951  0.1271
19891TIP3    H281089   5.309   6.684  10.872 -0.8163  0.0329 -1.5776
19892TIP3   OH281090   3.952   2.401   1.307  0.2142  0.0052 -0.0251
19892TIP3    H181091   4.027   2.357   1.266  0.4518 -0.2588  0.6787
19892TIP3    H281092   3.974   2.494   1.306 -0.0014  0.0534 -0.9357
19893TIP3   OH281093   0.167   0.625   4.828 -0.2776  0.2109 -0.2525
19893TIP3    H181094   0.104   0.694   4.850  0.5884  0.7765  0.5561
19893TIP3    H281095   0.162   0.564   4.902 -1.3004 -0.8265 -1.1278
19894TIP3   OH281096   0.942   4.334   4.603 -0.1924  0.1254 -0.0989
19894TIP3    H181097   0.848   4.352   4.606 -0.3681 -0.8422  1.1233
19894TIP3    H281098   0.959   4.310   4.512 -1.2241 -0.1834 -0.2219
19895TIP3   OH281099   6.532   3.057   6.517 -0.3388  1.3130  0.1518
19895TIP3    H181100   6.534   2.962   6.505 -3.7951  1.2417 -1.1703
19895TIP3    H281101   6.599   3.090   6.458 -0.1731 -0.2569 -0.5993
19896TIP3   OH281102   3.324   4.166   5.119  0.6747 -0.5555  0.3397
19896TIP3    H181103   3.349   4.247   5.075  1.6410 -0.6923  0.6006
19896TIP3    H281104   3.291   4.110   5.048  0.0780  0.0249  0.1503
19897TIP3   OH281105   5.741   4.548  15.654  0.4592  0.7574 -0.0440
19897TIP3    H181106   5.808   4.563  15.721 -0.4815  1.2932  0.7899
19897TIP3    H281107   5.753   4.456  15.630 -0.0320  0.1523  1.8364
19898TIP3   OH281108   3.244   4.547  15.952 -0.3155  0.1744  0.3893
19898TIP3    H181109   3.322   4.593  15.983 -1.5067  2.5291  0.1065
19898TIP3    H281110   3.268   4.515  15.865  0.4416  0.5656  0.4448
19899TIP3   OH281111   1.799   1.113  13.364 -0.1137 -0.4768  0.0269
19899TIP3    H181112   1.862   1.088  13.431  1.3480  1.6127 -0.4616
19899TIP3    H281113   1.797   1.039  13.304  2.9044 -0.1482 -0.6180
19900TIP3   OH281114   3.578   2.274   4.335 -0.0119  0.2125  0.2203
19900TIP3    H181115   3.525   2.319   4.401 -0.2516  2.2055 -1.2083
19900TIP3    H281116   3.666   2.309   4.347  0.5517 -1.4418  1.1692
19901TIP3   OH281117   5.032   4.489  12.889 -0.1551  0.2823 -0.7932
19901TIP3    H181118   5.037   4.395  12.874 -1.8587 -0.0305  0.3304
19901TIP3    H281119   5.123   4.518  12.892  0.4318 -1.5007 -0.1806
19902TIP3   OH281120   5.612   1.249  15.856 -0.3495  0.1759  0.5306
19902TIP3    H181121   5.699   1.214  15.874 -0.1519 -0.0321 -0.6949
19902TIP3    H281122   5.584   1.288  15.938  0.2892 -1.0365  1.3619
19903TIP3   OH281123   5.963   1.996  11.357 -0.4968 -0.2232 -0.3960
19903TIP3    H181124   5.951   2.003  11.262  1.1786 -1.3111 -0.7358
19903TIP3    H281125   5.875   1.984  11.391 -1.3484  1.9710 -1.5978
19904TIP3   OH281126   6.298   4.207  16.408  0.0409 -0.3614  0.1095
19904TIP3    H181127   6.248   4.227  16.488 -0.3864  0.6153 -0.3809
19904TIP3    H281128   6.363   4.277  16.403  0.7792 -1.0393  0.1735
19905TIP3   OH281129   2.171   2.111  11.432 -0.0665  0.2949  0.3485
19905TIP3    H181130   2.133   2.184  11.382  1.8809  0.7723 -0.5063
19905TIP3    H281131   2.135   2.033  11.390 -1.4147  0.7065  0.6613
19906TIP3   OH281132   3.300   0.068   2.873 -0.1698 -0.0796 -0.0322
19906TIP3    H181133   3.309   0.152   2.917 -0.2760 -0.5103  0.8356
19906TIP3    H281134   3.368   0.013   2.911  1.8004  0.4113 -2.6106
19907TIP3   OH281135   4.042   2.315  16.433 -0.0293 -0.4552  0.0214
19907TIP3    H181136   4.074   2.370  16.361  1.6620  0.3948  1.3338
19907TIP3    H281137   3.965   2.361  16.465  1.0623  0.9416  0.7667
19908TIP3   OH281138   3.065   1.643  11.397 -0.2125  0.7613 -0.4512
19908TIP3    H181139   2.989   1.693  11.368 -0.5212  0.5890  0.0528
19908TIP3    H281140   3.078   1.578  11.327 -1.9094 -0.6663  0.4648
19909TIP3   OH281141   3.695   0.470   6.043  0.0844 -0.7029  0.3034
19909TIP3    H181142   3.684   0.375   6.056 -0.1604 -0.5505  1.2696
19909TIP3    H281143   3.611   0.499   6.006  0.7417 -1.1198 -1.6095
19910TIP3   OH281144   2.624   0.424  10.769  0.1624  0.3867 -0.7809
19910TIP3    H181145   2.616   0.344  10.821 -0.2403 -0.2464 -1.7961
19910TIP3    H281146   2.586   0.492  10.824 -0.8916 -0.3970 -0.5087
19911TIP3   OH281147   3.214   4.109   5.767 -0.0101 -0.0516 -0.3518
19911TIP3    H181148   3.164   4.189   5.784 -0.6510 -0.9560  2.7117
19911TIP3    H281149   3.157   4.057   5.711 -2.4878 -0.8185  2.5792
19912TIP3   OH281150   0.736   3.342   2.550  0.3167  0.3071 -0.0593
19912TIP3    H181151   0.743   3.378   2.638 -1.4666 -1.3951  0.8505
19912TIP3    H281152   0.808   3.280   2.543  0.9803  1.0624 -0.1637
19913TIP3   OH281153   5.509   6.169  12.396 -0.1037  0.2766  0.0088
19913TIP3    H181154   5.472   6.091  12.436  0.7366 -1.0163 -1.5775
19913TIP3    H281155   5.470   6.173  12.309  0.7220  0.9634 -0.3562
19914TIP3   OH281156   6.687   3.349  15.710  0.6136  0.4073 -0.1980
19914TIP3    H181157   6.666   3.413  15.642  2.2472  0.5802 -0.5745
19914TIP3    H281158   6.691   3.401  15.790  1.2502  0.6629 -0.3916
19915TIP3   OH281159   4.189   2.918  16.660 -0.6788 -0.1706  0.0931
19915TIP3    H181160   4.262   2.861  16.634  0.2074  0.6831  0.6332
19915TIP3    H281161   4.230   3.003  16.675 -1.7234  0.2111  0.8640
19916TIP3   OH281162   6.038   3.461  15.009  0.2197  0.1708  0.2471
19916TIP3    H181163   5.947   3.440  14.990 -0.2936  1.6338  0.8822
19916TIP3    H281164   6.089   3.395  14.963 -1.1463 -0.2736 -0.6724
19917TIP3   OH281165   5.832   1.921  14.310  0.6142  0.1999  0.0082
19917TIP3    H181166   5.753   1.910  14.258  0.3315  2.0524 -0.0143
19917TIP3    H281167   5.893   1.965  14.252  2.6069 -3.2550 -0.7796
19918TIP3   OH281168   3.186   5.243  17.128 -0.4558  0.1885 -0.1627
19918TIP3    H181169   3.277   5.213  17.121 -0.4875 -0.5106  1.8769
19918TIP3    H281170   3.169   5.246  17.222 -1.2160  4.4197 -0.2270
19919TIP3   OH281171   3.020   0.787   0.171  0.2714  0.0427 -0.1814
19919TIP3    H181172   2.987   0.746   0.251 -3.3593 -1.5338 -2.2398
19919TIP3    H281173   3.053   0.713   0.119  2.4504  1.0246 -0.3120
19920TIP3   OH281174   2.072   6.649   0.900  0.0455 -0.1352  0.5099
19920TIP3    H181175   2.018   6.709   0.849  1.1551  0.6690  0.2448
19920TIP3    H281176   2.135   6.705   0.945  0.0026 -0.9608  1.6360
19921TIP3   OH281177   2.984   6.506  13.197 -0.7321  0.2702  0.5093
19921TIP3    H181178   3.036   6.529  13.275  0.9590  2.5991 -1.1765
19921TIP3    H281179   3.047   6.505  13.125 -2.1762 -2.2063 -0.8662
19922TIP3   OH281180   6.604   2.335  13.575 -0.9803  0.2952 -0.6959
19922TIP3    H181181   6.586   2.275  13.502 -2.0176 -0.4398  0.1345
19922TIP3    H281182   6.540   2.405  13.566  0.2223  1.3147 -1.6560
19923TIP3   OH281183   6.765   4.500   1.975  0.3240 -0.0001  0.3513
19923TIP3    H181184   6.768   4.416   2.021  0.3258 -0.6517 -0.7892
19923TIP3    H281185   6.679   4.501   1.933  0.3636  0.5302  0.2721
19924TIP3   OH281186   2.936   6.657  11.585 -0.5576 -0.8805  0.0965
19924TIP3    H181187   3.005   6.593  11.599  0.5683  0.3656  0.4261
19924TIP3    H281188   2.955   6.695  11.499  0.4319  0.8993  1.0307
19925TIP3   OH281189   1.454   2.606  13.053 -1.0329 -0.0541 -0.3869
19925TIP3    H181190   1.517   2.671  13.022 -0.3895 -0.7943 -0.7008
19925TIP3    H281191   1.374   2.654  13.069  0.3003  1.4466  2.5407
19926TIP3   OH281192   4.132   5.043  17.110 -0.3527 -0.1720  0.2582
19926TIP3    H181193   4.076   4.967  17.092  2.2506 -2.1565 -0.1279
19926TIP3    H281194   4.141   5.044  17.206  0.6755 -1.2449  0.1929
19927TIP3   OH281195   5.265   5.872  13.906 -0.0206  0.0059 -0.2265
19927TIP3    H181196   5.335   5.937  13.909  1.4002 -1.4929  0.2656
19927TIP3    H281197   5.271   5.834  13.819 -1.3618  1.0106 -0.8030
19928TIP3   OH281198   2.281   0.856   2.374 -0.7393  0.5579 -0.2048
19928TIP3    H181199   2.325   0.932   2.336  0.7145  0.6870  1.5769
19928TIP3    H281200   2.204   0.891   2.418 -0.9685  0.7589 -0.7597
19929TIP3   OH281201   3.267   2.857  17.041  0.5784 -0.1222 -0.6051
19929TIP3    H181202   3.354   2.837  17.075  0.0911 -1.1637  0.1008
19929TIP3    H281203   3.249   2.786  16.979  0.7875  0.8623 -1.8432
19930TIP3   OH281204   6.665   1.232   5.605  0.6069 -0.0089  0.4604
19930TIP3    H181205   6.590   1.287   5.627 -0.8247 -1.2756 -0.9282
19930TIP3    H281206   6.727   1.246   5.676 -0.3387  2.1627  0.9429
19931TIP3   OH281207   4.918   4.463   3.985  0.3206 -0.3036 -0.3009
19931TIP3    H181208   4.860   4.430   3.917 -1.9099  2.1324  0.2570
19931TIP3    H281209   4.999   4.413   3.975 -0.8358 -1.7952 -3.0320
19932TIP3   OH281210   4.534   0.423   0.232 -0.2930  0.3759 -0.1778
19932TIP3    H181211   4.618   0.414   0.276  0.0738 -0.2835 -0.9675
19932TIP3    H281212   4.546   0.497   0.172  1.0608 -1.9300 -3.0317
19933TIP3   OH281213   6.029   3.974   4.395  0.3779  0.2838  0.0432
19933TIP3    H181214   6.074   4.053   4.365  0.3341  0.7743  1.2119
19933TIP3    H281215   5.938   4.001   4.407  0.4589  0.1905  0.9170
19934TIP3   OH281216   5.324   6.252   4.101 -0.1078  0.3606  0.3023
19934TIP3    H181217   5.283   6.303   4.031 -1.1759  0.0280  0.6715
19934TIP3    H281218   5.360   6.176   4.057 -2.8055 -1.0608  0.3492
19935TIP3   OH281219   1.429   4.623  15.675 -0.3102 -0.0930 -0.1100
19935TIP3    H181220   1.375   4.693  15.637 -0.4774 -1.9045 -3.5726
19935TIP3    H281221   1.512   4.629  15.628  0.7805 -0.3856  1.7052
19936TIP3   OH281222   4.621   0.532   5.210  0.5368 -0.1402 -0.1963
19936TIP3    H181223   4.694   0.586   5.179 -0.4064  0.5931 -1.2191
19936TIP3    H281224   4.552   0.594   5.233  0.8973 -0.6971  2.8022
19937TIP3   OH281225   3.453   2.119  12.427 -0.3009 -0.6965  0.1758
19937TIP3    H181226   3.485   2.115  12.517 -0.7249  2.3469  0.5667
19937TIP3    H281227   3.361   2.094  12.432 -1.1387  2.2509  1.1842
19938TIP3   OH281228   6.714   1.293   3.645 -0.2985  0.1455  0.3145
19938TIP3    H181229   6.727   1.229   3.575  0.1985  1.3642 -0.7219
19938TIP3    H281230   6.742   1.376   3.609 -2.3556  1.2760  1.1037
19939TIP3   OH281231   6.690   0.791   1.445  0.2829  0.0833  0.0977
19939TIP3    H181232   6.782   0.816   1.456  0.3030 -0.3019  0.8709
19939TIP3    H281233   6.692   0.720   1.381  0.7434 -1.1985  1.4613
19940TIP3   OH281234   1.395   2.888  14.612 -0.3491  0.8476 -0.1225
19940TIP3    H181235   1.349   2.867  14.693  1.1074 -2.3035  0.0239
19940TIP3    H281236   1.333   2.865  14.543 -0.6115  0.9496  0.0773
19941TIP3   OH281237   4.506   3.105  14.457 -0.3355  0.1317  0.0758
19941TIP3    H181238   4.499   3.199  14.472 -1.3965  0.2404 -0.9464
19941TIP3    H281239   4.580   3.095  14.396 -0.5267  0.3586 -0.1968
19942TIP3   OH281240   4.504   4.471   4.231  0.2220 -0.0860  0.1428
19942TIP3    H181241   4.512   4.521   4.150 -1.7650  0.3281  0.1317
19942TIP3    H281242   4.518   4.536   4.300 -2.6634  0.6970  0.1337
19943TIP3   OH281243   2.177   3.125   3.970  0.8589 -0.3860  0.0455
19943TIP3    H181244   2.246   3.182   3.936 -0.0349  1.1771  0.7351
19943TIP3    H281245   2.104   3.184   3.989  0.1183 -1.6734  1.4258
19944TIP3   OH281246   3.545   1.241  16.999  0.0674 -0.4963 -0.7594
19944TIP3    H181247   3.611   1.308  16.982  0.0518 -0.2192  0.2287
19944TIP3    H281248   3.594   1.159  17.004  0.5615 -0.1360  1.2671
19945TIP3   OH281249   2.616   3.632  16.152  0.3631 -0.0817  0.6094
19945TIP3    H181250   2.709   3.652  16.148  0.7347 -1.7427  0.1307
19945TIP3    H281251   2.601   3.603  16.242  0.5914 -1.0367  0.3458
19946TIP3   OH281252   2.226   3.777   3.353 -0.2174 -0.2785  0.4919
19946TIP3    H181253   2.167   3.850   3.371 -0.8347 -0.5509 -0.3469
19946TIP3    H281254   2.310   3.817   3.334 -0.7200  0.2753 -0.6531
19947TIP3   OH281255   3.309   1.584  15.327 -0.3437 -0.4158  0.3314
19947TIP3    H181256   3.308   1.631  15.410  4.8297  2.5146 -0.8291
19947TIP3    H281257   3.359   1.504  15.344  1.2752  0.4953  0.0320
19948TIP3   OH281258   4.845   4.886   1.938  0.4819 -0.4172 -0.6862
19948TIP3    H181259   4.884   4.863   2.022  0.3623 -0.0585 -0.5294
19948TIP3    H281260   4.853   4.806   1.886  2.0222 -0.1683 -0.8927
19949TIP3   OH281261   6.275   2.468   3.662  0.2833 -0.0442 -0.3273
19949TIP3    H181262   6.325   2.389   3.644 -0.4305 -0.8188  0.9906
19949TIP3    H281263   6.337   2.526   3.706  1.0517  0.5114 -2.0421
19950TIP3   OH281264   0.255   5.364   4.686 -0.3617  1.0040 -0.2069
19950TIP3    H181265   0.224   5.454   4.700 -0.6744  1.2035 -1.8680
19950TIP3    H281266   0.175   5.313   4.677 -0.1896  0.7394 -0.2316
19951TIP3   OH281267   1.119   3.817   5.206 -0.1420 -0.3838  0.3472
19951TIP3    H181268   1.046   3.854   5.157  0.1659  0.2097  0.3289
19951TIP3    H281269   1.080   3.781   5.285 -0.7372 -1.9025 -0.6012
19952TIP3   OH281270   0.412   6.065  13.749  0.1469 -0.0516 -0.3463
19952TIP3    H181271   0.386   6.135  13.809 -2.7555 -1.1770 -0.1282
19952TIP3    H281272   0.426   5.988  13.806  1.3801 -0.1628 -0.7690
19953TIP3   OH281273   6.177   0.209   3.273  0.5635 -0.4893  0.0379
19953TIP3    H181274   6.271   0.219   3.256  0.9348 -1.3902  1.4018
19953TIP3    H281275   6.161   0.262   3.351 -0.4247  0.9639 -1.1121
19954TIP3   OH281276   3.782   0.395   0.873 -0.0229 -0.8488  0.5874
19954TIP3    H181277   3.805   0.320   0.818  1.6834  0.4821 -0.6258
19954TIP3    H281278   3.867   0.434   0.896 -0.8869  1.8709 -0.5188
19955TIP3   OH281279   1.571   2.640   1.529  0.3072 -0.0715  0.1671
19955TIP3    H181280   1.531   2.725   1.546  1.1892  0.5133 -0.5542
19955TIP3    H281281   1.502   2.577   1.545 -0.6982  0.8658 -0.3583
19956TIP3   OH281282   1.782   4.886   4.771  0.0713  0.4233  0.3301
19956TIP3    H181283   1.862   4.938   4.760  0.6373 -0.2547  1.1332
19956TIP3    H281284   1.761   4.894   4.865 -0.2505 -0.1917  0.3136
19957TIP3   OH281285   6.118   3.147  15.486 -0.3847  0.1945  0.0909
19957TIP3    H181286   6.181   3.075  15.493  0.7935  1.1900 -0.0347
19957TIP3    H281287   6.140   3.204  15.559  0.1417  1.5376 -1.0833
19958TIP3   OH281288   4.840   4.636   2.150  0.2819 -0.0567  0.2125
19958TIP3    H181289   4.805   4.605   2.067 -0.6177  2.5138 -0.4455
19958TIP3    H281290   4.819   4.566   2.213 -0.3705 -1.3665 -1.3966
19959TIP3   OH281291   4.774   6.402   4.730  0.1127  0.1027 -0.8066
19959TIP3    H181292   4.751   6.483   4.685 -0.5009  0.8380  0.7467
19959TIP3    H281293   4.773   6.335   4.662  1.2339  1.4807 -2.2326
19960TIP3   OH281294   3.203   2.004  15.066  0.3051 -0.2972 -0.4170
19960TIP3    H181295   3.251   1.955  14.999 -0.6376  2.6611 -3.5182
19960TIP3    H281296   3.254   2.084  15.079 -0.8352  0.3114  0.5550
19961TIP3   OH281297   3.616   0.409  15.381 -0.4926  0.9941  0.0774
19961TIP3    H181298   3.608   0.470  15.455 -2.5567 -1.7351  2.3076
19961TIP3    H281299   3.529   0.370  15.372  0.4666 -0.9296 -1.8962
19962LIG     O181300   1.941   5.189  16.647 -0.0013  0.8068 -0.1444
19962LIG     O281301   1.722   5.245  16.727  0.2719  0.1843 -0.3142
19962LIG     O381302   1.676   5.197  16.498  0.2835  0.6841  0.7215
19962LIG     O481303   2.006   5.360  16.919  0.2775 -0.2892  0.0653
19962LIG     O581304   2.070   5.522  16.693  0.1839 -0.3630  0.0736
19962LIG     O681305   1.516   5.054  16.797 -0.4430  0.3112  0.1428
19962LIG     O781306   1.457   5.337  16.743  0.1895  0.1868 -0.3120
19962LIG     O881307   1.372   5.408  16.483 -0.0443 -0.5563 -0.5582
19962LIG     O981308   1.833   5.174  17.009  0.1322  0.3952  0.2770
19962LIG    O1081309   2.033   5.222  16.366 -0.2329 -0.3572 -0.8768
19962LIG    O1181310   1.541   5.470  16.286 -0.4079 -0.0180  1.0822
19962LIG     C181311   1.856   5.223  16.763 -0.1898 -0.3682  0.1567
19962LIG     C281312   1.903   5.367  16.816  0.1764 -0.4413  0.7214
19962LIG     C381313   1.962   5.427  16.686 -0.4980 -0.1672 -0.2679
19962LIG     C481314   2.005   5.305  16.600  0.1839 -0.4635  0.5570
19962LIG     C581315   1.669   5.152  16.632  0.6858 -0.7611  0.4848
19962LIG     C681316   1.526   5.114  16.667  0.5132 -0.7120 -0.2486
19962LIG     C781317   1.432   5.236  16.649 -0.3929  0.4714 -0.2688
19962LIG     C881318   1.451   5.288  16.502  0.0087 -0.5291 -0.3419
19962LIG     C981319   1.592   5.312  16.466  0.3645  0.6399  0.5750
19962LIG    C1081320   1.870   5.117  16.885 -0.3937  0.7181  0.3444
19962LIG    C1181321   1.988   5.331  16.447 -0.8891  0.4564 -0.7854
19962LIG    C1281322   1.609   5.346  16.317 -0.6929  0.1476  0.4487
19962LIG     H181323   1.816   5.428  16.846  1.5835  2.9630 -1.5362
19962LIG     H281324   1.876   5.476  16.639  0.3646  1.1285 -0.5700
19962LIG     H381325   2.109   5.275  16.619  0.6414 -0.3356 -1.4991
19962LIG     H481326   1.732   5.060  16.640  2.7476  0.4965 -0.4676
19962LIG     H581327   1.489   5.040  16.593  0.3004  0.3632 -1.2488
19962LIG     H681328   1.327   5.203  16.663  0.6596 -3.3248 -0.1572
19962LIG     H781329   1.412   5.207  16.438 -1.7097  0.5839 -0.7855
19962LIG     H881330   1.623   5.391  16.538 -1.9862 -0.6908  3.2167
19962LIG     H981331   1.808   5.028  16.863 -1.5582  1.4476  0.5658
19962LIG    H1081332   1.978   5.090  16.883 -0.7110 -0.7128  1.3299
19962LIG    H1181333   1.879   5.339  16.432 -0.6897  1.1864 -2.0207
19962LIG    H1281334   2.026   5.432  16.419 -3.2935  1.7174  0.2843
19962LIG    H1381335   1.716   5.346  16.287 -0.0037 -0.8216  2.7297
19962LIG    H1481336   1.563   5.263  16.259 -0.4882 -0.1009  0.6393
19962LIG    H1581337   1.972   5.293  16.980 -0.1645 -0.7002 -0.6243
19962LIG    H1681338   2.143   5.476  16.734 -0.1670 -0.1782  0.9188
19962LIG    H1781339   1.556   4.967  16.799  1.3754  1.1083  0.9274
19962LIG    H1881340   1.387   5.400  16.726  0.9572  1.0919 -0.1418
19962LIG    H1981341   1.411   5.447  16.405 -1.9951 -0.9738 -1.8173
19962LIG    H2081342   1.874   5.126  17.081 -2.1011  0.1092  1.4572
19962LIG    H2181343   2.007   5.246  16.277 -0.8972 -0.7269 -0.7859
19962LIG    H2281344   1.524   5.486  16.193 -2.3499  1.1478  1.5725
   6.79735   6.79735  17.19913
